9
Lattice="5.58741482551478 -2.064399479138498e-08 3.22589541768478 1.8624715857823264 5.267865111406486 3.225895423329977 4.208053164789593e-09 9.889462616022924e-09 6.45179082808103" Properties=species:S:1:pos:R:3:forces:R:3 energy=-26.526466369628906 free_energy=-26.526466369628906 stress="-1.8221197706225212e-06 -2.4682339727633007e-08 4.0213889995754926e-09 -2.4682339727633007e-08 -1.8370974430581555e-06 -7.880163743756441e-10 4.0213889995754926e-09 -7.880163743756441e-10 -1.8156204077968141e-06" pbc="T T T"
Ag       1.86247177       1.31696637       3.22589525      -0.00000002       0.00000025       0.00000003
Ag       5.58741500       3.95089883       9.67768619       0.00000067       0.00000020      -0.00000028
Au       0.00000010       0.00000012       0.00000014      -0.00000038      -0.00000249      -0.00000300
S        2.00662361       1.41889710       6.45179067      -0.00047538      -0.00033557       0.00000045
S        5.44326260       3.84896810       6.45179044       0.00047418       0.00033537       0.00000061
S        4.58410281       1.41889729       4.96368287       0.00023784      -0.00033529      -0.00041044
S        2.86578285       3.84896824       7.93989930      -0.00023772       0.00033635       0.00041202
S        2.86578359       3.84896784       4.96368271      -0.00023687       0.00033654      -0.00041059
S        4.58410333       1.41889651       7.93989909       0.00023778      -0.00033541       0.00041106
