9
Lattice="5.7862513062464656 -6.601502358383689e-08 3.34069375222539 1.9287503862646524 5.455329952542768 3.3406937295549968 2.2669626491470777e-08 -1.1735565143381686e-08 6.681387465185843" Properties=species:S:1:pos:R:3:forces:R:3 energy=-27.036426544189453 free_energy=-27.036426544189453 stress="-8.071834599832073e-05 -4.414379084494158e-09 7.861641115880502e-09 -4.414379084494158e-09 -8.072408672887832e-05 9.38589561627623e-09 7.861641115880502e-09 9.38589561627623e-09 -8.071179763646796e-05" pbc="T T T"
Ag       1.92875047       1.36383256       3.34069381      -0.00000011       0.00000025       0.00000017
Ag       5.78625118       4.09149742      10.02208136      -0.00000010       0.00000022      -0.00000005
Au       0.00000003      -0.00000005      -0.00000003      -0.00000035       0.00000045      -0.00000003
Se       2.26427755       1.60108616       6.68138740      -0.00154976      -0.00109520      -0.00000042
Se       5.45072443       3.85424407       6.68138735       0.00154954       0.00109487       0.00000013
Se       4.65411214       1.60108585       5.30161607       0.00077448      -0.00109602      -0.00134115
Se       3.06088928       3.85424397       8.06115932      -0.00077403       0.00109501       0.00134119
Se       3.06088938       3.85424373       5.30161569      -0.00077344       0.00109497      -0.00134073
Se       4.65411236       1.60108574       8.06115882       0.00077374      -0.00109467       0.00134088
