9
Lattice="4.723338249222703 6.097949252198325e-08 2.7270206855531254 1.5744461106445116 4.453206077278261 2.7270207373791036 -1.0236572889142421e-08 5.623524709333548e-08 5.4540413888364805" Properties=species:S:1:pos:R:3:forces:R:3 energy=-32.3365478515625 free_energy=-32.3365478515625 stress="0.0003118196618743241 -7.917598310314133e-08 1.3091480788318677e-08 -7.917598310314133e-08 0.00031199678778648376 -2.464506998478555e-08 1.3091480788318677e-08 -2.464506998478555e-08 0.00031196416239254177" pbc="T T T"
Ag       1.57444602       1.11330154       2.72702077      -0.00000019      -0.00000088      -0.00000043
Ag       4.72333835       3.33990467       8.18106228       0.00000067       0.00000082       0.00000177
Au       0.00000012       0.00000003       0.00000003       0.00000176       0.00000575      -0.00001047
O        1.61086831       1.13905579       5.45404146      -0.00052273      -0.00037065      -0.00000006
O        4.68691635       3.31415070       5.45404137       0.00051796       0.00036666       0.00000021
O        3.91790409       1.13905589       4.12207325       0.00026172      -0.00036845      -0.00045159
O        2.37987965       3.31415034       6.78600914      -0.00026309       0.00037110       0.00045559
O        2.37988024       3.31415048       4.12207363      -0.00026050       0.00037006      -0.00045180
O        3.91790422       1.13905550       6.78600926       0.00026432      -0.00037429       0.00045651
