9
Lattice="5.517014510095846 2.8473971884828575e-06 3.1852514530476457 1.8390082708258966 5.201499172203041 3.1852501547456034 2.705673329979823e-07 -1.3987693391883305e-06 6.370502437459329" Properties=species:S:1:pos:R:3:forces:R:3 energy=-27.25312042236328 free_energy=-27.25312042236328 stress="0.000406065460992977 -1.0015049412004373e-07 2.9896673936491425e-07 -1.0015049412004373e-07 0.0004050150455441326 1.1866689675343878e-07 2.9896673936491425e-07 1.1866689675343878e-07 0.0004055155150126666" pbc="T T T"
Ag       1.83900473       1.30037391       3.18525216      -0.00000060      -0.00000182       0.00000184
Ag       5.51701669       3.90112485       9.55575334      -0.00000185      -0.00000012      -0.00000092
Be      -0.00000141      -0.00000179      -0.00000573       0.00000371       0.00000498       0.00001766
Se       2.08426806       1.47380078       6.37051125      -0.00619908      -0.00439508       0.00001526
Se       5.27175846       3.72770271       6.37050442       0.00619343       0.00438958       0.00000392
Se       4.47488056       1.47379786       4.99027380       0.00307957      -0.00438587      -0.00537959
Se       2.88113269       3.72770013       7.75072638      -0.00311518       0.00438733       0.00535943
Se       2.88114645       3.72770343       4.99027509      -0.00307123       0.00439087      -0.00537929
Se       4.47488588       1.47379992       7.75072610       0.00311121      -0.00438996       0.00536165
