9
Lattice="5.410041438166858 -2.573299494255117e-08 3.123489001973393 1.8033471355726611 5.100636207371009 3.1234889781086888 -6.050565556247462e-08 -7.201213261712389e-08 6.246978108745622" Properties=species:S:1:pos:R:3:forces:R:3 energy=-26.84548568725586 free_energy=-26.84548568725586 stress="-0.00023167005565483123 -6.511486105864606e-08 -4.4904545859481004e-08 -6.511486105864606e-08 -0.00023168741608969867 1.2408096772276167e-08 -4.4904545859481004e-08 1.2408096772276167e-08 -0.00023174828675109893" pbc="T T T"
Ag       1.80334747       1.27515948       3.12348905       0.00000102       0.00000173       0.00000060
Ag       5.41004126       3.82547671       9.37046709      -0.00000054      -0.00000103      -0.00000047
Be      -0.00000006      -0.00000018      -0.00000023      -0.00000093       0.00000012      -0.00000088
S        1.90283663       1.34550913       6.24697765      -0.00487954      -0.00344830      -0.00000206
S        5.31055174       3.75512630       6.24697814       0.00487946       0.00344766      -0.00000083
S        4.45862231       1.34551019       4.77139414       0.00243932      -0.00344610      -0.00422807
S        2.75476686       3.75512618       7.72256222      -0.00243614       0.00344744       0.00422820
S        2.75476576       3.75512635       4.77139381      -0.00243952       0.00344494      -0.00422646
S        4.45862212       1.34551028       7.72256248       0.00243688      -0.00344647       0.00422991
