9
Lattice="4.576494243422051 1.1721347752024039e-07 2.642240134743589 1.5254981501829588 4.314760305708895 2.6422402065676978 -5.094721639890198e-09 8.436368986179353e-08 5.284480278311469" Properties=species:S:1:pos:R:3:forces:R:3 energy=-37.75182342529297 free_energy=-37.75182342529297 stress="0.0002619064471218735 9.33992883034307e-09 -4.593240987560421e-08 9.33992883034307e-09 0.00026203261222690344 -8.246018978752545e-09 -4.593240987560421e-08 -8.246018978752545e-09 0.00026205118047073483" pbc="T T T"
Ag       1.52549810       1.07868992       2.64224017       0.00000042      -0.00000015       0.00000028
Ag       4.57649417       3.23607018       7.92672042       0.00000008      -0.00000027      -0.00000037
Be      -0.00000002      -0.00000022       0.00000017      -0.00000151       0.00000409      -0.00000127
O        1.31987453       0.93329254       5.28448030      -0.00262121      -0.00185420       0.00000029
O        4.78211757       3.38146840       5.28448064       0.00262399       0.00185400      -0.00000139
O        3.91655697       0.93329245       3.78528539       0.00131095      -0.00185462      -0.00227090
O        2.18543555       3.38146813       6.78367505      -0.00131250       0.00185412       0.00227258
O        2.18543567       3.38146786       3.78528542      -0.00131114       0.00185370      -0.00227113
O        3.91655704       0.93329280       6.78367508       0.00131076      -0.00185620       0.00227206
