9
Lattice="4.801586846141962 -7.680638495892384e-08 2.7721975599474575 1.6005287659623662 4.526979918900377 2.772197751058234 -1.3407559253943827e-07 1.392562050553177e-07 5.544395352120658" Properties=species:S:1:pos:R:3:forces:R:3 energy=-34.39097595214844 free_energy=-34.39097595214844 stress="4.874556907452643e-05 -5.00708843276243e-08 2.6110514639299254e-08 -5.00708843276243e-08 4.876546154264361e-05 1.5144925313848034e-08 2.6110514639299254e-08 1.5144925313848034e-08 4.8812198656378314e-05" pbc="T T T"
Ag       1.60052883       1.13174520       2.77219762      -0.00000102       0.00000088       0.00000066
Ag       4.80158671       3.39523464       8.31659268       0.00000025      -0.00000120      -0.00000131
Ca      -0.00000044       0.00000040       0.00000079       0.00000466      -0.00000474      -0.00000832
O        1.85624387       1.31256314       5.54439528       0.00002128       0.00001402      -0.00000017
O        4.54587165       3.21441702       5.54439543      -0.00002117      -0.00001486      -0.00000048
O        3.87346474       1.31256290       4.37975215      -0.00001168       0.00001648       0.00001985
O        2.52865138       3.21441665       6.70903789       0.00000719      -0.00000973      -0.00001206
O        2.52865059       3.21441677       4.37975242       0.00000990      -0.00001480       0.00001808
O        3.87346449       1.31256327       6.70903845      -0.00000943       0.00001386      -0.00001632
