9
Lattice="5.874670785869443 -0.7617143618045674 3.336514908835794 1.6495309466295174 5.568726325862478 2.255983385514388 0.04366428949053257 -1.135064292363787 6.678680081391375" Properties=species:S:1:pos:R:3:forces:R:3 energy=-38.600887298583984 free_energy=-38.600887298583984 stress="-0.0006293660844676197 -8.060246182139963e-05 0.000678857380989939 -8.060246182139963e-05 -0.00020053678599651903 -0.00010154853225685656 0.000678857380989939 -0.00010154853225685656 -0.0006209028069861233" pbc="T T T"
Ag       0.91522933      -0.09049205       3.57623322      -0.00648670      -0.01584724      -0.01637985
Ag       5.41803688       2.83490207       9.62766344      -0.00610626       0.00445885       0.00329275
C        0.20881837      -0.15425676      -0.20183083       0.02885563       0.01242334       0.00294586
S        1.40255674      -0.06357001       6.87941447      -0.01583430      -0.00429660      -0.01925746
S        5.66652382       2.58983014       6.03231414      -0.01653248       0.01914161      -0.01148522
S        4.79257258      -1.11449338       4.27579892       0.04591590      -0.01897362      -0.00528130
S        1.99945934       3.48967265       7.23418584       0.00133428       0.01192901       0.02731004
S        4.17742349       5.83789275       3.99058260      -0.00519928      -0.00624502       0.01354483
S        5.69077954       1.35837465       7.67031075      -0.02594685      -0.00259036       0.00531033
