9
Lattice="5.780169119118845 -4.010917427972997e-07 3.337181347390664 1.9267225998588577 5.449594751933287 3.3371814542487233 -1.962339955611594e-07 -7.884523954372067e-09 6.674363034668538" Properties=species:S:1:pos:R:3:forces:R:3 energy=-23.057973861694336 free_energy=-23.057973861694336 stress="3.847832431347342e-06 2.418927813607752e-08 2.2624933038173367e-08 2.418927813607752e-08 3.985800958616892e-06 -2.900005791062199e-09 2.2624933038173367e-08 -2.900005791062199e-09 4.117082880839007e-06" pbc="T T T"
Ag       1.92672291       1.36239882       3.33718144      -0.00000055       0.00000074      -0.00000092
Ag       5.78016802       4.08719613      10.01154447      -0.00000027       0.00000137      -0.00000014
Cd      -0.00000003       0.00000021      -0.00000009       0.00000079      -0.00000070      -0.00000046
S        2.20104400       1.55637370       6.67436315      -0.00096481      -0.00067824       0.00000099
S        5.50584821       3.89322064       6.67436272       0.00096585       0.00067969      -0.00000092
S        4.67964613       1.55637283       5.24334225       0.00048090      -0.00068088      -0.00082897
S        3.02724529       3.89322048       8.10538348      -0.00048319       0.00067762       0.00082855
S        3.02724575       3.89322126       5.24334268      -0.00047969       0.00068012      -0.00082664
S        4.67964582       1.55637328       8.10538328       0.00048130      -0.00067964       0.00082849
