9
Lattice="5.530504541644003 -1.4300434874588715e-07 3.1930371120619463 1.8435012940885795 5.214209301202524 3.1930372592290692 -3.1207388710632067e-07 -4.042740893370543e-08 6.386074764651833" Properties=species:S:1:pos:R:3:forces:R:3 energy=-27.989013671875 free_energy=-27.989013671875 stress="-8.779788913670927e-06 6.429947774222455e-08 3.780587576329708e-08 6.429947774222455e-08 -8.713256647752132e-06 3.029805384358042e-08 3.780587576329708e-08 3.029805384358042e-08 -8.527302270522341e-06" pbc="T T T"
Ag       1.84350129       1.30355215       3.19303704       0.00000026      -0.00000026       0.00000002
Ag       5.53050421       3.91065707       9.57911161      -0.00000036       0.00000009      -0.00000013
Cu      -0.00000046       0.00000069       0.00000020       0.00000203      -0.00000358      -0.00000006
Se       2.09355322       1.48036602       6.38607476      -0.00038875      -0.00027441       0.00000038
Se       5.28045251       3.73384278       6.38607412       0.00038859       0.00027390      -0.00000038
Se       4.48372824       1.48036563       5.00610804       0.00019559      -0.00027400      -0.00033436
Se       2.89027727       3.73384333       7.76604146      -0.00019510       0.00027472       0.00033567
Se       2.89027772       3.73384382       5.00610836      -0.00019556       0.00027674      -0.00033477
Se       4.48372801       1.48036490       7.76604094       0.00019332      -0.00027315       0.00033358
