9
Lattice="4.721223745493363 1.238654785184286e-07 2.7257999321711273 1.5737413726237732 4.451212862263205 2.7257999194500244 1.7548298800780522e-07 1.0850507246565744e-07 5.451599560396811" Properties=species:S:1:pos:R:3:forces:R:3 energy=-42.1295280456543 free_energy=-42.1295280456543 stress="-0.0001411198900314048 -2.0859655336380456e-08 -4.204649073358269e-09 -2.0859655336380456e-08 -0.0001410695113008842 -3.100879997219863e-09 -4.204649073358269e-09 -3.100879997219863e-09 -0.00014111112977843732" pbc="T T T"
Ag       1.57374078       1.11280319       2.72579977      -0.00000169      -0.00000002       0.00000012
Ag       4.72122403       3.33840979       8.17739937       0.00000000       0.00000005       0.00000043
Cr      -0.00000004       0.00000021       0.00000050      -0.00000320      -0.00000578      -0.00000556
O        1.47331907       1.04179419       5.45159941       0.00224286       0.00158465      -0.00000187
O        4.82164580       3.40941889       5.45159959      -0.00223088      -0.00157788      -0.00000223
O        3.98456477       1.04179409       4.00173233      -0.00112274       0.00158334       0.00193930
O        2.31040158       3.40941869       6.90146719       0.00111395      -0.00157690      -0.00193003
O        2.31040130       3.40941880       4.00173230       0.00111777      -0.00158340       0.00193441
O        3.98456481       1.04179441       6.90146707      -0.00111598       0.00157574      -0.00193426
