9
Lattice="5.887293870516911 4.107146287748592e-08 3.399030546841037 1.9624314268626144 5.55059321181242 3.399030377155877 1.6349474656513284e-07 -9.221276014086135e-08 6.798060810500851" Properties=species:S:1:pos:R:3:forces:R:3 energy=-26.57071304321289 free_energy=-26.57071304321289 stress="6.203054363140836e-05 7.3878214656986074e-09 -1.6846966488515136e-08 7.3878214656986074e-09 6.207582919159904e-05 8.90841889145122e-09 -1.6846966488515136e-08 8.90841889145122e-09 6.199389463290572e-05" pbc="T T T"
Ag       1.96243104       1.38764809       3.39903038      -0.00000030      -0.00000012      -0.00000037
Ag       5.88729394       4.16294493      10.19709132      -0.00000051      -0.00000079      -0.00000029
Ca      -0.00000006       0.00000012      -0.00000036       0.00000081      -0.00000126       0.00000143
S        2.23601047       1.58109753       6.79806097      -0.00097446      -0.00068994       0.00000074
S        5.61371530       3.96949536       6.79806115       0.00097834       0.00068887       0.00000212
S        4.76928906       1.58109799       5.33547159       0.00048797      -0.00068851      -0.00084738
S        3.08043637       3.96949550       8.26064997      -0.00048883       0.00069044       0.00084391
S        3.08043653       3.96949530       5.33547166      -0.00048970       0.00068876      -0.00084592
S        4.76928912       1.58109791       8.26065025       0.00048666      -0.00068747       0.00084582
