9
Lattice="5.801464513141599 5.0976873152031445e-08 3.3494772656478893 1.9338215508256162 5.469672830588829 3.3494772684475347 2.2698044268305018e-08 1.947878640051633e-08 6.69895449198164" Properties=species:S:1:pos:R:3:forces:R:3 energy=-24.505332946777344 free_energy=-24.505332946777344 stress="-4.7908833948895335e-05 2.6220300597401547e-08 3.405753545848711e-08 2.6220300597401547e-08 -4.784303018823266e-05 -6.603660729354033e-09 3.405753545848711e-08 -6.603660729354033e-09 -4.801204340765253e-05" pbc="T T T"
Ag       1.93382128       1.36741805       3.34947713      -0.00000009       0.00000024       0.00000024
Ag       5.80146471       4.10225476      10.04843193      -0.00000011       0.00000000      -0.00000016
Cd       0.00000055      -0.00000020       0.00000030      -0.00000238       0.00000190       0.00000004
Se       2.27874293       1.61131476       6.69895452      -0.00243352      -0.00171854      -0.00000100
Se       5.45654311       3.85835845       6.69895417       0.00243355       0.00172025      -0.00000172
Se       4.66209350       1.61131462       5.32292619       0.00121761      -0.00172025      -0.00210848
Se       3.07319227       3.85835801       8.07498351      -0.00121693       0.00171673       0.00210941
Se       3.07319302       3.85835804       5.32292603      -0.00121610       0.00171901      -0.00210810
Se       4.66209304       1.61131523       8.07498247       0.00121797      -0.00171940       0.00210990
