9
Lattice="4.744869876317458 8.00940041964193e-08 2.7394519527089147 1.5816233869475687 4.473506386985637 2.7394519192311386 -1.3844680810747155e-07 -1.3889833058083726e-07 5.478904145214801" Properties=species:S:1:pos:R:3:forces:R:3 energy=-42.202579498291016 free_energy=-42.202579498291016 stress="2.2184129193192348e-05 9.1601378926498e-08 5.057330554336659e-09 9.1601378926498e-08 2.2287786123342812e-05 -6.864481605362016e-08 5.057330554336659e-09 -6.864481605362016e-08 2.2385036572813988e-05" pbc="T T T"
Ag       1.58162347       1.11837633       2.73945172      -0.00000228      -0.00000326      -0.00000013
Ag       4.74486980       3.35512977       8.21835588      -0.00000062      -0.00000362      -0.00000172
Cr      -0.00000113      -0.00000326      -0.00000056      -0.00000460      -0.00000700       0.00000049
O        1.54034903       1.08919209       5.47890430      -0.00058752      -0.00041312       0.00000027
O        4.78614411       3.38431522       5.47890432       0.00058150       0.00041831      -0.00000226
O        3.97469592       1.08919169       4.07343370       0.00029346      -0.00040722      -0.00050861
O        2.35179778       3.38431542       6.88437450      -0.00028807       0.00041485       0.00050306
O        2.35179773       3.38431576       4.07343371      -0.00028685       0.00041491      -0.00050443
O        3.97469577       1.08919214       6.88437409       0.00029474      -0.00041312       0.00051302
