9
Lattice="5.309455039634293 1.8097439617595587e-07 3.065415657183622 1.7698186179377233 5.00580233814047 3.06541548264731 2.392636238359289e-07 -4.457755892701686e-08 6.130830899950515" Properties=species:S:1:pos:R:3:forces:R:3 energy=-33.81904220581055 free_energy=-33.81904220581055 stress="-6.526767538161948e-05 -9.961086178122969e-09 5.7071627423965765e-09 -9.961086178122969e-09 -6.527921505039558e-05 -1.0267648953288244e-08 5.7071627423965765e-09 -1.0267648953288244e-08 -6.527854566229507e-05" pbc="T T T"
Ag       1.76981869       1.25145012       3.06541550       0.00000020      -0.00000162      -0.00000049
Ag       5.30945538       3.75435114       9.19624651       0.00000000      -0.00000096      -0.00000034
Co      -0.00000021       0.00000018      -0.00000004       0.00000060      -0.00000003       0.00000051
S        1.76972191       1.25138212       6.13083109       0.00273731       0.00193691      -0.00000033
S        5.30955164       3.75442069       6.13083126      -0.00273788      -0.00193423      -0.00000057
S        4.42459420       1.25138200       4.59804010      -0.00136988       0.00193617       0.00237033
S        2.65468022       3.75442037       7.66362266       0.00136848      -0.00193524      -0.00237158
S        2.65467952       3.75442048       4.59803962       0.00136887      -0.00193566       0.00237185
S        4.42459429       1.25138277       7.66362193      -0.00136764       0.00193492      -0.00236970
