9
Lattice="6.018198495539097 -1.6646185023566914e-07 3.4746084293220307 2.006065956721669 5.674012196274881 3.474608518550904 -6.997648684786954e-08 5.980169551511516e-08 6.949216979846902" Properties=species:S:1:pos:R:3:forces:R:3 energy=-26.325918197631836 free_energy=-26.325918197631836 stress="-6.865776231279597e-05 1.2119268255617044e-08 3.33854721645821e-08 1.2119268255617044e-08 -6.8718109105248e-05 1.3463099080013308e-08 3.33854721645821e-08 1.3463099080013308e-08 -6.841538561275229e-05" pbc="T T T"
Ag       2.00606594       1.41850278       3.47460843      -0.00000057      -0.00000062       0.00000023
Ag       6.01819823       4.25550915      10.42382608       0.00000062       0.00000096       0.00000118
Ca      -0.00000023       0.00000001      -0.00000035       0.00000119       0.00000044       0.00000107
Se       2.35804959       1.66739269       6.94921687       0.00082378       0.00058272       0.00000104
Se       5.66621491       4.00661979       6.94921617      -0.00082500      -0.00057960      -0.00000203
Se       4.83917364       1.66739314       5.51674102      -0.00040854       0.00057836       0.00072040
Se       3.18509058       4.00661934       8.38169401       0.00040928      -0.00057936      -0.00071671
Se       3.18509111       4.00661912       5.51674026       0.00040959      -0.00057844       0.00071539
Se       4.83917374       1.66739237       8.38169331      -0.00041040       0.00057555      -0.00072053
