9
Lattice="5.643513187381102 2.2655080517159472e-07 3.258284163395881 1.8811712534167244 5.32075596646316 3.2582842026056884 9.021085248722662e-08 1.1181077224054281e-07 6.516568170542018" Properties=species:S:1:pos:R:3:forces:R:3 energy=-31.446308135986328 free_energy=-31.446308135986328 stress="6.734107591910288e-05 -1.4749073073971886e-08 9.081126961518748e-09 -1.4749073073971886e-08 6.732063775416464e-05 9.666992539791863e-09 9.081126961518748e-09 9.666992539791863e-09 6.73606846248731e-05" pbc="T T T"
Ag       1.88117080       1.33018898       3.25828430      -0.00000006       0.00000040       0.00000129
Ag       5.64351342       3.99056709       9.77485226       0.00000017       0.00000011       0.00000094
Co       0.00000073       0.00000048       0.00000264      -0.00000462      -0.00000190      -0.00001716
Se       1.89143265       1.33744545       6.51656800       0.00364539       0.00257789       0.00000239
Se       5.63325117       3.98331127       6.51656840      -0.00364403      -0.00257641       0.00000191
Se       4.69779732       1.33744554       4.89631313      -0.00182080       0.00257798       0.00315824
Se       2.82688771       3.98331035       8.13682264       0.00182132      -0.00257605      -0.00315237
Se       2.82688736       3.98331023       4.89631236       0.00182299      -0.00257854       0.00315753
Se       4.69779691       1.33744609       8.13682248      -0.00182036       0.00257644      -0.00315285
