9
Lattice="6.119029757646948 -3.130345630569628e-08 3.532823396437718 2.0396765814371354 5.76907600382803 3.532823353018726 2.254921806037438e-09 -5.158268998156081e-08 7.065646788969701" Properties=species:S:1:pos:R:3:forces:R:3 energy=-31.72348976135254 free_energy=-31.72348976135254 stress="-6.169791595311835e-05 -2.3194431264528248e-08 -3.4067386689429213e-09 -2.3194431264528248e-08 -6.167846004245803e-05 2.5548558824084466e-08 -3.4067386689429213e-09 2.5548558824084466e-08 -6.16691613686271e-05" pbc="T T T"
Ag       2.03967700       1.44226869       3.53282330       0.00000013       0.00000051       0.00000037
Ag       6.11902980       4.32680749      10.59846958      -0.00000036       0.00000010      -0.00000110
Cr      -0.00000020       0.00000008       0.00000069       0.00000076      -0.00000179      -0.00000519
Te       2.15991615       1.52729068       7.06564680       0.00296412       0.00209536       0.00000028
Te       5.99879040       4.24178509       7.06564698      -0.00296235      -0.00209580      -0.00000043
Te       5.03907122       1.52729083       5.40336553      -0.00148141       0.00209493       0.00256657
Te       3.11963511       4.24178448       8.72792756       0.00147815      -0.00209199      -0.00256143
Te       3.11963469       4.24178488       5.40336581       0.00148190      -0.00209519       0.00256568
Te       5.03907121       1.52729145       8.72792787      -0.00148090       0.00209387      -0.00256474
