9
Lattice="4.6554321604712 6.983416664445911e-08 2.687815253249414 1.5518106504435991 4.389183823523795 2.6878154880354295 6.876527824412421e-08 3.3617730590985876e-07 5.375630387393954" Properties=species:S:1:pos:R:3:forces:R:3 energy=-37.699554443359375 free_energy=-37.699554443359375 stress="-3.629983257269487e-05 1.897855739230181e-08 -2.6853092194301098e-08 1.897855739230181e-08 -3.606233804021031e-05 5.69646516623834e-08 -2.6853092194301098e-08 5.69646516623834e-08 -3.615924288169481e-05" pbc="T T T"
Ag       1.55181151       1.09729632       2.68781496       0.00000132       0.00000074      -0.00000163
Ag       4.65543197       3.29188848       8.06344510      -0.00000026       0.00000026      -0.00000286
Co       0.00000008       0.00000017       0.00000003       0.00000193      -0.00000725      -0.00000401
O        1.46933961       1.03898118       5.37563098       0.00150955       0.00106615      -0.00000043
O        4.73790197       3.35020322       5.37563096      -0.00150341      -0.00106430      -0.00000007
O        3.92076166       1.03898035       3.96030174      -0.00075540       0.00106466       0.00130564
O        2.28648179       3.35020224       6.79095876       0.00074765      -0.00105792      -0.00129354
O        2.28648063       3.35020367       3.96030261       0.00075212      -0.00106597       0.00130045
O        3.92076228       1.03898136       6.79095977      -0.00075310       0.00106293      -0.00130433
