9
Lattice="4.655725203621975 7.678509211338578e-07 2.687983837216024 1.551909098225365 4.389460273694349 2.6879838838406935 3.6215865130172646e-07 3.1318819640214e-07 5.375967047154861" Properties=species:S:1:pos:R:3:forces:R:3 energy=-37.699554443359375 free_energy=-37.699554443359375 stress="0.00019779210560955107 -4.405912434890524e-08 -4.974735290375065e-09 -4.405912434890524e-08 0.00019793417595792562 7.269065349646553e-08 -4.974735290375065e-09 7.269065349646553e-08 0.00019797819550149143" pbc="T T T"
Ag       1.55190813       1.09736616       2.68798403      -0.00000261       0.00000313       0.00000052
Ag       4.65572566       3.29209540       8.06395165      -0.00000120      -0.00000243       0.00000252
Co       0.00000022      -0.00000039       0.00000061      -0.00000121       0.00000297      -0.00000258
O        1.46958690       1.03915501       5.37596684      -0.00353068      -0.00249714      -0.00000050
O        4.73804838       3.35030571       5.37596700       0.00353014       0.00249493      -0.00000061
O        3.92093242       1.03915626       3.96068339       0.00176835      -0.00249869      -0.00306106
O        2.28670226       3.35030565       6.79125136      -0.00176626       0.00249779       0.00305957
O        2.28670263       3.35030489       3.96068313      -0.00176457       0.00249696      -0.00305969
O        3.92093252       1.03915655       6.79125157       0.00176787      -0.00249749       0.00306070
