9
Lattice="6.113123117307446 -0.5467755548002434 1.469030538279112 1.1908122568065074 5.84049681447933 1.8852675835654282 -1.2064281206524277 -0.34753727172026116 5.542278905114601" Properties=species:S:1:pos:R:3:forces:R:3 energy=-38.66962814331055 free_energy=-38.66962814331055 stress="-0.0007983216783031821 0.00030772347236052155 -8.212986722355708e-05 0.00030772347236052155 -0.0007131070015020669 -0.0004944397369399667 -8.212986722355708e-05 -0.0004944397369399667 0.0008593745296820998" pbc="T T T"
Ag       1.61809002       0.79860990       2.02484422      -0.00030950       0.01566665       0.08677529
Ag       6.89494408       2.32387631       6.57857966       0.04678501       0.02012228      -0.06782985
C        0.19393110       0.39667683      -0.99632254      -0.03040600       0.04918329      -0.00699395
S       -1.04148596       1.34979560       5.66472376      -0.08052900       0.01466599       0.01640368
S        5.04453589       4.87143148       3.87066411      -0.03699703       0.04207842      -0.08347136
S        4.20350008       2.98599205       3.97087341      -0.02890146      -0.04046839      -0.00641809
S        1.56439911       5.20699604       5.74576652       0.20875518      -0.06323300       0.06230039
S        2.34333553       3.06071348       3.12320222       0.01369113      -0.01326378      -0.08541092
S        3.56878025      -1.20936153       5.60398250      -0.09208813      -0.02475134       0.08464487
