9
Lattice="4.1944533556664965 1.5042691113095632e-07 2.4216686589247516 1.3981511998093439 3.95456873622053 2.4216687638350765 -7.814902688532479e-08 7.322864350555601e-08 4.843337453207595" Properties=species:S:1:pos:R:3:forces:R:3 energy=-41.69989013671875 free_energy=-41.69989013671875 stress="-0.00036222446942701936 8.509216087304594e-08 -5.2525837901384875e-08 8.509216087304594e-08 -0.0003621747891884297 -1.2653092085201934e-07 -5.2525837901384875e-08 -1.2653092085201934e-07 -0.0003622628573793918" pbc="T T T"
Ag       1.39815082       0.98864199       2.42166886       0.00000253       0.00000215      -0.00000011
Ag       4.19445326       2.96592676       7.26500616       0.00000030       0.00000099       0.00000003
C        0.00000031       0.00000020      -0.00000013      -0.00000086       0.00000422      -0.00000050
O        1.19016192       0.84157193       4.84333762       0.00161035       0.00113068       0.00000035
O        4.40244250       3.11299734       4.84333737      -0.00160936      -0.00113630      -0.00000506
O        3.59937246       0.84157205       3.45237926      -0.00080818       0.00113844       0.00139334
O        1.99323215       3.11299696       6.23429546       0.00080425      -0.00114033      -0.00138758
O        1.99323206       3.11299691       3.45237919       0.00080971      -0.00113587       0.00138894
O        3.59937227       0.84157190       6.23429560      -0.00080863       0.00113609      -0.00138929
