9
Lattice="5.40266047378316 8.9459146229923e-08 3.1192275925611703 1.8008869473422024 5.093677400201118 3.119227526041946 1.0644083975133584e-07 -6.204083201895032e-09 6.2384550007614585" Properties=species:S:1:pos:R:3:forces:R:3 energy=-27.97355842590332 free_energy=-27.97355842590332 stress="-7.0703070377931e-05 -5.4566986484871904e-09 -2.1929320581648426e-08 -5.4566986484871904e-09 -7.073896995279938e-05 8.426867204036625e-09 -2.1929320581648426e-08 8.426867204036625e-09 -7.074102177284658e-05" pbc="T T T"
Ag       1.80088655       1.27341916       3.11922726      -0.00000056      -0.00000059      -0.00000161
Ag       5.40266036       3.82025822       9.35768198      -0.00000046      -0.00000054      -0.00000122
Cu       0.00000031      -0.00000042      -0.00000042      -0.00000344       0.00000265       0.00000735
S        1.88331316       1.33170339       6.23845524      -0.00137419      -0.00097305      -0.00000053
S        5.32023450       3.76197467       6.23845542       0.00137556       0.00097415      -0.00000065
S        4.46100393       1.33170320       4.75022453       0.00068724      -0.00097436      -0.00119206
S        2.74254367       3.76197407       7.72668590      -0.00068653       0.00097263       0.00119114
S        2.74254347       3.76197402       4.75022462      -0.00068679       0.00097311      -0.00119218
S        4.46100430       1.33170351       7.72668605       0.00068921      -0.00097397       0.00118986
