9
Lattice="4.726077585418412 8.169790013114952e-07 2.728601825189025 1.5753600259488918 4.4557881239886346 2.7286017203059747 3.483226873029338e-07 1.1784632898711326e-07 5.457203047065595" Properties=species:S:1:pos:R:3:forces:R:3 energy=-29.88393211364746 free_energy=-29.88393211364746 stress="-0.00011033645569114015 4.868702490057331e-07 -1.0330639810263165e-07 4.868702490057331e-07 -0.00011068382445955649 1.0369722502900913e-07 -1.0330639810263165e-07 1.0369722502900913e-07 -0.0001110208104364574" pbc="T T T"
Ag       1.57535937       1.11394691       2.72860047      -0.00000218      -0.00000014      -0.00000204
Ag       4.72607908       3.34184157       8.18580355      -0.00000016      -0.00000100      -0.00000100
Cd      -0.00000190       0.00000015       0.00000147       0.00002300      -0.00000108      -0.00000779
O        1.80353562       1.27529392       5.45720339      -0.00136527      -0.00096148       0.00000369
O        4.49790334       3.18049500       5.45720375       0.00135493       0.00095399       0.00000452
O        3.82431072       1.27529101       4.29050615       0.00067009      -0.00095354      -0.00116444
O        2.47712615       3.18049960       6.62390032      -0.00067335       0.00095510       0.00117013
O        2.47712641       3.18049955       4.29050551      -0.00067464       0.00095591      -0.00116619
O        3.82431303       1.27528848       6.62390188       0.00066762      -0.00094770       0.00116301
