9
Lattice="6.118774352476899 -3.5051820067093657e-07 3.5326762544058425 2.0395912041984876 5.7688347670632 3.532676109183 -6.176872081828288e-08 -2.215380922568533e-07 7.06535261579831" Properties=species:S:1:pos:R:3:forces:R:3 energy=-31.72348976135254 free_energy=-31.72348976135254 stress="-8.62164597492665e-05 -2.4955724597930384e-08 -7.509709298858525e-09 -2.4955724597930384e-08 -8.618481660960242e-05 -8.18836909388665e-09 -7.509709298858525e-09 -8.18836909388665e-09 -8.615975093562156e-05" pbc="T T T"
Ag       2.03959146       1.44220852       3.53267674       0.00000015      -0.00000036       0.00000083
Ag       6.11877470       4.32662722      10.59802738       0.00000099       0.00000132      -0.00000145
Cr      -0.00000092       0.00000046      -0.00000019       0.00001138       0.00000005      -0.00000030
Te       2.16020796       1.52749694       7.06535229      -0.00095006      -0.00067022       0.00000047
Te       5.99815978       4.24133766       7.06535375       0.00093625       0.00066104      -0.00000140
Te       5.03866971       1.52749416       5.40347148       0.00047111      -0.00066564      -0.00081708
Te       3.11969467       4.24133786       8.72723411      -0.00047341       0.00067062       0.00081929
Te       3.11969403       4.24133760       5.40347086      -0.00047013       0.00067000      -0.00081965
Te       5.03867065       1.52749618       8.72723354       0.00047377      -0.00066678       0.00081934
