9
Lattice="5.643138101446211 7.014698540450003e-08 3.2580674084567667 1.8810460952798878 5.320401801865389 3.258067416546719 -1.077688292522859e-09 9.146100966197217e-09 6.516134818780119" Properties=species:S:1:pos:R:3:forces:R:3 energy=-31.44631004333496 free_energy=-31.44631004333496 stress="1.0562984016360133e-06 1.5933339092555343e-09 -1.9827186559240317e-09 1.5933339092555343e-09 1.029106897476595e-06 -1.1317522474740827e-09 -1.9827186559240317e-09 -1.1317522474740827e-09 1.0180056051467545e-06" pbc="T T T"
Ag       1.88104609       1.33010051       3.25806737      -0.00000027       0.00000031       0.00000002
Ag       5.64313814       3.99030130       9.77420233       0.00000022       0.00000025      -0.00000029
Co       0.00000021       0.00000002      -0.00000002      -0.00000024      -0.00000020      -0.00000005
Se       1.89137191       1.33740187       6.51613482       0.00424787       0.00300299       0.00000029
Se       5.63281219       3.98299994       6.51613482      -0.00424710      -0.00300355       0.00000042
Se       4.69745221       1.33740204       4.89604333      -0.00212336       0.00300367       0.00367752
Se       2.82673196       3.98299987       8.13622616       0.00212328      -0.00300315      -0.00367768
Se       2.82673198       3.98299982       4.89604352       0.00212334      -0.00300372       0.00367694
Se       4.69745210       1.33740209       8.13622623      -0.00212361       0.00300341      -0.00367728
