9
Lattice="6.011239547249283 -3.5887468172678775e-07 3.4705907719070703 2.0037462198311466 5.667450981993049 3.4705906984136203 1.1611017178757338e-07 -7.908435353942628e-09 6.941181342705267" Properties=species:S:1:pos:R:3:forces:R:3 energy=-29.906341552734375 free_energy=-29.906341552734375 stress="4.73341642646119e-05 -1.3398187448387944e-08 -4.294296473972281e-08 -1.3398187448387944e-08 4.733900641440414e-05 4.592542168779801e-08 -4.294296473972281e-08 4.592542168779801e-08 4.738688949146308e-05" pbc="T T T"
Ag       2.00374623       1.41686341       3.47059059       0.00000002       0.00000055       0.00000013
Ag       6.01123947       4.25058789      10.41177367       0.00000003      -0.00000080       0.00000143
Co      -0.00000027      -0.00000122       0.00000087       0.00000443       0.00001287      -0.00000560
Te       2.01008274       1.42134328       6.94118083       0.00047407       0.00033364      -0.00000092
Te       6.00490417       4.24610743       6.94117970      -0.00048096      -0.00034019      -0.00000125
Te       5.00619853       1.42134476       5.21137404      -0.00023522       0.00033456       0.00040903
Te       3.00878717       4.24610662       8.67098917       0.00023665      -0.00033470      -0.00040910
Te       3.00878714       4.24610728       5.21137280       0.00023835      -0.00033986       0.00041630
Te       5.00619851       1.42134276       8.67098969      -0.00023735       0.00033392      -0.00041006
