9
Lattice="6.046888556307039 5.3801340144305e-08 3.4911727680419182 2.015629501173575 5.701061074821473 3.491172886375405 -9.957504289792565e-08 7.451801296412561e-08 6.982345708552959" Properties=species:S:1:pos:R:3:forces:R:3 energy=-25.923511505126953 free_energy=-25.923511505126953 stress="-3.148530959151685e-05 1.7027927512458518e-08 2.025676160144485e-08 1.7027927512458518e-08 -3.144676156807691e-05 -6.116175566006632e-09 2.025676160144485e-08 -6.116175566006632e-09 -3.146421295241453e-05" pbc="T T T"
Ag       2.01562908       1.42526556       3.49117280      -0.00000111       0.00000021      -0.00000069
Ag       6.04688860       4.27579595      10.47351865       0.00000022       0.00000000      -0.00000025
Cu      -0.00000036      -0.00000058      -0.00000062       0.00000243       0.00000195       0.00000421
Te       2.16510384       1.53096040       6.98234594       0.00217154       0.00153685       0.00000129
Te       5.89741505       4.17010134       6.98234545      -0.00217519      -0.00153863       0.00000040
Te       4.96433665       1.53095991       5.36620812      -0.00108564       0.00153717       0.00188164
Te       3.09818065       4.17010176       8.59848371       0.00108816      -0.00153873      -0.00188478
Te       3.09818124       4.17010123       5.36620799       0.00108676      -0.00153622       0.00188223
Te       4.96433707       1.53095926       8.59848343      -0.00108714       0.00153747      -0.00188404
