9
Lattice="6.612369166850456 3.024349744795011e-07 3.817653044019503 2.2041232414903535 6.234201630895547 3.817653215951405 -1.6340141772691894e-07 9.503052449085319e-08 7.635306371058545" Properties=species:S:1:pos:R:3:forces:R:3 energy=-24.858057022094727 free_energy=-24.858057022094727 stress="-1.3722213225264568e-05 8.997207423533382e-09 1.0950501838635773e-08 8.997207423533382e-09 -1.373512623104034e-05 5.188674823131123e-09 1.0950501838635773e-08 5.188674823131123e-09 -1.3743951967626344e-05" pbc="T T T"
Ag       2.20412278       1.55855017       3.81765322      -0.00000058      -0.00000116      -0.00000011
Ag       6.61236930       4.67565175      11.45295959      -0.00000024       0.00000066       0.00000102
Ca       0.00000033       0.00000025       0.00000063      -0.00000128      -0.00000102      -0.00000173
Te       2.52193050       1.78327434       7.63530635       0.00123799       0.00087464       0.00000020
Te       6.29456159       4.45092748       7.63530581      -0.00123633      -0.00087425      -0.00000074
Te       5.35140424       1.78327427       6.00170887      -0.00061852       0.00087455       0.00107223
Te       3.46508800       4.45092770       9.26890337       0.00061879      -0.00087452      -0.00107223
Te       3.46508836       4.45092798       6.00170898       0.00061961      -0.00087372       0.00107276
Te       5.35140386       1.78327421       9.26890366      -0.00061948       0.00087479      -0.00107140
