9
Lattice="4.1943978724801525 1.7490953986934177e-07 2.421637275132146 1.398132760093825 3.954516257243493 2.4216373253139136 1.4496625113484205e-07 1.6396655499345837e-07 4.843274299175373" Properties=species:S:1:pos:R:3:forces:R:3 energy=-41.699886322021484 free_energy=-41.699886322021484 stress="-0.00042233942076563835 1.323672336184245e-07 1.7839315091805474e-07 1.323672336184245e-07 -0.0004226765304338187 -3.141627047398288e-08 1.7839315091805474e-07 -3.141627047398288e-08 -0.00042258709436282516" pbc="T T T"
Ag       1.39813303       0.98862944       2.42163738      -0.00000515      -0.00000377       0.00000215
Ag       4.19439856       2.96588743       7.26491191      -0.00000135      -0.00000061      -0.00000501
C        0.00000027       0.00000027      -0.00000058      -0.00000501      -0.00000020       0.00000709
O        1.19016298       0.84157260       4.84327448       0.00103955       0.00074159      -0.00000339
O        4.40236739       3.11294405       4.84327471      -0.00104560      -0.00074235       0.00000159
O        3.59931617       0.84157228       3.45234895      -0.00051896       0.00074308       0.00090192
O        1.99321426       3.11294396       6.23420033       0.00052694      -0.00073943      -0.00091432
O        1.99321399       3.11294384       3.45234881       0.00052454      -0.00074080       0.00091153
O        3.59931619       0.84157260       6.23420021      -0.00051505       0.00074256      -0.00090145
