9
Lattice="6.37322411589904 1.1195532167770747e-07 3.679582745838594 2.124408096362789 6.0087336208876945 3.679582828670053 -7.265703602975326e-08 5.007106485163358e-08 7.3591656175228435" Properties=species:S:1:pos:R:3:forces:R:3 energy=-21.987653732299805 free_energy=-21.987653732299805 stress="-2.2881213226355612e-05 -7.767002152547775e-09 7.015503733498463e-09 -7.767002152547775e-09 -2.292805402248632e-05 1.2425755535616645e-08 7.015503733498463e-09 1.2425755535616645e-08 -2.2895059373695403e-05" pbc="T T T"
Ag       2.12440791       1.50218306       3.67958275       0.00000010      -0.00000091      -0.00000016
Ag       6.37322384       4.50655088      11.03874889      -0.00000064       0.00000133       0.00000108
Cd      -0.00000032      -0.00000042      -0.00000024       0.00000137       0.00000262      -0.00000112
Te       2.39396048       1.69278471       7.35916565       0.00254488       0.00179715       0.00000042
Te       6.10367239       4.31594892       7.35916492      -0.00254654      -0.00179936      -0.00000194
Te       5.17624446       1.69278536       5.75281317      -0.00127206       0.00179842       0.00220457
Te       3.32138812       4.31594854       8.96551836       0.00127264      -0.00179917      -0.00220437
Te       3.32138796       4.31594868       5.75281303       0.00127318      -0.00179908       0.00220498
Te       5.17624374       1.69278541       8.96551828      -0.00127288       0.00179900      -0.00220340
