9
Lattice="5.300038616057858 -4.130014095242011e-07 3.05997848627173 1.7666792725305422 4.996923220438284 3.059978272837989 1.2700550297108356e-07 -1.7159536405931014e-07 6.119956752563298" Properties=species:S:1:pos:R:3:forces:R:3 energy=-35.96847152709961 free_energy=-35.96847152709961 stress="-0.00019946035172324628 8.415510421855288e-08 1.784002989779765e-08 8.415510421855288e-08 -0.0001994348131120205 1.2806289362288226e-08 1.784002989779765e-08 1.2806289362288226e-08 -0.00019948460976593196" pbc="T T T"
Ag       1.76667932       1.24923046       3.05997844       0.00000031      -0.00000022      -0.00000088
Ag       5.30003817       3.74769171       9.17993522      -0.00000042      -0.00000026      -0.00000046
Cr       0.00000026       0.00000023      -0.00000074      -0.00000216      -0.00000342       0.00000659
S        1.81340159       1.28226803       6.11995670       0.00537068       0.00379682       0.00000030
S        5.25331658       3.71465433       6.11995676      -0.00536382      -0.00379422       0.00000204
S        4.39333812       1.28226769       4.63042925      -0.00268407       0.00379559       0.00464976
S        2.67337977       3.71465519       7.60948422       0.00268541      -0.00380006      -0.00465223
S        2.67337998       3.71465579       4.63042966       0.00268197      -0.00379395       0.00464788
S        4.39333823       1.28226705       7.60948455      -0.00268804       0.00380018      -0.00465330
