9
Lattice="5.302206609077328 -1.1337237598618899e-07 3.061230730031836 1.7674022037069521 4.99896815700823 3.061230543715803 -4.90059832534368e-09 -2.3165487876797444e-07 6.122461468551741" Properties=species:S:1:pos:R:3:forces:R:3 energy=-35.968482971191406 free_energy=-35.968482971191406 stress="9.332337504019961e-05 -8.712896182316854e-09 -8.19837620014141e-09 -8.712896182316854e-09 9.339844109490514e-05 1.891973155920823e-08 -8.19837620014141e-09 1.891973155920823e-08 9.336385119240731e-05" pbc="T T T"
Ag       1.76740210       1.24974168       3.06123053      -0.00000115      -0.00000170      -0.00000150
Ag       5.30220659       3.74922531       9.18369144      -0.00000012      -0.00000186      -0.00000289
Cr      -0.00000028      -0.00000048      -0.00000085       0.00000213       0.00000427       0.00000784
S        1.81414975       1.28279772       6.12246134      -0.00187942      -0.00132784       0.00000153
S        5.25545962       3.71617028       6.12246107       0.00187424       0.00132513       0.00000046
S        4.39513142       1.28279765       4.63233157       0.00094250      -0.00133175      -0.00162914
S        2.67447713       3.71617098       7.61259252      -0.00093387       0.00132358       0.00162283
S        2.67447675       3.71617073       4.63233084      -0.00094067       0.00133169      -0.00162479
S        4.39513226       1.28279728       7.61259248       0.00093625      -0.00132167       0.00162545
