9
Lattice="5.5069680027414725 -1.2999191847032064e-07 3.179449837525677 1.8356559218267154 5.192018779317249 3.179449762232517 7.174590571090003e-08 -4.1482907052857425e-08 6.3588995507836525" Properties=species:S:1:pos:R:3:forces:R:3 energy=-33.9413948059082 free_energy=-33.9413948059082 stress="0.00019075059390161186 -2.0420618085381648e-08 -2.984891978030646e-08 -2.0420618085381648e-08 0.00019088784756604582 1.0611402423421623e-08 -2.984891978030646e-08 1.0611402423421623e-08 0.00019075693853665143" pbc="T T T"
Ag       1.83565577       1.29800499       3.17945002      -0.00000017       0.00000054       0.00000061
Ag       5.50696820       3.89401411       9.53834905       0.00000005       0.00000052       0.00000008
Cr      -0.00000034       0.00000029       0.00000008       0.00000266      -0.00000205       0.00000036
Se       2.02525738       1.43207387       6.35889986      -0.00095280      -0.00067136       0.00000143
Se       5.31736689       3.75994469       6.35890008       0.00095116       0.00067163       0.00000192
Se       4.49433930       1.43207326       4.93337454       0.00047704      -0.00067218      -0.00082765
Se       2.84828516       3.75994528       7.78442438      -0.00047605       0.00067466       0.00082348
Se       2.84828435       3.75994474       4.93337398      -0.00047801       0.00067134      -0.00082570
Se       4.49433925       1.43207318       7.78442459       0.00047610      -0.00067310       0.00082545
