9
Lattice="6.010979473367966 -2.7030507206043454e-07 3.4704399140025304 2.00365990164543 5.667205902943548 3.4704393389000527 9.246084615556276e-07 -5.055688360034244e-08 6.940878226536251" Properties=species:S:1:pos:R:3:forces:R:3 energy=-29.906341552734375 free_energy=-29.906341552734375 stress="-8.100359991658479e-06 1.8625643249947643e-08 -2.1189249466146975e-08 1.8625643249947643e-08 -8.11975678516319e-06 -1.684090911169278e-08 -2.1189249466146975e-08 -1.684090911169278e-08 -8.069791874731891e-06" pbc="T T T"
Ag       2.00366018       1.41680142       3.47043933      -0.00000047      -0.00000193      -0.00000128
Ag       6.01097980       4.25040439      10.41131739      -0.00000024      -0.00000002      -0.00000130
Co      -0.00000054      -0.00000208      -0.00000202       0.00000234       0.00000950       0.00000383
Te       2.00997777       1.42126732       6.94088054       0.00118703       0.00083717       0.00000228
Te       6.00466164       4.24593732       6.94088148      -0.00118956      -0.00084327       0.00000190
Te       5.00599126       1.42126644       5.21112967      -0.00059703       0.00084089       0.00102646
Te       3.00865015       4.24593816       8.67062485       0.00059465      -0.00084183      -0.00103338
Te       3.00864830       4.24594005       5.21113177       0.00059640      -0.00084206       0.00103136
Te       5.00599279       1.42126920       8.67062681      -0.00059311       0.00084149      -0.00102991
