9
Lattice="5.30944161937038 -1.0713134886850405e-06 3.0654078951485935 1.7698133166974885 5.005785853142908 3.065407109458965 -4.3830749048500557e-07 -1.2721995770585038e-06 6.130816549467943" Properties=species:S:1:pos:R:3:forces:R:3 energy=-33.81904220581055 free_energy=-33.81904220581055 stress="-8.054490899667144e-05 5.861706142695766e-08 3.391017600051782e-08 5.861706142695766e-08 -8.035757491597906e-05 4.671758802032855e-08 3.391017600051782e-08 4.671758802032855e-08 -8.065264410106465e-05" pbc="T T T"
Ag       1.76981316       1.25144521       3.06540801      -0.00000187      -0.00000141       0.00000042
Ag       5.30943943       3.75433782       9.19622342      -0.00000294       0.00000051      -0.00000065
Co      -0.00000101       0.00000028       0.00000015       0.00000647      -0.00000168       0.00000115
S        1.76969022       1.25135746       6.13081634       0.00329420       0.00233003       0.00000220
S        5.30956360       3.75442615       6.13081571      -0.00329289      -0.00232595       0.00000038
S        4.42459709       1.25135822       4.59800446      -0.00164744       0.00232974       0.00285211
S        2.65465894       3.75442644       7.66362752       0.00164603      -0.00233170      -0.00285289
S        2.65465878       3.75442612       4.59800295       0.00164501      -0.00232902       0.00285000
S        4.42459760       1.25135713       7.66362719      -0.00164673       0.00232947      -0.00285244
