9
Lattice="5.4278074224670885 2.0092154317006194e-07 3.133745691889314 1.8092692420466725 5.117386245898767 3.1337458446672777 -3.552641845362897e-08 1.619930590661342e-07 6.267491445312252" Properties=species:S:1:pos:R:3:forces:R:3 energy=-35.54045867919922 free_energy=-35.54045867919922 stress="-1.7703918274492025e-05 8.562872011452782e-08 1.4748017029830862e-08 8.562872011452782e-08 -1.7778556866687723e-05 -8.641247717378064e-08 1.4748017029830862e-08 -8.641247717378064e-08 -1.7944197679753415e-05" pbc="T T T"
Ag       1.80926922       1.27934674       3.13374594      -0.00000029       0.00000085       0.00000029
Ag       5.42780736       3.83804018       9.40123753      -0.00000014       0.00000025       0.00000018
Fe       0.00000031       0.00000024      -0.00000078      -0.00000902      -0.00000893       0.00002106
S        1.78536089       1.26244125       6.26749098      -0.00382400      -0.00270379       0.00000079
S        5.45171495       3.85494502       6.26749120       0.00383461       0.00271273       0.00000019
S        4.53512727       1.26244111       4.67991330       0.00191396      -0.00270700      -0.00331217
S        2.70194926       3.85494555       7.85506989      -0.00190768       0.00269622       0.00330251
S        2.70195003       3.85494519       4.67991347      -0.00191525       0.00270891      -0.00331712
S        4.53512720       1.26244132       7.85506998       0.00190771      -0.00269914       0.00330442
