9
Lattice="6.065630196199885 -1.0049859420940805e-07 3.501993344987079 2.021876602502661 5.718731548217838 3.5019934052849937 1.6045465089833185e-07 1.8730803506682076e-07 7.00398641205923" Properties=species:S:1:pos:R:3:forces:R:3 energy=-31.46607208251953 free_energy=-31.46607208251953 stress="-2.1799907699460164e-05 -4.952734755647725e-08 -2.068506965713368e-08 -4.952734755647725e-08 -2.176980888179969e-05 -1.7767293414294727e-08 -2.068506965713368e-08 -1.7767293414294727e-08 -2.1705231119995005e-05" pbc="T T T"
Ag       2.02187700       1.42968275       3.50199361       0.00000061       0.00000025       0.00000016
Ag       6.06562995       4.28904872      10.50598033      -0.00000045      -0.00000014       0.00000051
Fe       0.00000063       0.00000011       0.00000083      -0.00000717       0.00000701      -0.00001191
Te       1.96014563       1.38603211       7.00398626       0.00034072       0.00023989      -0.00000131
Te       6.12736164       4.33269931       7.00398601      -0.00033771      -0.00023995      -0.00000102
Te       5.08555745       1.38603324       5.19952925      -0.00016623       0.00023669       0.00028903
Te       3.00194986       4.33269879       8.80844375       0.00016664      -0.00023489      -0.00028680
Te       3.00194956       4.33269864       5.19952903       0.00016872      -0.00024019       0.00029367
Te       5.08555615       1.38603281       8.80844355      -0.00016517       0.00023138      -0.00028227
