9
Lattice="6.066270711208506 1.8026050330239171e-07 3.502363083850876 2.022090379027593 5.719334545994472 3.50236313233645 3.1483449139760104e-08 8.164460110508342e-08 7.004726113170842" Properties=species:S:1:pos:R:3:forces:R:3 energy=-31.466053009033203 free_energy=-31.466053009033203 stress="-0.0001565421698614955 8.423441499871842e-08 -7.210035590787811e-08 8.423441499871842e-08 -0.00015661648649256676 1.0923473325874511e-07 -7.210035590787811e-08 1.0923473325874511e-07 -0.00015668271225877106" pbc="T T T"
Ag       2.02208996       1.42983342       3.50236289      -0.00000021      -0.00000019      -0.00000015
Ag       6.06627115       4.28950130      10.50708930       0.00000068      -0.00000033       0.00000024
Fe       0.00000035      -0.00000043       0.00000017      -0.00000348       0.00000395      -0.00000572
Te       1.95956612       1.38562316       7.00472607       0.00708224       0.00500872      -0.00000014
Te       6.12879512       4.33371189       7.00472624      -0.00708131      -0.00500736      -0.00000005
Te       5.08648763       1.38562245       5.19939669      -0.00354240       0.00500965       0.00613551
Te       3.00187327       4.33371225       8.81005516       0.00354182      -0.00500980      -0.00613581
Te       3.00187288       4.33371329       5.19939670       0.00354995      -0.00501931       0.00614807
Te       5.08648800       1.38562189       8.81005592      -0.00354726       0.00501460      -0.00614196
