9
Lattice="4.59316854321394 1.0433967649301515e-07 2.651866948339029 1.5310562167231747 4.330480674304725 2.6518670569741523 -9.718303972441061e-08 6.433153058669953e-08 5.303734065003999" Properties=species:S:1:pos:R:3:forces:R:3 energy=-39.203941345214844 free_energy=-39.203941345214844 stress="0.0002470410836394876 -8.115866023672424e-08 -3.800307268875258e-08 -8.115866023672424e-08 0.0002470912295393646 -6.524095930160456e-09 -3.800307268875258e-08 -6.524095930160456e-09 0.00024714667233638465" pbc="T T T"
Ag       1.53105613       1.08262021       2.65186696       0.00000024       0.00000022       0.00000011
Ag       4.59316843       3.24786062       7.95560102      -0.00000016       0.00000099      -0.00000086
Fe       0.00000021       0.00000033      -0.00000037      -0.00000181      -0.00000235       0.00000731
O        1.49924145       1.06012368       5.30373426      -0.00673552      -0.00476231       0.00000035
O        4.62498369       3.27035698       5.30373461       0.00673333       0.00476223      -0.00000024
O        3.84354744       1.06012361       3.95024809       0.00337186      -0.00476529      -0.00583802
O        2.28067651       3.27035725       6.65721979      -0.00336818       0.00476311       0.00583410
O        2.28067701       3.27035680       3.95024803      -0.00336984       0.00476725      -0.00583795
O        3.84354790       1.06012380       6.65721986       0.00337004      -0.00476347       0.00583488
