9
Lattice="5.7404779606911935 -5.89168827537515e-08 3.314266069369271 1.913492479530619 5.412174512796526 3.3142662745925806 -3.441287180662436e-07 8.010469080972476e-09 6.628532734786869" Properties=species:S:1:pos:R:3:forces:R:3 energy=-33.841453552246094 free_energy=-33.841453552246094 stress="0.00013838877202942967 8.87228424062414e-08 -9.80922223448033e-08 8.87228424062414e-08 0.000138293209602125 1.548276173934937e-07 -9.80922223448033e-08 1.548276173934937e-07 0.00013824459165334702" pbc="T T T"
Ag       1.91349262       1.35304356       3.31426646      -0.00000005       0.00000019       0.00000025
Ag       5.74047759       4.05913082       9.94279870       0.00000028       0.00000007       0.00000056
Fe      -0.00000013       0.00000024       0.00000179      -0.00000589      -0.00001461      -0.00005558
Se       1.86248791       1.31697798       6.62853256      -0.00087354      -0.00061765      -0.00000055
Se       5.79148163       4.09519629       6.62853243       0.00088406       0.00062546       0.00000027
Se       4.80923390       1.31697767       4.92722811       0.00043006      -0.00060898      -0.00074494
Se       2.84473692       4.09519561       8.32983586      -0.00044793       0.00063375       0.00077632
Se       2.84473620       4.09519762       4.92722748      -0.00042571       0.00060287      -0.00073740
Se       4.80923375       1.31697809       8.32983682       0.00043890      -0.00062066       0.00076106
