9
Lattice="5.426493874301756 3.031379738952757e-07 3.1329879728593646 1.8088316070465664 5.116147835940631 3.1329879212242493 1.1862233679284441e-07 2.0638860974848024e-08 6.265975740258718" Properties=species:S:1:pos:R:3:forces:R:3 energy=-35.54043197631836 free_energy=-35.54043197631836 stress="-0.0003941632458008826 1.7572329369386352e-08 2.4968379364054272e-08 1.7572329369386352e-08 -0.0003941961913369596 -9.560326752477977e-09 2.4968379364054272e-08 -9.560326752477977e-09 -0.0003941657778341323" pbc="T T T"
Ag       1.80883121       1.27903705       3.13298796      -0.00000032      -0.00000013       0.00000061
Ag       5.42649426       3.83711072       9.39896348      -0.00000045      -0.00000040      -0.00000038
Fe       0.00000002      -0.00000015      -0.00000016       0.00000316      -0.00000018      -0.00000376
S        1.78489385       1.26211058       6.26597597       0.00553262       0.00391173       0.00000059
S        5.45043143       3.85403798       6.26597604      -0.00553405      -0.00391316      -0.00000029
S        4.53404745       1.26211062       4.67875161      -0.00276819       0.00391531       0.00479430
S        2.70127860       3.85403751       7.85320018       0.00276652      -0.00391209      -0.00479043
S        2.70127861       3.85403735       4.67875116       0.00276726      -0.00391376       0.00479060
S        4.53404725       1.26211096       7.85320026      -0.00276649       0.00391263      -0.00479126
