9
Lattice="4.574294060576212 1.0891722923615015e-06 2.6409702216190003 1.5247654499697947 4.31268704389031 2.6409706784830838 3.540120532887981e-07 8.098659295384005e-07 5.281939830071069" Properties=species:S:1:pos:R:3:forces:R:3 energy=-37.83423614501953 free_energy=-37.83423614501953 stress="0.0003453556855674833 -1.6974379946077534e-07 -1.6195215835068666e-07 -1.6974379946077534e-07 0.0003452737000770867 -9.411451884488997e-08 -1.6195215835068666e-07 -9.411451884488997e-08 0.0003456267004366964" pbc="T T T"
Ag       1.52476615       1.07817272       2.64097114       0.00000406       0.00000356       0.00000152
Ag       4.57429511       3.23451579       7.92291376       0.00000104      -0.00000345       0.00001168
Ge      -0.00000016       0.00000088       0.00000174       0.00000931      -0.00001074      -0.00003506
O        1.57048736       1.11050429       5.28194065       0.00010693       0.00007910      -0.00000423
O        4.52857254       3.20218749       5.28193999      -0.00011742      -0.00007927      -0.00000257
O        3.78904962       1.11050575       4.00105160      -0.00005955       0.00008619       0.00009966
O        2.31000858       3.20218022       6.56282680       0.00004172      -0.00006592      -0.00007844
O        2.31001076       3.20218442       4.00105172       0.00006044      -0.00007933       0.00009716
O        3.78904991       1.11050559       6.56282620      -0.00004637       0.00007045      -0.00008929
