9
Lattice="5.832923330458724 1.1531714226073183e-08 3.3676397557359206 1.944307806562346 5.499332898165112 3.3676397230510604 6.255816581050358e-08 4.204668119272985e-09 6.735279403117963" Properties=species:S:1:pos:R:3:forces:R:3 energy=-27.90282440185547 free_energy=-27.90282440185547 stress="9.677773778093979e-05 -1.1878673156218156e-08 -3.6779852496948706e-09 -1.1878673156218156e-08 9.677539492258802e-05 4.961129285163679e-09 -3.6779852496948706e-09 4.961129285163679e-09 9.67940577538684e-05" pbc="T T T"
Ag       1.94430777       1.37483311       3.36763974       0.00000035       0.00000010      -0.00000003
Ag       5.83292342       4.12449980      10.10291938      -0.00000003       0.00000023       0.00000010
Ge       0.00000004       0.00000019      -0.00000020      -0.00000034       0.00000029      -0.00000243
Se       2.02193781       1.42972543       6.73527966       0.00107285       0.00075798       0.00000061
Se       5.75529367       4.06960715       6.73527896      -0.00107223      -0.00075912      -0.00000081
Se       4.82195469       1.42972567       5.11868892      -0.00053500       0.00075920       0.00092916
Se       2.95527632       4.06960729       8.35186995       0.00053525      -0.00075655      -0.00092807
Se       2.95527649       4.06960746       5.11868925       0.00053610      -0.00075842       0.00092962
Se       4.82195449       1.42972554       8.35186986      -0.00053704       0.00075637      -0.00092834
