9
Lattice="6.2408838460175975 -3.168371730707672e-08 3.60317569206502 2.080294593033658 5.883961415909237 3.6031756789601306 -4.2118359363700905e-08 -4.583239951086847e-08 7.206351457081233" Properties=species:S:1:pos:R:3:forces:R:3 energy=-26.039220809936523 free_energy=-26.039220809936523 stress="-0.00016062815848272294 1.2659048032048759e-08 1.632579049726246e-08 1.2659048032048759e-08 -0.00016061963106039912 5.875155473233917e-09 1.632579049726246e-08 5.875155473233917e-09 -0.00016063523071352392" pbc="T T T"
Ag       2.08029446       1.47099038       3.60317560       0.00000017       0.00000021      -0.00000046
Ag       6.24088379       4.41297106      10.80952789      -0.00000025       0.00000014       0.00000176
Ge      -0.00000101      -0.00000014       0.00000009       0.00000167       0.00000041       0.00000066
Te       2.28834590       1.61810447       7.20635140       0.00629511       0.00445075      -0.00000082
Te       6.03283359       4.26585746       7.20635042      -0.00629708      -0.00445203      -0.00000230
Te       5.09671167       1.61810418       5.58494056      -0.00314693       0.00445240       0.00545272
Te       3.22446697       4.26585675       8.82776225       0.00314783      -0.00445230      -0.00545186
Te       3.22446710       4.26585712       5.58494049       0.00314747      -0.00445163       0.00545226
Te       5.09671101       1.61810411       8.82776262      -0.00314801       0.00445212      -0.00545202
