9
Lattice="4.572855707747039 8.406165203553897e-08 2.640139304804628 1.5242852615882818 4.3113295115397845 2.640139397610487 -8.544021770708008e-08 5.3248100374666866e-08 5.280278757596033" Properties=species:S:1:pos:R:3:forces:R:3 energy=-37.83425521850586 free_energy=-37.83425521850586 stress="1.40499787448789e-05 -1.9448792798471004e-08 -2.5754056665050484e-09 -1.9448792798471004e-08 1.3950647371530067e-05 -7.064119955657588e-08 -2.5754056665050484e-09 -7.064119955657588e-08 1.4160224054649007e-05" pbc="T T T"
Ag       1.52428551       1.07783208       2.64013886       0.00000067      -0.00000101      -0.00000083
Ag       4.57285544       3.23349746       7.92041828      -0.00000097       0.00000079       0.00000117
Ge      -0.00000020      -0.00000000       0.00000065       0.00000224      -0.00000174      -0.00000716
O        1.57045967       1.11048281       5.28027909      -0.00217998      -0.00154084       0.00000020
O        4.52668096       3.20084667       5.28027859       0.00217974       0.00154215      -0.00000078
O        3.78762584       1.11048309       4.00019756       0.00108850      -0.00154084      -0.00188696
O        2.30951581       3.20084646       6.56035952      -0.00109094       0.00154537       0.00189078
O        2.30951578       3.20084668       4.00019758      -0.00108939       0.00154102      -0.00188756
O        3.78762476       1.11048281       6.56035940       0.00109017      -0.00154567       0.00189149
