9
Lattice="6.242973306949331 2.5535057966888114e-08 3.6043820862141835 2.080991127307233 5.885931530718039 3.6043820846273738 -1.0115457321460946e-07 -7.347046769590858e-08 7.208764347633109" Properties=species:S:1:pos:R:3:forces:R:3 energy=-26.03926658630371 free_energy=-26.03926658630371 stress="3.49953661498148e-05 1.1153028722787894e-08 1.9117539551416485e-08 1.1153028722787894e-08 3.499619197100401e-05 5.9012070785513515e-09 1.9117539551416485e-08 5.9012070785513515e-09 3.49987531080842e-05" pbc="T T T"
Ag       2.08099112       1.47148270       3.60438196      -0.00000023      -0.00000025      -0.00000029
Ag       6.24297315       4.41444863      10.81314699       0.00000005      -0.00000010       0.00000068
Ge       0.00000027      -0.00000015      -0.00000014      -0.00000023       0.00000103      -0.00000058
Te       2.29060396       1.61970197       7.20876412      -0.00196351      -0.00138785      -0.00000078
Te       6.03335967       4.26622965       7.20876355       0.00196357       0.00138907      -0.00000072
Te       5.09767146       1.61970215       5.58810399       0.00098288      -0.00138900      -0.00170001
Te       3.22629295       4.26622956       8.82942548      -0.00098207       0.00138701       0.00170155
Te       3.22629363       4.26623006       5.58810355      -0.00098164       0.00138900      -0.00169989
Te       5.09767114       1.61970140       8.82942454       0.00098117      -0.00138893       0.00170007
