9
Lattice="5.815358312688257 -1.863108513217744e-07 3.357498683193342 1.9384527483688734 5.4827719939086785 3.3574984179673004 1.6953317014801037e-07 -2.049562042927543e-07 6.714997072746617" Properties=species:S:1:pos:R:3:forces:R:3 energy=-24.00897216796875 free_energy=-24.00897216796875 stress="-8.340906060766429e-05 3.294180928037349e-08 -1.2033636309638496e-08 3.294180928037349e-08 -8.339808118762448e-05 2.099093876495317e-08 -1.2033636309638496e-08 2.099093876495317e-08 -8.340331260114908e-05" pbc="T T T"
Ag       1.93845272       1.37069267       3.35749852      -0.00000062       0.00000026      -0.00000027
Ag       5.81535863       4.11207858      10.07249556      -0.00000006       0.00000012      -0.00000037
Hg      -0.00000032       0.00000007      -0.00000070       0.00000024       0.00000010       0.00000549
Se       2.28764646       1.61760932       6.71499646      -0.00767812      -0.00543143      -0.00000164
Se       5.46616518       3.86516144       6.71499652       0.00768073       0.00542937      -0.00000133
Se       4.67153550       1.61760970       5.33865811       0.00384170      -0.00543346      -0.00665249
Se       3.08227549       3.86516235       8.09133645      -0.00383935       0.00542815       0.00664955
Se       3.08227530       3.86516263       5.33865829      -0.00384348       0.00543480      -0.00665152
Se       4.67153597       1.61760959       8.09133747       0.00383898      -0.00542794       0.00665256
