9
Lattice="5.6373892236510255 3.8375352219555386e-07 3.2547486454025822 1.8791300738582206 5.314982171560796 3.2547486959180083 2.3408751357735774e-08 7.842099272817392e-08 6.5094972502599555" Properties=species:S:1:pos:R:3:forces:R:3 energy=-37.77298355102539 free_energy=-37.77298355102539 stress="0.00010450163972564042 -8.880152790879947e-08 -3.203946263852231e-08 -8.880152790879947e-08 0.00010439999459777027 -9.713049919923833e-09 -3.203946263852231e-08 -9.713049919923833e-09 0.00010438082972541451" pbc="T T T"
Ag       1.87913003       1.32874554       3.25474867      -0.00000054      -0.00000019       0.00000007
Ag       5.63738908       3.98623691       9.76424551       0.00000037       0.00000022      -0.00000015
Hf      -0.00000024      -0.00000007      -0.00000026      -0.00000022      -0.00000027       0.00000147
S        2.03888295       1.44170777       6.50949736      -0.00186032      -0.00131775      -0.00000184
S        5.47763687       3.87327511       6.50949789       0.00186010       0.00131609       0.00000039
S        4.61794747       1.44170843       5.02047292       0.00092854      -0.00131442      -0.00161180
S        2.89857222       3.87327408       7.99852145      -0.00093094       0.00131850       0.00161293
S        2.89857172       3.87327426       5.02047316      -0.00092718       0.00131431      -0.00161289
S        4.61794716       1.44170855       7.99852169       0.00093023      -0.00131656       0.00161164
