9
Lattice="5.77578097192666 3.610879544375416e-08 3.334648919242325 1.9252600887957487 5.445459235758769 3.33464938555115 -3.465608206612472e-07 3.2605386023006914e-07 6.669298438745638" Properties=species:S:1:pos:R:3:forces:R:3 energy=-35.30877685546875 free_energy=-35.30877685546875 stress="8.151793736033142e-05 -5.253049906173146e-08 3.6152094651242805e-08 -5.253049906173146e-08 8.168306521838531e-05 5.966136740198635e-08 3.6152094651242805e-08 5.966136740198635e-08 8.157350384863093e-05" pbc="T T T"
Ag       1.92526000       1.36136596       3.33464874       0.00000010      -0.00000074      -0.00000035
Ag       5.77578023       4.08409369      10.00394826       0.00000011      -0.00000086       0.00000006
Hf       0.00000073      -0.00000152      -0.00000047      -0.00000524       0.00000470       0.00000039
Se       2.14785508       1.51876420       6.66929804      -0.00418547      -0.00296180       0.00000057
Se       5.55318670       3.92669619       6.66929790       0.00419362       0.00296130      -0.00000268
Se       4.70185294       1.51876418       5.19474741       0.00209606      -0.00296462      -0.00362797
Se       2.99918674       3.92669629       8.14385108      -0.00209950       0.00296497       0.00363803
Se       2.99918774       3.92669577       5.19474616      -0.00209457       0.00296110      -0.00363293
Se       4.70185269       1.51876365       8.14384984       0.00209491      -0.00296413       0.00362493
