9
Lattice="4.673093007541917 -1.38768780053686e-07 2.69801123965158 1.5576976523274875 4.4058336824156825 2.6980110422335914 3.2662680774170066e-07 -1.0826582295800747e-08 5.396021913568972" Properties=species:S:1:pos:R:3:forces:R:3 energy=-48.08879852294922 free_energy=-48.08879852294922 stress="-0.00010494882008060813 4.853220048062212e-08 6.2717262494516035e-09 4.853220048062212e-08 -0.00010491154534975067 -3.809371307283982e-08 6.2717262494516035e-09 -3.809371307283982e-08 -0.00010495033347979188" pbc="T T T"
Ag       1.55769745       1.10145838       2.69801147      -0.00000153      -0.00000111       0.00000035
Ag       4.67309235       3.30437423       8.09403542      -0.00000316      -0.00000385       0.00000544
Hf       0.00000050      -0.00000190      -0.00000069      -0.00000021       0.00000556       0.00000080
O        1.70140243       1.20307271       5.39602239       0.00233549       0.00165004      -0.00000181
O        4.52938913       3.20276049       5.39602170      -0.00233132      -0.00164673      -0.00000152
O        3.82239250       1.20307398       4.17146822      -0.00116771       0.00164980       0.00201905
O        2.40839829       3.20276130       6.62057610       0.00116637      -0.00164911      -0.00202203
O        2.40839893       3.20276143       4.17146669       0.00116867      -0.00165209       0.00202006
O        3.82239213       1.20307338       6.62057490      -0.00116694       0.00164810      -0.00202107
