9
Lattice="5.738361171516254 -7.288191047211587e-08 3.3130441689760994 1.9127869494965288 5.410179129584483 3.3130442364600943 3.0062188468902996e-08 1.0390778312377802e-07 6.626088285882942" Properties=species:S:1:pos:R:3:forces:R:3 energy=-22.596107482910156 free_energy=-22.596107482910156 stress="-5.349687853595242e-05 1.5345788639820057e-08 -2.4572052836902003e-08 1.5345788639820057e-08 -5.3517400374403223e-05 -2.1724630983044335e-08 -2.4572052836902003e-08 -2.1724630983044335e-08 -5.3468036639969796e-05" pbc="T T T"
Ag       1.91278674       1.35254491       3.31304414      -0.00000004       0.00000011      -0.00000018
Ag       5.73836113       4.05763430       9.93913244      -0.00000003      -0.00000010      -0.00000077
Hg      -0.00000053       0.00000023      -0.00000051       0.00000227       0.00000105       0.00000450
S        2.17587972       1.53857832       6.62608734       0.00154673       0.00108741      -0.00000734
S        5.47527013       3.87159915       6.62608754      -0.00154151      -0.00109927      -0.00000439
S        4.65042132       1.53857824       5.19741082      -0.00077286       0.00108854       0.00133665
S        3.00072631       3.87160087       8.05476622       0.00077163      -0.00108984      -0.00133932
S        3.00072609       3.87160103       5.19741175       0.00076724      -0.00108615       0.00134462
S        4.65042168       1.53857959       8.05476699      -0.00077342       0.00109814      -0.00133373
