9
Lattice="4.6973514664197 -1.0390182314753057e-08 2.712017088294792 1.5657838024413249 4.428705397622421 2.712017105446658 1.2067943502384937e-08 2.9539966432607017e-08 5.424034155687279" Properties=species:S:1:pos:R:3:forces:R:3 energy=-27.990171432495117 free_energy=-27.990171432495117 stress="0.0005836485070176423 -6.602382995879452e-08 -1.8909982912873602e-08 -6.602382995879452e-08 0.0005836456548422575 1.0368611524924631e-09 -1.8909982912873602e-08 1.0368611524924631e-09 0.0005836146883666515" pbc="T T T"
Ag       1.56578379       1.10717622       2.71201708       0.00000054      -0.00000051       0.00000042
Ag       4.69735134       3.32152901       8.13605129       0.00000028       0.00000003       0.00000026
Hg       0.00000031       0.00000037       0.00000073      -0.00000663      -0.00000739      -0.00001189
O        1.72541302       1.22005130       5.42403400      -0.00790432      -0.00558883       0.00000101
O        4.53772220       3.20865408       5.42403392       0.00790972       0.00559404       0.00000100
O        3.83464479       1.22005141       4.20626871       0.00395374      -0.00559044      -0.00684553
O        2.42849054       3.20865381       6.64179934      -0.00395373       0.00559300       0.00685042
O        2.42849050       3.20865389       4.20626885      -0.00395401       0.00559235      -0.00684628
O        3.83464466       1.22005152       6.64179944       0.00395435      -0.00559211       0.00685069
