9
Lattice="6.357594673845411 -1.3467802838515422e-08 3.6705589814614665 2.1191981778802798 5.9939977601597905 3.670559040415833 -1.100346296450857e-08 6.442342302580439e-08 7.34111798198147" Properties=species:S:1:pos:R:3:forces:R:3 energy=-21.283985137939453 free_energy=-21.283985137939453 stress="-1.0617957741487771e-05 6.592425716434036e-09 -8.174139587424634e-09 6.592425716434036e-09 -1.062563114828663e-05 -6.977490585313717e-09 -8.174139587424634e-09 -6.977490585313717e-09 -1.0607064723444637e-05" pbc="T T T"
Ag       2.11919816       1.49849917       3.67055918      -0.00000034      -0.00000082       0.00000063
Ag       6.35759487       4.49549841      11.01167676       0.00000059       0.00000017      -0.00000025
Hg       0.00000019       0.00000016       0.00000004      -0.00000074       0.00000024      -0.00000123
Te       2.38881323       1.68914610       7.34111800      -0.00123230      -0.00087054      -0.00000017
Te       6.08797953       4.30485168       7.34111832       0.00123285       0.00087243       0.00000057
Te       5.16318769       1.68914581       5.73933220       0.00061523      -0.00087227      -0.00106731
Te       3.31360472       4.30485197       8.94290374      -0.00061670       0.00087188       0.00106625
Te       3.31360453       4.30485192       5.73933183      -0.00061630       0.00087132      -0.00106619
Te       5.16318845       1.68914599       8.94290399       0.00061755      -0.00087251       0.00106771
