9
Lattice="5.81540252196075 3.4563305365918926e-08 3.357523867476783 1.9384675257868003 5.4828139859732055 3.357523891933399 -2.4510355557433084e-08 1.2621770996550457e-08 6.7150477774066895" Properties=species:S:1:pos:R:3:forces:R:3 energy=-26.801841735839844 free_energy=-26.801841735839844 stress="3.077816245422582e-06 2.6878280934283794e-08 8.687327301970527e-09 2.6878280934283794e-08 3.093062332482077e-06 -4.261776709313381e-09 8.687327301970527e-09 -4.261776709313381e-09 3.1602273793396307e-06" pbc="T T T"
Ag       1.93846762       1.37070334       3.35752387       0.00000015       0.00000004      -0.00000023
Ag       5.81540247       4.11211012      10.07257163      -0.00000042      -0.00000060      -0.00000030
In       0.00000008       0.00000012      -0.00000014       0.00000009       0.00000248       0.00000134
Se       2.26841468       1.60401163       6.71504787      -0.00297875      -0.00210521       0.00000109
Se       5.48545579       3.87880291       6.71504786       0.00297958       0.00210719       0.00000130
Se       4.68119544       1.60401153       5.32202852       0.00148986      -0.00210703      -0.00257871
Se       3.07267454       3.87880343       8.10806711      -0.00148843       0.00210486       0.00257745
Se       3.07267443       3.87880245       5.32202861      -0.00149041       0.00210556      -0.00257922
Se       4.68119507       1.60401063       8.10806684       0.00148832      -0.00210727       0.00257723
