9
Lattice="6.41024357912726 6.680207842399846e-10 3.700955794827538 2.1367478315516975 6.043635576268808 3.7009558446884285 -2.9019782622425453e-08 4.054676554061078e-08 7.401911639918852" Properties=species:S:1:pos:R:3:forces:R:3 energy=-24.37546730041504 free_energy=-24.37546730041504 stress="-9.350953041575849e-05 1.175399777508801e-08 3.828688477369724e-09 1.175399777508801e-08 -9.351938933832571e-05 -5.88909765397716e-09 3.828688477369724e-09 -5.88909765397716e-09 -9.350677282782272e-05" pbc="T T T"
Ag       2.13674776       1.51090857       3.70095591      -0.00000041      -0.00000127       0.00000007
Ag       6.41024354       4.53272687      11.10286731      -0.00000004       0.00000059      -0.00000061
In      -0.00000008       0.00000016       0.00000006       0.00000058       0.00000036      -0.00000000
Te       2.36904279       1.67516612       7.40191174      -0.00187057      -0.00132388       0.00000012
Te       6.17794850       4.36846950       7.40191177       0.00187233       0.00132312       0.00000029
Te       5.22572223       1.67516604       5.75260710       0.00093493      -0.00132294      -0.00161929
Te       3.32126931       4.36846955       9.05121597      -0.00093620       0.00132357       0.00162090
Te       3.32126925       4.36846954       5.75260711      -0.00093631       0.00132370      -0.00162092
Te       5.22572222       1.67516615       9.05121609       0.00093566      -0.00132327       0.00161937
