9
Lattice="4.914992757050012 -9.986916646645969e-09 2.8376723824806396 1.6383309198165272 4.63389951971913 2.8376723647866817 1.6747041355876705e-08 -9.828637447698348e-09 5.675344735954551" Properties=species:S:1:pos:R:3:forces:R:3 energy=-43.074790954589844 free_energy=-43.074790954589844 stress="0.000545270973816514 -2.648973129737442e-08 -1.7831817800129102e-08 -2.648973129737442e-08 0.0005452954210340977 3.245864732548398e-08 -1.7831817800129102e-08 3.245864732548398e-08 0.0005453740013763309" pbc="T T T"
Ag       1.63833093       1.15847488       2.83767238       0.00000003      -0.00000018      -0.00000030
Ag       4.91499278       3.47542463       8.51301713       0.00000028       0.00000039      -0.00000018
Ir       0.00000001      -0.00000002      -0.00000005       0.00000062      -0.00000373      -0.00001540
O        1.51835673       1.07364031       5.67534476       0.00178093       0.00125909      -0.00000031
O        5.03496702       3.56025922       5.67534475      -0.00177979      -0.00125927       0.00000031
O        4.15581439       1.07364028       4.15260781      -0.00089177       0.00126112       0.00154355
O        2.39750928       3.56025920       7.19808167       0.00088537      -0.00125167      -0.00153321
O        2.39750928       3.56025923       4.15260778       0.00089151      -0.00126058       0.00154251
O        4.15581440       1.07364029       7.19808166      -0.00088677       0.00125444      -0.00153667
