9
Lattice="5.432836060452447 -1.091455842039669e-07 3.1366494647340732 1.8109452853328327 5.1221266517286335 3.136649404541479 6.335220616840883e-08 -2.8923794499854165e-08 6.273298819738906" Properties=species:S:1:pos:R:3:forces:R:3 energy=-35.32205581665039 free_energy=-35.32205581665039 stress="0.00020492618205025792 -3.08985974584175e-08 1.4088614719298675e-08 -3.08985974584175e-08 0.00020497609511949122 -1.5892050342358743e-08 1.4088614719298675e-08 -1.5892050342358743e-08 0.0002050085604423657" pbc="T T T"
Ag       1.81094480       1.28053175       3.13664942      -0.00000175      -0.00000008      -0.00000096
Ag       5.43283580       3.84159491       9.40994801      -0.00000191       0.00000017      -0.00000096
Ir      -0.00000234      -0.00000030      -0.00000070      -0.00001179      -0.00000141      -0.00000276
S        1.89923731       1.34296354       6.27329902       0.00600761       0.00424820       0.00000094
S        5.34454457       3.77916240       6.27329908      -0.00599796      -0.00424182       0.00000074
S        4.48321813       1.34296370       4.78143778      -0.00300032       0.00424349       0.00519753
S        2.76056476       3.77916343       7.76516057       0.00300267      -0.00424421      -0.00519842
S        2.76056459       3.77916280       4.78143722       0.00300288      -0.00424594       0.00519943
S        4.48321795       1.34296379       7.76516028      -0.00299954       0.00424165      -0.00519592
