9
Lattice="4.699652206867873 1.1663220460625485e-07 2.713345247143704 1.5665508498050014 4.430874243887752 2.713345239833678 1.4084269231501847e-08 1.0061226731495544e-09 5.42669046989276" Properties=species:S:1:pos:R:3:forces:R:3 energy=-33.983375549316406 free_energy=-33.983375549316406 stress="-7.681935676373541e-05 -1.1171414904254107e-08 -2.6594529245471676e-08 -1.1171414904254107e-08 -7.67860547057353e-05 3.3060739923485016e-08 -2.6594529245471676e-08 3.3060739923485016e-08 -7.677222311031073e-05" pbc="T T T"
Ag       1.56655070       1.10771848       2.71334529      -0.00000037       0.00000018      -0.00000013
Ag       4.69965232       3.32315602       8.14003583      -0.00000169       0.00000137      -0.00000044
In      -0.00000057       0.00000053      -0.00000028       0.00000663      -0.00000519       0.00000546
O        1.75394349       1.24022477       5.42669054       0.00046644       0.00033012      -0.00000056
O        4.51225983       3.19064933       5.42669047      -0.00046852      -0.00033048      -0.00000071
O        3.82268055       1.24022505       4.23230449      -0.00023367       0.00033101       0.00040424
O        2.44352260       3.19064914       6.62107639       0.00023305      -0.00032991      -0.00040513
O        2.44352269       3.19064903       4.23230449       0.00023299      -0.00032908       0.00040343
O        3.82268066       1.24022508       6.62107654      -0.00023457       0.00033167      -0.00040624
