9
Lattice="5.802057081311349 9.71284407001004e-09 3.349819164801686 1.9340190475609982 5.470231955844982 3.3498191452297092 -3.904693640150081e-09 -2.6731647624225368e-08 6.699638336366473" Properties=species:S:1:pos:R:3:forces:R:3 energy=-34.37864685058594 free_energy=-34.37864685058594 stress="-0.00017842138186097145 1.2869123544589911e-08 1.377263212330726e-12 1.2869123544589911e-08 -0.00017842029046732932 1.4968751571586836e-08 1.377263212330726e-12 1.4968751571586836e-08 -0.0001784244377631694" pbc="T T T"
Ag       1.93401898       1.36755797       3.34981916       0.00000010       0.00000025      -0.00000002
Ag       5.80205710       4.10267395      10.04945741       0.00000008       0.00000010       0.00000006
Mn      -0.00000008       0.00000017      -0.00000027      -0.00000253      -0.00000343       0.00000997
Se       1.91466573       1.35387301       6.69963825      -0.00174296      -0.00123197      -0.00000002
Se       5.82141002       4.11635844       6.69963821       0.00174683       0.00123498       0.00000021
Se       4.84472423       1.35387327       5.00796845       0.00087315      -0.00123528      -0.00151309
Se       2.89135198       4.11635907       8.39130850      -0.00087070       0.00123084       0.00150764
Se       2.89135206       4.11635878       5.00796841      -0.00087354       0.00123450      -0.00151193
Se       4.84472443       1.35387302       8.39130850       0.00086960      -0.00123003       0.00150687
