9
Lattice="6.030755622530369 7.090522641693562e-08 3.4818583347820566 2.0102518459235332 5.685851256901126 3.4818584995058552 -1.784040437556086e-07 7.559400284728866e-08 6.963716978568978" Properties=species:S:1:pos:R:3:forces:R:3 energy=-31.620454788208008 free_energy=-31.620454788208008 stress="-1.077507022273494e-05 1.9082198932096617e-08 -1.0456602694830508e-08 1.9082198932096617e-08 -1.0778494470287114e-05 1.0046949050490639e-08 -1.0456602694830508e-08 1.0046949050490639e-08 -1.0763582395156845e-05" pbc="T T T"
Ag       2.01025134       1.42146305       3.48185860      -0.00000003       0.00000023      -0.00000019
Ag       6.03075557       4.26438849      10.44557471       0.00000038       0.00000003      -0.00000008
Mn       0.00000016      -0.00000006      -0.00000050      -0.00000149       0.00000262      -0.00000131
Te       2.06395348       1.45943648       6.96371724       0.00062171       0.00044073       0.00000048
Te       5.97705373       4.22641461       6.96371737      -0.00062209      -0.00043997      -0.00000054
Te       4.99877884       1.45943529       5.26929546      -0.00031199       0.00043979       0.00053772
Te       3.04222886       4.22641569       8.65813872       0.00031084      -0.00043915      -0.00053899
Te       3.04222809       4.22641613       5.26929497       0.00031409      -0.00044341       0.00054118
Te       4.99877902       1.45943593       8.65813867      -0.00031140       0.00043912      -0.00053830
