9
Lattice="5.803466799298349 2.8724954970211057e-07 3.3506333174451486 1.9344891193122022 5.471561905560462 3.3506334639917768 -5.8122510986814705e-08 1.383833842220198e-07 6.701266735561447" Properties=species:S:1:pos:R:3:forces:R:3 energy=-34.378658294677734 free_energy=-34.378658294677734 stress="-9.980995673686266e-05 4.2180282378012635e-08 3.2673126426630006e-09 4.2180282378012635e-08 -9.992422565119341e-05 -5.210061271299082e-10 3.2673126426630006e-09 -5.210061271299082e-10 -9.993385174311697e-05" pbc="T T T"
Ag       1.93448889       1.36789061       3.35063347      -0.00000025       0.00000015      -0.00000005
Ag       5.80346685       4.10367152      10.05190002      -0.00000015      -0.00000002      -0.00000048
Mn       0.00000022      -0.00000009      -0.00000011      -0.00000539       0.00000320       0.00000534
Se       1.91449447       1.35375263       6.70126676       0.00412947       0.00291970       0.00000031
Se       5.82346157       4.11780981       6.70126691      -0.00412703      -0.00291866      -0.00000050
Se       4.84621977       1.35375228       5.00863386      -0.00206509       0.00292039       0.00357664
Se       2.89173586       4.11781021       8.39389967       0.00206810      -0.00292492      -0.00358182
Se       2.89173587       4.11781007       5.00863406       0.00206685      -0.00292286       0.00357974
Se       4.84621983       1.35375236       8.39389950      -0.00206625       0.00292292      -0.00357956
