9
Lattice="6.333424869956433 -2.0172889873024875e-07 3.656604259828141 2.1111414094470486 5.971209613175772 3.6566043008430955 6.874432277790898e-08 9.884238567899005e-08 7.313208400587686" Properties=species:S:1:pos:R:3:forces:R:3 energy=-23.49614715576172 free_energy=-23.49614715576172 stress="-3.157071114401333e-05 1.961392825933217e-09 6.965267917991014e-09 1.961392825933217e-09 -3.147425741190091e-05 -2.8594129286574343e-09 6.965267917991014e-09 -2.8594129286574343e-09 -3.1560946808895096e-05" pbc="T T T"
Ag       2.11114205       1.49280306       3.65660409       0.00000151       0.00000206      -0.00000070
Ag       6.33342504       4.47840672      10.96981224       0.00000022      -0.00000093      -0.00000045
Mg      -0.00000096       0.00000164       0.00000063       0.00000528      -0.00000925      -0.00000169
Te       2.36332677       1.67112467       7.31320812       0.00183248       0.00129756      -0.00000115
Te       6.08124029       4.30008475       7.31320820      -0.00183242      -0.00129860      -0.00000140
Te       5.15176130       1.67112389       5.70330467      -0.00091761       0.00130008       0.00159087
Te       3.29280516       4.30008423       8.92311155       0.00091553      -0.00129567      -0.00158379
Te       3.29280493       4.30008451       5.70330555       0.00091447      -0.00129509       0.00158618
Te       5.15176081       1.67112459       8.92311274      -0.00091943       0.00129984      -0.00158781
