9
Lattice="6.031441538097875 5.279572753246396e-08 3.4822546249681268 2.010480523420087 5.686497596667037 3.4822546926141977 9.398654799843191e-08 1.4930763023313026e-07 6.964509087146693" Properties=species:S:1:pos:R:3:forces:R:3 energy=-31.620447158813477 free_energy=-31.620447158813477 stress="0.00016605340351816267 6.9404544333906415e-09 -1.514587011364199e-09 6.9404544333906415e-09 0.00016605114797130227 -8.789864835989647e-09 -1.514587011364199e-09 -8.789864835989647e-09 0.00016606252756901085" pbc="T T T"
Ag       2.01048058       1.42162442       3.48225452      -0.00000004       0.00000011       0.00000022
Ag       6.03144231       4.26487421      10.44676365       0.00000068      -0.00000028      -0.00000047
Mn      -0.00000103       0.00000021      -0.00000064       0.00001160      -0.00000274       0.00000564
Te       2.06444213       1.45978067       6.96450963      -0.00321463      -0.00227343      -0.00000001
Te       5.97748104       4.22671809       6.96450947       0.00320646       0.00226761       0.00000127
Te       4.99922138       1.45978004       5.27011372       0.00160593      -0.00226803      -0.00277899
Te       3.04270067       4.22671699       8.65890424      -0.00160557       0.00227126       0.00278114
Te       3.04270073       4.22671673       5.27011391      -0.00160755       0.00227195      -0.00278480
Te       4.99922086       1.45977986       8.65890514       0.00160311      -0.00226639       0.00277606
