9
Lattice="5.56791339306787 1.9756993909179598e-07 3.214636468966287 1.8559711885608141 5.249479745687546 3.2146366919375358 -1.1700805486628857e-07 1.9034572413269426e-07 6.4292731405964085" Properties=species:S:1:pos:R:3:forces:R:3 energy=-36.71224594116211 free_energy=-36.71224594116211 stress="-7.3052301559073385e-06 4.52743229573116e-08 -1.593222265228178e-08 4.52743229573116e-08 -7.355263278441271e-06 6.191326207272141e-08 -1.593222265228178e-08 6.191326207272141e-08 -7.373331300186692e-06" pbc="T T T"
Ag       1.85597118       1.31237043       3.21463676      -0.00000015       0.00000043       0.00000053
Ag       5.56791317       3.93711002       9.64390986      -0.00000005      -0.00000058      -0.00000091
Mn      -0.00000013      -0.00000054      -0.00000041       0.00000001       0.00000980       0.00000631
S        1.80889831       1.27908436       6.42927325       0.00021017       0.00014871       0.00000047
S        5.61498646       3.97039594       6.42927328      -0.00021690      -0.00015205       0.00000106
S        4.66346422       1.27908471       4.78118798      -0.00010496       0.00014842       0.00018179
S        2.76041982       3.97039576       8.07735833       0.00011042      -0.00015539      -0.00019002
S        2.76041997       3.97039593       4.78118782       0.00010961      -0.00015438       0.00018978
S        4.66346471       1.27908389       8.07735858      -0.00010872       0.00015509      -0.00018907
