9
Lattice="4.839322336651432 6.309166727876058e-07 2.7939838354333792 1.6131075466933424 4.562558715337615 2.79398469053157 -8.968848863013947e-07 4.130836554452671e-07 5.587969224316846" Properties=species:S:1:pos:R:3:forces:R:3 energy=-43.13381576538086 free_energy=-43.13381576538086 stress="-2.854263766494114e-05 3.813407261077373e-07 -2.6982132794728386e-07 3.813407261077373e-07 -2.908777787524741e-05 3.8136724356263585e-07 -2.6982132794728386e-07 3.8136724356263585e-07 -2.9051007004454732e-05" pbc="T T T"
Ag       1.61310736       1.14063962       2.79398486       0.00000079       0.00000039       0.00000256
Ag       4.83932194       3.42191991       8.38195390       0.00000083      -0.00000051       0.00000189
Mo       0.00000063       0.00000050       0.00000043       0.00000070      -0.00000120       0.00000619
O        1.58885952       1.12349538       5.58796899       0.00049818       0.00035441      -0.00000248
O        4.86356730       3.43906296       5.58796847      -0.00048614      -0.00034189      -0.00000413
O        4.04489145       1.12349531       4.16997728      -0.00025737       0.00035357       0.00043452
O        2.40753784       3.43906471       7.00595998       0.00024647      -0.00035679      -0.00043952
O        2.40753691       3.43906600       4.16997638       0.00026256      -0.00037718       0.00046146
O        4.04489200       1.12349498       7.00596028      -0.00026667       0.00036907      -0.00046027
