9
Lattice="5.687586245973254 1.64890224191696e-07 3.2837297569657595 1.8958622260857692 5.362308550126972 3.283729776651018 -1.2956563163064054e-07 -6.750730744716672e-08 6.5674597383457485" Properties=species:S:1:pos:R:3:forces:R:3 energy=-25.58407211303711 free_energy=-25.58407211303711 stress="5.0806971557904035e-05 -5.580788808856596e-08 2.9941435997216104e-08 -5.580788808856596e-08 5.054745270172134e-05 3.7485872184106483e-08 2.9941435997216104e-08 3.7485872184106483e-08 5.068933387519792e-05" pbc="T T T"
Ag       1.89586195       1.34057714       3.28372997      -0.00000028       0.00000008       0.00000009
Ag       5.68758624       4.02173131       9.85118961       0.00000047      -0.00000043      -0.00000013
Mg       0.00000021       0.00000002      -0.00000037       0.00000080       0.00000102       0.00000104
Se       2.19669079       1.55329375       6.56746012       0.00254755       0.00179405       0.00000202
Se       5.38675876       3.80901495       6.56745902      -0.00254910      -0.00179982      -0.00000025
Se       4.58924071       1.55329483       5.18611915      -0.00127325       0.00179996       0.00220321
Se       2.99420702       3.80901404       7.94879963       0.00127482      -0.00179764      -0.00220600
Se       2.99420720       3.80901454       5.18611976       0.00127468      -0.00179590       0.00220468
Se       4.58924046       1.55329397       7.94880024      -0.00127574       0.00179862      -0.00220469
