9
Lattice="4.563507912879128 4.5555912550432495e-08 2.634742582204125 1.5211693373213946 4.302516653477684 2.634742599389839 3.789540233386079e-08 4.7844205080871864e-08 5.269485098771488" Properties=species:S:1:pos:R:3:forces:R:3 energy=-34.15052032470703 free_energy=-34.15052032470703 stress="-0.0002999314456246793 7.898044174226015e-08 -5.108471512471624e-08 7.898044174226015e-08 -0.00029992638155817986 1.0117050663893679e-07 -5.108471512471624e-08 1.0117050663893679e-07 -0.00030024972511455417" pbc="T T T"
Ag       1.52116942       1.07562894       2.63474243       0.00000063       0.00000015       0.00000043
Ag       4.56350791       3.22688750       7.90422765      -0.00000058       0.00000007       0.00000036
Mg       0.00000003       0.00000050       0.00000070       0.00000113      -0.00000499      -0.00000239
O        1.64291746       1.16171834       5.26948507       0.00257421       0.00182073       0.00000000
O        4.44175937       3.14079831       5.26948514      -0.00257334      -0.00181869      -0.00000028
O        3.74204920       1.16171804       4.05755077      -0.00128741       0.00182082       0.00223002
O        2.34262846       3.14079821       6.48141899       0.00128565      -0.00181618      -0.00222655
O        2.34262816       3.14079867       4.05755107       0.00128656      -0.00182013       0.00222805
O        3.74204912       1.16171846       6.48141936      -0.00128687       0.00181830      -0.00222935
