9
Lattice="5.671988277840764 1.0215564634788322e-08 3.2747239195791433 1.8906627447810203 5.347601626160976 3.2747239613745234 -7.16340058309407e-08 5.357815731775875e-10 6.549447963231976" Properties=species:S:1:pos:R:3:forces:R:3 energy=-25.335594177246094 free_energy=-25.335594177246094 stress="2.534875602577813e-05 -3.2442990516301506e-09 -1.3258683928540904e-08 -3.2442990516301506e-09 2.5481376724201255e-05 -9.115809440629619e-09 -1.3258683928540904e-08 -9.115809440629619e-09 2.5355544494232163e-05" pbc="T T T"
Ag       1.89066287       1.33690031       3.27472399       0.00000081      -0.00000037      -0.00000042
Ag       5.67198837       4.01070126       9.82417199      -0.00000042       0.00000055       0.00000009
Mg      -0.00000011      -0.00000041       0.00000013      -0.00000019       0.00000281       0.00000021
S        2.08688662       1.47565220       6.54944823       0.00177975       0.00126022       0.00000126
S        5.47576445       3.87194966       6.54944790      -0.00177975      -0.00126081       0.00000106
S        4.62854488       1.47565226       5.08202061      -0.00088978       0.00126044       0.00153934
S        2.93410611       3.87194981       8.01687483       0.00089037      -0.00125957      -0.00154019
S        2.93410599       3.87194945       5.08202081       0.00088976      -0.00126192       0.00153960
S        4.62854462       1.47565203       8.01687491      -0.00089062       0.00125882      -0.00154100
