9
Lattice="4.662334788749207 -1.336423812145231e-07 2.691800135107739 1.5541113748787283 4.395691443676082 2.6918003002964874 -1.8556670381633654e-07 7.10985904901149e-08 5.383600591626439" Properties=species:S:1:pos:R:3:forces:R:3 energy=-47.53726577758789 free_energy=-47.53726577758789 stress="-0.00032546138390898705 -3.1029745173327683e-07 -2.0427744118478586e-07 -3.1029745173327683e-07 -0.000325839122524485 -1.6687994275343954e-07 -2.0427744118478586e-07 -1.6687994275343954e-07 -0.00032557136728428304" pbc="T T T"
Ag       1.55411156       1.09892282       2.69180027      -0.00000595      -0.00000148      -0.00000129
Ag       4.66233461       3.29676856       8.07540074      -0.00000078      -0.00000006       0.00000725
Mn      -0.00000022      -0.00000004      -0.00000005       0.00001164      -0.00001396      -0.00001638
O        1.54881121       1.09517519       5.38360055       0.00495434       0.00349784      -0.00000713
O        4.66763485       3.30051663       5.38360049      -0.00495410      -0.00351369      -0.00001171
O        3.88792923       1.09517464       4.03310989      -0.00248647       0.00352824       0.00431716
O        2.32851695       3.30051641       6.73409067       0.00246918      -0.00349033      -0.00427699
O        2.32851693       3.30051637       4.03311029       0.00248432      -0.00350654       0.00428951
O        3.88792884       1.09517500       6.73409111      -0.00247097       0.00350082      -0.00430119
