9
Lattice="5.586238118102015 -9.636573704955704e-08 3.2252159020636686 1.8620793398094453 5.2667555125100245 3.2252158016684325 2.6797532210081938e-08 -1.0400990102787485e-07 6.450431757712805" Properties=species:S:1:pos:R:3:forces:R:3 energy=-39.2901725769043 free_energy=-39.2901725769043 stress="-1.929890458995942e-05 -5.086533505505031e-08 3.5019462885088615e-09 -5.086533505505031e-08 -1.9261149645899422e-05 -1.8944943391829838e-08 3.5019462885088615e-09 -1.8944943391829838e-08 -1.9236706066294573e-05" pbc="T T T"
Ag       1.86207949       1.31668860       3.22521563       0.00000020       0.00000047       0.00000003
Ag       5.58623802       3.95006649       9.67564766      -0.00000010       0.00000005      -0.00000001
Mo      -0.00000012       0.00000014       0.00000015       0.00000071      -0.00000142      -0.00000013
S        1.87158469       1.32341018       6.45043143       0.00098599       0.00069712       0.00000049
S        5.57673291       3.94334506       6.45043182      -0.00098702      -0.00069827      -0.00000089
S        4.65044548       1.32341011       4.84605594      -0.00049179       0.00069632       0.00085296
S        2.79787206       3.94334531       8.05480754       0.00049193      -0.00069550      -0.00085188
S        2.79787176       3.94334504       4.84605607       0.00049192      -0.00069374       0.00085066
S        4.65044564       1.32341036       8.05480763      -0.00049202       0.00069499      -0.00085124
