9
Lattice="4.662459660692696 5.832182468488849e-08 2.6918723679924645 1.5541532326671887 4.395809188910246 2.6918724416913173 -4.72692364406659e-08 5.6837893221474504e-08 5.383744817857646" Properties=species:S:1:pos:R:3:forces:R:3 energy=-47.53725814819336 free_energy=-47.53725814819336 stress="-8.202418393921107e-05 2.581183196070924e-07 1.3445503554976312e-07 2.581183196070924e-07 -8.264566713478416e-05 4.688618844284065e-07 1.3445503554976312e-07 4.688618844284065e-07 -8.285397780127823e-05" pbc="T T T"
Ag       1.55415315       1.09895228       2.69187249       0.00000043       0.00000544      -0.00000847
Ag       4.66245978       3.29685691       8.07561742      -0.00000216       0.00000527      -0.00001639
Mn       0.00000039       0.00000114      -0.00000194      -0.00006152      -0.00010876       0.00021795
O        1.54882404       1.09518420       5.38374444       0.00411057       0.00288653       0.00002706
O        4.66778749       3.30062447       5.38374466      -0.00396204      -0.00282168       0.00002344
O        3.88804687       1.09518484       4.03319401      -0.00199282       0.00280273       0.00347567
O        2.32856544       3.30062538       6.73429607       0.00205135      -0.00292325      -0.00353253
O        2.32856625       3.30062418       4.03319460       0.00194860      -0.00278819       0.00341690
O        3.88804791       1.09518375       6.73429671      -0.00209177       0.00294197      -0.00360417
