9
Lattice="5.56793142504604 -2.6145931953583752e-08 3.2146466918893797 1.8559769728605253 5.249496632762385 3.214646941600692 -2.946761249939825e-07 9.746510909087801e-08 6.429293894172832" Properties=species:S:1:pos:R:3:forces:R:3 energy=-36.71224594116211 free_energy=-36.71224594116211 stress="-7.482806267944397e-06 -1.9201543466351723e-08 -5.352928766910736e-08 -1.9201543466351723e-08 -7.4566792136465665e-06 7.098014975781552e-08 -5.352928766910736e-08 7.098014975781552e-08 -7.432854090438923e-06" pbc="T T T"
Ag       1.85597704       1.31237408       3.21464688       0.00000077      -0.00000073      -0.00000003
Ag       5.56793111       3.93712263       9.64394041       0.00000059       0.00000007      -0.00000033
Mn      -0.00000047      -0.00000014      -0.00000052       0.00000518       0.00000091       0.00001135
S        1.80889490       1.27908238       6.42929392       0.00028914       0.00020397       0.00000065
S        5.61501334       3.97041452       6.42929414      -0.00029308      -0.00020862       0.00000097
S        4.66348331       1.27908249       4.78119617      -0.00014311       0.00020123       0.00024682
S        2.76042449       3.97041437       8.07739093       0.00014451      -0.00020415      -0.00025016
S        2.76042473       3.97041467       4.78119656       0.00014496      -0.00020331       0.00024945
S        4.66348383       1.27908182       8.07739142      -0.00014907       0.00021058      -0.00025821
