9
Lattice="6.278406302259435 -3.636181976436763e-07 3.624839476451185 2.0928017123364255 5.919338254456625 3.624839555422689 -1.256891815880109e-07 7.844260182813496e-09 7.249679170602491" Properties=species:S:1:pos:R:3:forces:R:3 energy=-33.213966369628906 free_energy=-33.213966369628906 stress="-1.832675661717076e-05 -9.997266658956505e-08 -1.3639278151345025e-08 -9.997266658956505e-08 -1.8266520783072338e-05 1.4564492722968225e-08 -1.3639278151345025e-08 1.4564492722968225e-08 -1.8194325093645602e-05" pbc="T T T"
Ag       2.09280175       1.47983448       3.62483965      -0.00000027      -0.00000065      -0.00000006
Ag       6.27840560       4.43950292      10.87451762      -0.00000054      -0.00000096      -0.00000204
Nb      -0.00000075      -0.00000063       0.00000026       0.00000774       0.00000369      -0.00000191
Te       2.22242836       1.57149451       7.24967926      -0.00301934      -0.00213568      -0.00000037
Te       6.14877973       4.34784437       7.24967982       0.00301338       0.00213046       0.00000021
Te       5.16719138       1.57149470       5.54951984       0.00151287      -0.00213775      -0.00261805
Te       3.20401722       4.34784280       8.94983812      -0.00151525       0.00214218       0.00262369
Te       3.20401667       4.34784314       5.54951993      -0.00151155       0.00213763      -0.00261992
Te       5.16719161       1.57149527       8.94983825       0.00151299      -0.00213887       0.00261845
