9
Lattice="5.438285024571889 -1.7190992295251276e-07 3.139795443162193 1.8127615975852787 5.127264273312078 3.1397952962734106 8.472497976624998e-08 -1.1999154817919594e-07 6.2795907395764115" Properties=species:S:1:pos:R:3:forces:R:3 energy=-31.802135467529297 free_energy=-31.802135467529297 stress="-6.476462294813246e-05 -1.573419439182544e-07 4.199613812261305e-08 -1.573419439182544e-07 -6.46584594505839e-05 -5.164918803757246e-08 4.199613812261305e-08 -5.164918803757246e-08 -6.45715044811368e-05" pbc="T T T"
Ag       1.81276156       1.28181559       3.13979552       0.00000004      -0.00000052       0.00000076
Ag       5.43828504       3.84544792       9.41938663      -0.00000035      -0.00000046       0.00000108
Ni      -0.00000016       0.00000010       0.00000009       0.00001157      -0.00000353      -0.00000441
S        1.76213975       1.24602043       6.27959067       0.00029966       0.00021139      -0.00000036
S        5.48890726       3.88124359       6.27959025      -0.00030699      -0.00021651      -0.00000150
S        4.55721477       1.24602102       4.66585317      -0.00014919       0.00021222       0.00025854
S        2.69383218       3.88124287       7.89332821       0.00014621      -0.00020465      -0.00025195
S        2.69383154       3.88124284       4.66585342       0.00014327      -0.00020322       0.00024945
S        4.55721492       1.24602141       7.89332795      -0.00014456       0.00020507      -0.00025147
