9
Lattice="5.678107401902265 5.996650668750164e-07 3.2782571666900227 1.8927024572859206 5.353374032235305 3.278258163285271 -5.135599117473785e-07 8.574331886240508e-07 6.556515222891829" Properties=species:S:1:pos:R:3:forces:R:3 energy=-29.929784774780273 free_energy=-29.929784774780273 stress="8.414278454438318e-06 5.3123422105727514e-08 -2.2247399478203533e-09 5.3123422105727514e-08 8.277778761112131e-06 5.5597966230891416e-09 -2.2247399478203533e-09 5.5597966230891416e-09 8.27479743747972e-06" pbc="T T T"
Ag       1.89270226       1.33834332       3.27825695      -0.00000069       0.00000017      -0.00000046
Ag       5.67810599       4.01503289       9.83477201      -0.00000028       0.00000012      -0.00000073
Ni      -0.00000014       0.00000001       0.00000083      -0.00000327      -0.00000562      -0.00000199
Se       1.88505228       1.33293415       6.55651415      -0.00041148      -0.00029083      -0.00000005
Se       5.68575593       4.02044125       6.55651460       0.00041762       0.00029561       0.00000060
Se       4.73558179       1.33293428       4.91076164       0.00020649      -0.00029175      -0.00035539
Se       2.83522876       4.02044180       8.20227081      -0.00020641       0.00029100       0.00035831
Se       2.83522903       4.02044058       4.91076192      -0.00020590       0.00028951      -0.00035432
Se       4.73558101       1.33293431       8.20226946       0.00020380      -0.00028835       0.00035417
