9
Lattice="5.531911333706815 5.17800991304414e-09 3.193850234819057 1.8439705007632547 5.215535791607866 3.193850145943263 3.3928797353243084e-08 -8.485889124151016e-08 6.387700410871687" Properties=species:S:1:pos:R:3:forces:R:3 energy=-39.23949432373047 free_energy=-39.23949432373047 stress="3.4449290978955105e-05 8.776432025570102e-09 -3.8295485893513614e-08 8.776432025570102e-09 3.4441658499417827e-05 4.6452814927988584e-08 -3.8295485893513614e-08 4.6452814927988584e-08 3.443624882493168e-05" pbc="T T T"
Ag       1.84397044       1.30388407       3.19385026      -0.00000033      -0.00000030       0.00000007
Ag       5.53191145       3.91165176       9.58155067       0.00000004       0.00000016      -0.00000032
Nb       0.00000023       0.00000026      -0.00000116      -0.00000184      -0.00000264       0.00001330
S        1.94111442       1.37257484       6.38770036      -0.00070593      -0.00049880       0.00000056
S        5.43476708       3.84296056       6.38770026       0.00070867       0.00050107      -0.00000044
S        4.56135380       1.37257549       4.87490506       0.00035575      -0.00050306      -0.00061610
S        2.81452774       3.84296064       7.90049629      -0.00035240       0.00049680       0.00060892
S        2.81452788       3.84296054       4.87490479      -0.00035422       0.00050178      -0.00061262
S        4.56135455       1.37257466       7.90049676       0.00035030      -0.00049508       0.00060701
