9
Lattice="6.278681795714365 8.152727831996539e-08 3.624998626071637 2.092894048194101 5.919598038225427 3.6249985577861263 6.976974234838825e-08 -3.429766957393343e-08 7.249997131298559" Properties=species:S:1:pos:R:3:forces:R:3 energy=-33.213966369628906 free_energy=-33.213966369628906 stress="-1.2955777037859662e-06 6.107076622186014e-09 1.0953406182068193e-08 6.107076622186014e-09 -1.303413796449604e-06 -4.902831918229822e-09 1.0953406182068193e-08 -4.902831918229822e-09 -1.3175558706279844e-06" pbc="T T T"
Ag       2.09289377       1.47989962       3.62499870      -0.00000036      -0.00000022       0.00000015
Ag       6.27868192       4.43969860      10.87499582      -0.00000044       0.00000015       0.00000043
Nb      -0.00000024      -0.00000021       0.00000058      -0.00000014      -0.00000035      -0.00000512
Te       2.22223600       1.57135806       7.24999691       0.00024749       0.00017460      -0.00000086
Te       6.14934018       4.34823994       7.24999713      -0.00024598      -0.00017425      -0.00000115
Te       5.16756432       1.57135788       5.54951075      -0.00012501       0.00017693       0.00021687
Te       3.20401186       4.34824023       8.95048337       0.00012286      -0.00017376      -0.00021271
Te       3.20401184       4.34824028       5.54951103       0.00012468      -0.00017638       0.00021481
Te       5.16756401       1.57135795       8.95048296      -0.00012316       0.00017317      -0.00021236
