9
Lattice="5.531935490975577 1.3448428952071167e-07 3.1938643740058903 1.8439785768210226 5.215558876897936 3.193864455349648 -2.2018427609519684e-08 8.40559772913815e-08 6.387728786148854" Properties=species:S:1:pos:R:3:forces:R:3 energy=-39.239501953125 free_energy=-39.239501953125 stress="2.9897744752815925e-05 1.2095874524220562e-07 -1.0156105290093365e-08 1.2095874524220562e-07 2.9797656679875217e-05 3.100442214076793e-08 -1.0156105290093365e-08 3.100442214076793e-08 2.9689985240111127e-05" pbc="T T T"
Ag       1.84397901       1.30388997       3.19386432       0.00000115      -0.00000052      -0.00000023
Ag       5.53193561       3.91166941       9.58159294       0.00000006       0.00000068       0.00000035
Nb       0.00000032      -0.00000028       0.00000027      -0.00000559       0.00000317      -0.00000125
S        1.94109691       1.37256273       6.38772853      -0.00034255      -0.00024158       0.00000022
S        5.43481731       3.84299574       6.38772888       0.00034413       0.00024307      -0.00000026
S        4.56138694       1.37256232       4.87490333       0.00016873      -0.00023952      -0.00029233
S        2.81452662       3.84299691       7.90055465      -0.00016804       0.00023696       0.00028962
S        2.81452664       3.84299710       4.87490255      -0.00016625       0.00023574      -0.00028780
S        4.56138690       1.37256248       7.90055505       0.00016832      -0.00023800       0.00029138
