9
Lattice="5.438657207450648 2.967727203626886e-07 3.140010550738014 1.812885901395222 5.127615589667451 3.1400107485757554 2.396359174475089e-07 4.117489199117782e-07 6.28002068641438" Properties=species:S:1:pos:R:3:forces:R:3 energy=-31.802135467529297 free_energy=-31.802135467529297 stress="-1.3884414329368155e-05 9.971126502250627e-08 -4.548431853379498e-09 9.971126502250627e-08 -1.3994635082781315e-05 -1.3839935419923677e-08 -4.548431853379498e-09 -1.3839935419923677e-08 -1.4036187167221215e-05" pbc="T T T"
Ag       1.81288631       1.28190432       3.14001122       0.00000067       0.00000049       0.00000076
Ag       5.43865766       3.84571234       9.42003023      -0.00000005       0.00000065      -0.00000169
Ni      -0.00000093      -0.00000039      -0.00000085       0.00000722       0.00000449       0.00002030
S        1.76216408       1.24603836       6.28002072      -0.00005266      -0.00003713      -0.00000160
S        5.48937805       3.88157761       6.28002221       0.00004950       0.00003588       0.00000008
S        4.55757589       1.24603794       4.66608933       0.00002262      -0.00003579      -0.00004339
S        2.69396843       3.88157809       7.89395317      -0.00002095       0.00002730       0.00003412
S        2.69396779       3.88157829       4.66608954      -0.00002617       0.00003359      -0.00004315
S        4.55757611       1.24603883       7.89395260       0.00001991      -0.00002962       0.00003466
