9
Lattice="5.854124414424602 2.718603084078731e-08 3.379880302049997 1.9513748567862765 5.519321325628763 3.379880256415941 7.243869201357765e-08 -4.668081935129542e-09 6.759760478632471" Properties=species:S:1:pos:R:3:forces:R:3 energy=-36.23619842529297 free_energy=-36.23619842529297 stress="-0.00024481528089381754 3.470339038358361e-08 2.4209514393191967e-08 3.470339038358361e-08 -0.0002448312006890774 -8.681458218973148e-09 2.4209514393191967e-08 -8.681458218973148e-09 -0.0002448614395689219" pbc="T T T"
Ag       1.95137492       1.37983041       3.37988030       0.00000015       0.00000037      -0.00000020
Ag       5.85412458       4.13949133      10.13964088       0.00000028       0.00000006      -0.00000018
Nb       0.00000042       0.00000055      -0.00000083      -0.00000636      -0.00000778       0.00001042
Se       2.03495677       1.43893136       6.75976048      -0.00607908      -0.00429840       0.00000006
Se       5.77054230       4.08038958       6.75976061       0.00608726       0.00430378       0.00000022
Se       4.83664584       1.43893143       5.14220435       0.00304122      -0.00430015      -0.00526690
Se       2.96885304       4.08038998       8.37731687      -0.00303877       0.00429630       0.00526295
Se       2.96885339       4.08038943       5.14220462      -0.00304279       0.00430257      -0.00526935
Se       4.83664612       1.43893126       8.37731677       0.00303806      -0.00429679       0.00526306
