9
Lattice="6.027952861572841 5.535907631695027e-07 3.480243741036203 2.009318355376389 5.683212317981201 3.4802433722452633 1.7700594812396185e-06 7.999461105999752e-07 6.960484416239812" Properties=species:S:1:pos:R:3:forces:R:3 energy=-28.13216209411621 free_energy=-28.13216209411621 stress="-8.819243521429598e-05 1.8880966123902e-08 -4.6919769403075406e-08 1.8880966123902e-08 -8.845161210047081e-05 -8.777300308793201e-08 -4.6919769403075406e-08 -8.777300308793201e-08 -8.857019565766677e-05" pbc="T T T"
Ag       2.00931597       1.42080534       3.48024271       0.00000054       0.00000133       0.00000088
Ag       6.02795287       4.26240764      10.44072486      -0.00000354      -0.00000100      -0.00000321
Ni       0.00000202       0.00000098       0.00000167      -0.00001395      -0.00000789      -0.00000381
Te       2.09276171       1.47980523       6.96048169      -0.00075918      -0.00053702      -0.00000441
Te       5.94450990       4.20340816       6.96048606       0.00076842       0.00054581      -0.00000104
Te       4.98157294       1.47980579       5.29262621       0.00038127      -0.00053735      -0.00065516
Te       3.05570268       4.20340900       8.62835040      -0.00037236       0.00053617       0.00066230
Te       3.05569980       4.20340607       5.29262525      -0.00038037       0.00053757      -0.00065875
Te       4.98157369       1.47980613       8.62834860       0.00037909      -0.00053762       0.00066326
