9
Lattice="5.85754420093504 -2.9007404580207128e-09 3.3818548925508543 1.9525147418263438 5.522545646822868 3.3818548736434795 1.1676083880346665e-08 -1.4900474739727306e-08 6.763709764878116" Properties=species:S:1:pos:R:3:forces:R:3 energy=-36.236305236816406 free_energy=-36.236305236816406 stress="-0.00010801158350659534 -1.2759082679281164e-09 3.198608311549833e-08 -1.2759082679281164e-09 -0.00010800731979543343 -3.4110207991489006e-08 3.198608311549833e-08 -3.4110207991489006e-08 -0.00010801522876136005" pbc="T T T"
Ag       1.95251452       1.38063639       3.38185507       0.00000020       0.00000020      -0.00000022
Ag       5.85754414       4.14190921      10.14556446      -0.00000027      -0.00000001      -0.00000015
Nb       0.00000003       0.00000008       0.00000029      -0.00000207       0.00000063      -0.00000302
Se       2.03446149       1.43858123       6.76370995       0.00122716       0.00086846       0.00000103
Se       5.77559759       4.08396443       6.76370991      -0.00122596      -0.00086752       0.00000084
Se       4.84031335       1.43858152       5.14375037      -0.00061419       0.00086919       0.00106424
Se       2.96974547       4.08396416       8.38366906       0.00061329      -0.00086775      -0.00106472
Se       2.96974564       4.08396406       5.14374981       0.00061386      -0.00086844       0.00106258
Se       4.84031363       1.43858142       8.38366929      -0.00061187       0.00086525      -0.00106049
