9
Lattice="6.028189374765807 7.918186781321947e-10 3.4803769020199224 2.0093964955927146 5.683431573345881 3.480376838642563 -2.558823256765598e-08 -9.571468008362123e-08 6.960753848359866" Properties=species:S:1:pos:R:3:forces:R:3 energy=-28.132164001464844 free_energy=-28.132164001464844 stress="-4.8167556087719277e-05 -3.982176810524152e-09 9.726838084977985e-11 -3.982176810524152e-09 -4.815968350158073e-05 -5.941693803634962e-09 9.726838084977985e-11 -5.941693803634962e-09 -4.816583896172233e-05" pbc="T T T"
Ag       2.00939588       1.42085802       3.48037696      -0.00000101       0.00000031      -0.00000014
Ag       6.02818958       4.26257342      10.44113057       0.00000045       0.00000020      -0.00000031
Ni      -0.00000064      -0.00000005      -0.00000011       0.00000545      -0.00000013      -0.00000269
Te       2.09282557       1.47985155       6.96075411      -0.00091954      -0.00064990       0.00000007
Te       5.94476115       4.20357986       6.96075446       0.00091708       0.00064732       0.00000161
Te       4.98177695       1.47985120       5.29281725       0.00045768      -0.00064715      -0.00079405
Te       3.05580909       4.20358034       8.62868999      -0.00046000       0.00065043       0.00079541
Te       3.05580891       4.20358025       5.29281698      -0.00045953       0.00064897      -0.00079531
Te       4.98177686       1.47985132       8.62869012       0.00045935      -0.00065008       0.00079535
