9
Lattice="5.677737625124392 1.7694518040087508e-08 3.278043358039025 1.892579222436453 5.353022189477119 3.27804336257861 6.22739307414289e-08 4.9594126253672174e-08 6.556086608216431" Properties=species:S:1:pos:R:3:forces:R:3 energy=-29.929777145385742 free_energy=-29.929777145385742 stress="-0.00015312481264118105 -9.765555475382826e-09 -5.77894709863358e-09 -9.765555475382826e-09 -0.0001530864683445543 1.414114514375342e-08 -5.77894709863358e-09 1.414114514375342e-08 -0.00015309342416003346" pbc="T T T"
Ag       1.89257923       1.33825550       3.27804326      -0.00000027      -0.00000027       0.00000014
Ag       5.67773761       4.01476671       9.83413018      -0.00000015      -0.00000016       0.00000014
Ni      -0.00000000       0.00000001      -0.00000017      -0.00000119       0.00000084       0.00000939
Se       1.88464480       1.33264497       6.55608677       0.00408050       0.00288533      -0.00000020
Se       5.68567228       4.02037732       6.55608655      -0.00408015      -0.00288486      -0.00000010
Se       4.73541506       1.33264522       4.91019382      -0.00203815       0.00288203       0.00352973
Se       2.83490167       4.02037722       8.20197956       0.00204121      -0.00288633      -0.00353542
Se       2.83490169       4.02037708       4.91019382       0.00203881      -0.00288290       0.00353137
Se       4.73541529       1.33264504       8.20197954      -0.00204062       0.00288618      -0.00353497
