9
Lattice="4.5726801065590035 2.0925016614692113e-08 2.640038014011854 1.524226698916274 4.311163910581527 2.640038053846045 -3.321076136701616e-08 2.5303145595324836e-08 5.28007608554648" Properties=species:S:1:pos:R:3:forces:R:3 energy=-33.8763427734375 free_energy=-33.8763427734375 stress="0.00019365144544281065 -1.5606308068072394e-07 4.179965262807173e-09 -1.5606308068072394e-07 0.00019371746748220176 -2.2171962044126303e-09 4.179965262807173e-09 -2.2171962044126303e-09 0.00019373168470337987" pbc="T T T"
Ag       1.52422668       1.07779086       2.64003788      -0.00000033      -0.00000078      -0.00000021
Ag       4.57268004       3.23337279       7.92011378       0.00000017       0.00000012      -0.00000048
Ni      -0.00000012       0.00000060       0.00000154       0.00000426      -0.00001828      -0.00003389
O        1.49006729       1.05363642       5.28007637      -0.00238270      -0.00168489       0.00000081
O        4.60683921       3.25752731       5.28007637       0.00238943       0.00168978       0.00000111
O        3.82764672       1.05363662       3.93047382       0.00118703      -0.00167726      -0.00205514
O        2.26926105       3.25752700       6.62967703      -0.00120090       0.00169727       0.00208092
O        2.26926026       3.25752713       3.93047464      -0.00119419       0.00168720      -0.00206712
O        3.82764608       1.05363700       6.62967713       0.00119731      -0.00169344       0.00207442
