9
Lattice="4.644812523528143 4.772621523163228e-08 2.68168399814821 1.5482708845304225 4.379171481245885 2.6816840009928393 2.1428562215399575e-07 1.5500674140676528e-07 5.3633676251427875" Properties=species:S:1:pos:R:3:forces:R:3 energy=-47.55455780029297 free_energy=-47.55455780029297 stress="0.00016357436834368855 -1.307053452137552e-07 -1.8876676222134847e-08 -1.307053452137552e-07 0.00016356543346773833 -6.037814159753907e-08 -1.8876676222134847e-08 -6.037814159753907e-08 0.0001635062217246741" pbc="T T T"
Ag       1.54827102       1.09479315       2.68168392      -0.00000012       0.00000125       0.00000021
Ag       4.64481256       3.28437872       8.04505242       0.00000051      -0.00000023       0.00000261
Nb      -0.00000033       0.00000042       0.00000037       0.00000407      -0.00000353      -0.00000432
O        1.64939262       1.16629664       5.36336757      -0.00407171      -0.00287890       0.00000074
O        4.54369146       3.21287531       5.36336735       0.00406575       0.00287563       0.00000133
O        3.82011642       1.16629713       4.11009972       0.00203645      -0.00288069      -0.00352699
O        2.37296682       3.21287419       6.61663519      -0.00203568       0.00288278       0.00352812
O        2.37296723       3.21287450       4.11009981      -0.00203633       0.00288123      -0.00352687
O        3.82011654       1.16629676       6.61663595       0.00203699      -0.00287712       0.00352603
