9
Lattice="4.572396085936115 -1.6333857921061536e-08 2.6398743566410015 1.52413203231836 4.310896590632897 2.639874323606185 9.91481211221472e-09 -3.3448403524922506e-08 5.279748696109088" Properties=species:S:1:pos:R:3:forces:R:3 energy=-33.8763427734375 free_energy=-33.8763427734375 stress="1.2640765817195643e-05 -1.3473513149619976e-07 1.2431006268798228e-07 -1.3473513149619976e-07 1.2701517334789969e-05 -1.0447160292414992e-07 1.2431006268798228e-07 -1.0447160292414992e-07 1.2800973308912944e-05" pbc="T T T"
Ag       1.52413198       1.07772461       2.63987448       0.00000012       0.00000025       0.00000061
Ag       4.57239618       3.23317244       7.91962344       0.00000058       0.00000035       0.00000065
Ni       0.00000013      -0.00000028       0.00000045      -0.00000197       0.00000827      -0.00001579
O        1.48985256       1.05348484       5.27974921       0.00063974       0.00045131       0.00000146
O        4.60667594       3.25741151       5.27974835      -0.00064397      -0.00045645      -0.00000129
O        3.82746960       1.05348434       3.93012477      -0.00031976       0.00045319       0.00055447
O        2.26905820       3.25741195       6.62937224       0.00031810      -0.00044793      -0.00055015
O        2.26905841       3.25741093       3.93012468       0.00032000      -0.00045244       0.00055167
O        3.82746945       1.05348572       6.62937192      -0.00031316       0.00044358      -0.00054160
