9
Lattice="4.644927376590791 2.189104789186081e-07 2.681749329808997 1.548309304449563 4.379280178731978 2.681749377390988 5.197965854795161e-07 4.258275295939776e-07 5.363497759303869" Properties=species:S:1:pos:R:3:forces:R:3 energy=-47.554561614990234 free_energy=-47.554561614990234 stress="3.923690383089706e-05 2.777015595256671e-08 1.7682333819379892e-08 2.777015595256671e-08 3.9164700865512714e-05 -3.0813573914656445e-08 1.7682333819379892e-08 -3.0813573914656445e-08 3.9366495911963284e-05" pbc="T T T"
Ag       1.54831109       1.09481958       2.68174872       0.00000758       0.00000049      -0.00000067
Ag       4.64492775       3.28445931       8.04524887       0.00000022      -0.00000609       0.00000505
Nb       0.00000118       0.00000018       0.00000051      -0.00000810      -0.00000232      -0.00000478
O        1.64920564       1.16616609       5.36349806       0.00012767       0.00008893      -0.00000053
O        4.54403112       3.21311543       5.36349796      -0.00012720      -0.00008845      -0.00000082
O        3.82032394       1.16616625       4.11000167      -0.00006360       0.00008744       0.00011158
O        2.37291232       3.21311551       6.61699358       0.00006282      -0.00008351      -0.00011045
O        2.37291223       3.21311529       4.11000262       0.00006407      -0.00008470       0.00010955
O        3.82032387       1.16616639       6.61699435      -0.00006378       0.00008768      -0.00011039
