9
Lattice="5.612512437808572 -8.611871853718303e-08 3.2403853765362216 1.8708374070468563 5.2915270571907875 3.2403853609981788 7.795974014026868e-08 3.609570233894715e-08 6.480770618042308" Properties=species:S:1:pos:R:3:forces:R:3 energy=-35.32722854614258 free_energy=-35.32722854614258 stress="0.0002535333624109626 4.907213302374203e-09 7.924592537733588e-09 4.907213302374203e-09 0.00025354858371429145 -8.942985019189109e-09 7.924592537733588e-09 -8.942985019189109e-09 0.000253572448855266" pbc="T T T"
Ag       1.87083731       1.32288189       3.24038536       0.00000001       0.00000002      -0.00000024
Ag       5.61251228       3.96864552       9.72115566       0.00000021       0.00000017       0.00000006
Os       0.00000009      -0.00000007      -0.00000023      -0.00000047      -0.00000054       0.00000054
Se       2.05335767       1.45194277       6.48077049      -0.00479344      -0.00338909      -0.00000074
Se       5.42999217       3.83958422       6.48077073       0.00479382       0.00338969      -0.00000091
Se       4.58583402       1.45194236       5.01864562       0.00239775      -0.00339015      -0.00415082
Se       2.89751590       3.83958442       7.94289595      -0.00239755       0.00339009       0.00415100
Se       2.89751646       3.83958374       5.01864508      -0.00239696       0.00338930      -0.00415163
Se       4.58583373       1.45194312       7.94289673       0.00239671      -0.00338945       0.00415272
