9
Lattice="5.4069210591201955 -1.0029159955521593e-07 3.121687189967919 1.802306966845111 5.097693859374674 3.1216871177514522 3.5126622676490096e-08 -6.360843485253604e-08 6.243374319094651" Properties=species:S:1:pos:R:3:forces:R:3 energy=-37.1414794921875 free_energy=-37.1414794921875 stress="0.0003103974158875644 1.4426007943768582e-08 4.0091535424835456e-08 1.4426007943768582e-08 0.00031034095445647836 -2.315073821534952e-08 4.0091535424835456e-08 -2.315073821534952e-08 0.0003104046336375177" pbc="T T T"
Ag       1.80230743       1.27442348       3.12168658      -0.00000076       0.00000170      -0.00000266
Ag       5.40692125       3.82327048       9.36506141      -0.00000108       0.00000212      -0.00000245
Os      -0.00000177       0.00000210      -0.00000294      -0.00001322       0.00001693      -0.00002343
S        1.91962843       1.35738186       6.24337434       0.00480402       0.00339288       0.00000225
S        5.28959955       3.74031160       6.24337426      -0.00480020      -0.00339639       0.00000295
S        4.44710735       1.35738157       4.78413461      -0.00240031       0.00339311       0.00416279
S        2.76212080       3.74031154       7.70261533       0.00240222      -0.00339890      -0.00415593
S        2.76212204       3.74031094       4.78413533       0.00240570      -0.00340152       0.00416702
S        4.44710725       1.35738129       7.70261592      -0.00239640       0.00339025      -0.00415123
