9
Lattice="4.825282369059837 -2.7122896730914295e-09 2.785878290819137 1.6084275577947278 4.549319265896345 2.785878110688258 1.7446455374580572e-07 -9.724934387744815e-08 5.571756279456896" Properties=species:S:1:pos:R:3:forces:R:3 energy=-48.00922393798828 free_energy=-48.00922393798828 stress="-0.0001993913610931486 -6.815430708684289e-08 -1.4627483224671778e-08 -6.815430708684289e-08 -0.00019928325491491705 -2.1882682332829972e-08 -1.4627483224671778e-08 -2.1882682332829972e-08 -0.00019930870621465147" pbc="T T T"
Ag       1.60842766       1.13732982       2.78587806       0.00000017       0.00000006      -0.00000039
Ag       4.82528254       3.41198933       8.35763436      -0.00000006       0.00000046       0.00000000
Os      -0.00000094      -0.00000040      -0.00000004       0.00000547      -0.00000047       0.00000219
O        1.52395691       1.07760020       5.57175628       0.00259411       0.00183016       0.00000028
O        4.90975331       3.47171854       5.57175658      -0.00259554      -0.00183588       0.00000090
O        4.06330431       1.07760075       4.10566397      -0.00129658       0.00183094       0.00224519
O        2.37040626       3.47171862       7.03784883       0.00129551      -0.00183010      -0.00224042
O        2.37040619       3.47171889       4.10566429       0.00129420      -0.00182903       0.00224018
O        4.06330448       1.07760052       7.03784926      -0.00129783       0.00183403      -0.00224841
