9
Lattice="4.526074093741688 -3.8707325289988566e-07 2.6131300073559034 1.5086911200730881 4.267222803932288 2.6131297987673348 2.771067862924076e-07 -5.952373686545971e-08 5.226259534748781" Properties=species:S:1:pos:R:3:forces:R:3 energy=-42.8597297668457 free_energy=-42.8597297668457 stress="-0.00019202414841856807 -1.5940950781612173e-09 -3.880866472627531e-08 -1.5940950781612173e-09 -0.00019180652452632785 -1.718839115483206e-08 -3.880866472627531e-08 -1.718839115483206e-08 -0.00019152951426804066" pbc="T T T"
Ag       1.50869113       1.06680603       2.61312982      -0.00000094       0.00000146       0.00000070
Ag       4.52607436       3.20041702       7.83939004      -0.00000057       0.00000221       0.00000027
P       -0.00000145       0.00000154       0.00000048      -0.00001416       0.00001452       0.00000519
O        1.39173448       0.98410353       5.22625973       0.00047541       0.00032783      -0.00000284
O        4.64303199       3.28311745       5.22625988      -0.00047278      -0.00033331      -0.00000033
O        3.83020796       0.98410374       3.81840699      -0.00023103       0.00032663       0.00040340
O        2.20455784       3.28311749       6.63411232       0.00023746      -0.00033271      -0.00040865
O        2.20455800       3.28311770       3.81840663       0.00023746      -0.00033462       0.00040770
O        3.83020776       0.98410379       6.63411277      -0.00023139       0.00032735      -0.00040603
