9
Lattice="4.786458310902979 -1.2174400650785944e-07 2.763462744274962 1.5954859534264818 4.512716255637664 2.7634628056354633 -2.8555642069258806e-08 5.495914238176129e-08 5.526925538009737" Properties=species:S:1:pos:R:3:forces:R:3 energy=-34.34637451171875 free_energy=-34.34637451171875 stress="3.3208245895366417e-06 -3.832222006394659e-08 1.4340316489835914e-08 -3.832222006394659e-08 3.3439903290855e-06 4.828720889804572e-08 1.4340316489835914e-08 4.828720889804572e-08 3.3025778520823224e-06" pbc="T T T"
Ag       1.59548615       1.12817879       2.76346298       0.00000185      -0.00000030      -0.00000050
Ag       4.78645834       3.38453736       8.29038830      -0.00000016       0.00000110      -0.00000004
Pb       0.00000009       0.00000067      -0.00000043      -0.00000329      -0.00001049       0.00000537
O        1.74204854       1.23181434       5.52692584       0.00027443       0.00019486      -0.00000084
O        4.63989484       3.28090158       5.52692584      -0.00026758      -0.00018930       0.00000089
O        3.91543385       1.23181452       4.27212106      -0.00013678       0.00019145       0.00023563
O        2.46651046       3.28090156       6.78172950       0.00013442      -0.00018996      -0.00023483
O        2.46651077       3.28090197       4.27212111       0.00013421      -0.00019033       0.00023322
O        3.91543369       1.23181421       6.78173020      -0.00013713       0.00019288      -0.00023893
