9
Lattice="5.638208277032605 -1.1918909215411942e-07 3.25522110463191 1.879402644655927 5.315753409637787 3.25522110806547 -5.18595554395206e-08 -3.246500400045798e-08 6.510442299087223" Properties=species:S:1:pos:R:3:forces:R:3 energy=-29.74000358581543 free_energy=-29.74000358581543 stress="-8.331814024131745e-05 -6.790473516815609e-09 -2.286047351418574e-09 -6.790473516815609e-09 -8.327423711307347e-05 1.0627460689249801e-08 -2.286047351418574e-09 1.0627460689249801e-08 -8.329601405421272e-05" pbc="T T T"
Ag       1.87940266       1.32893838       3.25522104      -0.00000076       0.00000037      -0.00000019
Ag       5.63820812       3.98681505       9.76566365      -0.00000045      -0.00000023       0.00000051
Pd      -0.00000024       0.00000002       0.00000013       0.00000055       0.00000038       0.00000080
Se       2.13327770       1.50845519       6.51044228      -0.00173019      -0.00122329      -0.00000024
Se       5.38433347       3.80729831       6.51044212       0.00173060       0.00122357       0.00000010
Se       4.57156924       1.50845513       5.10269401       0.00086504      -0.00122313      -0.00149808
Se       2.94604169       3.80729782       7.91819018      -0.00086479       0.00122248       0.00149729
Se       2.94604163       3.80729819       5.10269398      -0.00086500       0.00122296      -0.00149814
Se       4.57156926       1.50845500       7.91819063       0.00086502      -0.00122309       0.00149791
