9
Lattice="5.5380299499422385 4.700582702487973e-08 3.1973829139741907 1.8460099714918778 5.221304901152918 3.197383011211068 -1.2562290934119967e-07 3.0261504732627136e-08 6.3947660455336806" Properties=species:S:1:pos:R:3:forces:R:3 energy=-30.57318115234375 free_energy=-30.57318115234375 stress="-1.4036882930668071e-05 1.6186509910198765e-08 -1.4466372988408693e-08 1.6186509910198765e-08 -1.4002775969856884e-05 1.1486254614112568e-08 -1.4466372988408693e-08 1.1486254614112568e-08 -1.4011395251145586e-05" pbc="T T T"
Ag       1.84600989       1.30532622       3.19738291      -0.00000019      -0.00000040      -0.00000016
Ag       5.53802989       3.91597874       9.59214889      -0.00000037       0.00000022      -0.00000103
Pd      -0.00000016      -0.00000010      -0.00000050       0.00000073       0.00000090       0.00000860
S        1.93716942       1.36978588       6.39476599      -0.00058895      -0.00041646      -0.00000110
S        5.44687051       3.85151917       6.39476615       0.00058824       0.00041550      -0.00000040
S        4.56944517       1.36978563       4.87502112       0.00029430      -0.00041640      -0.00051081
S        2.81459453       3.85151937       7.91451101      -0.00029337       0.00041533       0.00050777
S        2.81459474       3.85151924       4.87502117      -0.00029406       0.00041628      -0.00051081
S        4.56944522       1.36978581       7.91451112       0.00029367      -0.00041521       0.00050783
