9
Lattice="4.963808269025531 -6.069057726322112e-07 2.865856364274594 1.6546023997727946 4.679924030257549 2.8658559907971095 1.5699946164606217e-07 -3.4639926572208607e-07 5.731712456617983" Properties=species:S:1:pos:R:3:forces:R:3 energy=-37.036766052246094 free_energy=-37.036766052246094 stress="-9.369946241122307e-08 -4.1600995359658555e-07 1.3448664049064973e-07 -4.1600995359658555e-07 3.4139389981646673e-07 -2.2751549977328978e-07 1.3448664049064973e-07 -2.2751549977328978e-07 6.450266596402798e-07" pbc="T T T"
Ag       1.65460243       1.16997959       2.86585602      -0.00001965      -0.00000043      -0.00000934
Ag       4.96380904       3.50994242       8.59757001      -0.00001799      -0.00000013      -0.00000864
Pd      -0.00003412      -0.00000077      -0.00001795       0.00363918       0.00015193       0.00197489
O        1.49794458       1.05920887       5.73170965      -0.00132561      -0.00098893       0.00004504
O        5.12049261       3.62073444       5.73171232      -0.00132513      -0.00098947       0.00004575
O        4.21484004       1.05919929       4.16310310       0.00009370      -0.00001156       0.00001866
O        2.40356805       3.62072443       7.30032149       0.00007367       0.00001621       0.00006294
O        2.40357394       3.62071756       4.16311604      -0.00057620       0.00094539      -0.00109905
O        4.21484571       1.05918660       7.30032910      -0.00054199       0.00087735      -0.00103027
