9
Lattice="4.814439924121742 1.0389132604752927e-07 2.7796183480714487 1.604813483174844 4.539096984303659 2.779618214383856 1.3244874823270985e-08 -1.5436763365801018e-07 5.559236673202076" Properties=species:S:1:pos:R:3:forces:R:3 energy=-37.449913024902344 free_energy=-37.449913024902344 stress="0.0004648102622013539 -1.9760260983048283e-08 -3.412275795255937e-09 -1.9760260983048283e-08 0.0004649696929845959 3.090165279218127e-08 -3.412275795255937e-09 3.090165279218127e-08 0.00046477426076307893" pbc="T T T"
Ag       1.60481325       1.13477453       2.77961808      -0.00000169       0.00000063      -0.00000125
Ag       4.81443966       3.40432261       8.33885465      -0.00000072      -0.00000003      -0.00000151
Pt       0.00000004       0.00000017      -0.00000005      -0.00000039      -0.00000397      -0.00000777
O        1.56306377       1.10525334       5.55923693      -0.00170785      -0.00120744       0.00000016
O        4.85618965       3.43384333       5.55923691       0.00171131       0.00120902      -0.00000041
O        4.03290791       1.10525283       4.13327177       0.00085208      -0.00120702      -0.00147825
O        2.38634603       3.43384341       6.98520173      -0.00085601       0.00121224       0.00148529
O        2.38634558       3.43384421       4.13327178      -0.00085258       0.00120831      -0.00148010
O        4.03290773       1.10525351       6.98520140       0.00085628      -0.00121203       0.00148362
