9
Lattice="5.954478222684219 6.141739494007434e-07 3.4378208376107144 1.9848266387967013 5.613937692344761 3.437820862690991 5.745918927516549e-07 4.3701474243960583e-07 6.875640679999077" Properties=species:S:1:pos:R:3:forces:R:3 energy=-27.315731048583984 free_energy=-27.315731048583984 stress="2.7146137654199265e-05 -7.31520870544955e-08 -1.2666583870668546e-07 -7.31520870544955e-08 2.6736006475402974e-05 -8.862526357233946e-08 -1.2666583870668546e-07 -8.862526357233946e-08 2.6753254132927395e-05" pbc="T T T"
Ag       1.98482632       1.40348429       3.43782070       0.00000101      -0.00000058       0.00000066
Ag       5.95447877       4.21045403      10.31346129      -0.00000114       0.00000082      -0.00000090
Pb       0.00000006       0.00000042       0.00000037      -0.00000015      -0.00000327      -0.00000191
Se       2.39265516       1.69186047       6.87563957       0.00122437       0.00085533      -0.00000824
Se       5.54665016       3.92207799       6.87564311      -0.00122340      -0.00085386       0.00000436
Se       4.75814927       1.69186017       5.50991885      -0.00062446       0.00085863       0.00105588
Se       3.18115590       3.92207656       8.24136347       0.00061680      -0.00086060      -0.00105309
Se       3.18115433       3.92207703       5.50991863       0.00061687      -0.00086269       0.00105518
Se       4.75815180       1.69186402       8.24136355      -0.00060985       0.00086614      -0.00105189
