9
Lattice="4.963875547226863 -1.0140448880014288e-07 2.865894932989512 1.6546250796852937 4.67998690726922 2.865894945319149 -5.828157153870278e-09 1.0979537042520402e-08 5.731789876073693" Properties=species:S:1:pos:R:3:forces:R:3 energy=-37.036766052246094 free_energy=-37.036766052246094 stress="2.229242682005861e-06 -1.729788294824175e-07 5.748087161805415e-08 -1.729788294824175e-07 2.3847173906688113e-06 -5.782981915558594e-08 5.748087161805415e-08 -5.782981915558594e-08 2.5109084162977524e-06" pbc="T T T"
Ag       1.65462493       1.16999654       2.86589470       0.00000034      -0.00000022       0.00000013
Ag       4.96387540       3.50999030       8.59768457       0.00000081      -0.00000088       0.00000016
Pd       0.00000105      -0.00000067       0.00000012      -0.00009894       0.00008553      -0.00000940
O        1.49793352       1.05919927       5.73178981       0.00031602       0.00022587       0.00000001
O        5.12056719       3.62078735       5.73178983      -0.00029236      -0.00020239       0.00000011
O        4.21490856       1.05919959       4.16314428      -0.00012967       0.00018108       0.00021940
O        2.40359203       3.62078776       7.30043670       0.00016379      -0.00023088      -0.00028694
O        2.40359172       3.62078778       4.16314373       0.00016382      -0.00023118       0.00028694
O        4.21490808       1.05919949       7.30043535      -0.00012404       0.00017288      -0.00021029
