9
Lattice="5.688238488403661 -6.06769870000243e-08 3.2841058075741807 1.8960794718188396 5.362921944208299 3.2841057506051285 -1.4506081465803196e-07 -1.7234604688688189e-07 6.5682118664010805" Properties=species:S:1:pos:R:3:forces:R:3 energy=-31.612232208251953 free_energy=-31.612232208251953 stress="-9.179964399663731e-05 -1.1733753524367785e-08 8.295844011740883e-09 -1.1733753524367785e-08 -9.18245132197626e-05 -3.5661653630114643e-09 8.295844011740883e-09 -3.5661653630114643e-09 -9.179285552818328e-05" pbc="T T T"
Ag       1.89607940       1.34073042       3.28410581       0.00000038      -0.00000020       0.00000050
Ag       5.68823807       4.02219112       9.85231773      -0.00000080      -0.00000025       0.00000087
P       -0.00000056       0.00000013      -0.00000036       0.00000645       0.00000081      -0.00000566
S        1.77075034       1.25210891       6.56821163      -0.00083494      -0.00058913      -0.00000079
S        5.81356767       4.11081281       6.56821156       0.00083053       0.00058651      -0.00000052
S        4.80286340       1.25210888       4.81762048       0.00041503      -0.00058639      -0.00071847
S        2.78145482       4.11081264       8.31880318      -0.00041807       0.00059086       0.00072336
S        2.78145476       4.11081312       4.81762045      -0.00041515       0.00058734      -0.00072014
S        4.80286332       1.25210900       8.31880299       0.00041616      -0.00058919       0.00072098
