9
Lattice="5.46090964845346 -2.101807693639785e-07 3.1528578884935974 1.8203030824843298 5.148594954147788 3.152857776787457 -1.5546438897004827e-09 -1.3791075500065881e-07 6.305715779679942" Properties=species:S:1:pos:R:3:forces:R:3 energy=-32.580421447753906 free_energy=-32.580421447753906 stress="0.00045098064583726227 -4.138883014093153e-08 1.2478397870552271e-08 -4.138883014093153e-08 0.00045098114060238004 -5.419231996484086e-08 1.2478397870552271e-08 -5.419231996484086e-08 0.0004510419676080346" pbc="T T T"
Ag       1.82030330       1.28714904       3.15285784       0.00000018      -0.00000002       0.00000002
Ag       5.46090925       3.86144596       9.45857316      -0.00000005      -0.00000008      -0.00000034
Pt       0.00000030      -0.00000004      -0.00000068      -0.00000305      -0.00000021       0.00000710
S        1.88188396       1.33069253       6.30571569      -0.00043225      -0.00030577      -0.00000070
S        5.39932896       3.81790188       6.30571589       0.00043172       0.00030643      -0.00000088
S        4.51996749       1.33069251       4.78261716       0.00021756      -0.00030661      -0.00037691
S        2.76124496       3.81790159       7.82881457      -0.00021523       0.00030580       0.00037315
S        2.76124532       3.81790187       4.78261797      -0.00021741       0.00030914      -0.00037777
S        4.51996745       1.33069294       7.82881393       0.00021845      -0.00030881       0.00037673
