9
Lattice="6.594460717783005 -2.583593295170438e-07 3.807313594785169 2.198153306693086 6.217317288917012 3.807313633440615 5.774953683816562e-09 5.1426573875486313e-08 7.614627179567803" Properties=species:S:1:pos:R:3:forces:R:3 energy=-24.651180267333984 free_energy=-24.651180267333984 stress="-7.165915576479165e-06 1.4030025141664737e-08 -7.0181727096496616e-09 1.4030025141664737e-08 -7.188696145021822e-06 -1.1629414764513513e-08 -7.0181727096496616e-09 -1.1629414764513513e-08 -7.132426617317833e-06" pbc="T T T"
Ag       2.19815343       1.55432903       3.80731380      -0.00000153      -0.00000156       0.00000100
Ag       6.59446081       4.66298797      11.42194019       0.00000157       0.00000115      -0.00000143
Pb       0.00000022      -0.00000030      -0.00000090       0.00000002       0.00000124       0.00000224
Te       2.53917422       1.79546688       7.61462699      -0.00026406      -0.00018800      -0.00000014
Te       6.25343941       4.42184969       7.61462786       0.00026496       0.00018817       0.00000215
Te       5.32487334       1.79546747       6.00630391       0.00013320      -0.00019023      -0.00022933
Te       3.46774008       4.42185151       9.22295131      -0.00013274       0.00018954       0.00022662
Te       3.46774028       4.42184949       6.00630380      -0.00013502       0.00018882      -0.00022884
Te       5.32487431       1.79546654       9.22295060       0.00013362      -0.00018916       0.00022776
