9
Lattice="5.728825512759194 -8.354441184208297e-08 3.3075389868047123 1.909608441503141 5.401187967399364 3.3075389590632542 -7.031224240155331e-08 -8.369440137193216e-08 6.615078095393806" Properties=species:S:1:pos:R:3:forces:R:3 energy=-29.691585540771484 free_energy=-29.691585540771484 stress="-7.2771090344758704e-06 -9.160460834323203e-09 1.3671461296382859e-08 -9.160460834323203e-09 -7.2386055762763135e-06 -1.8291158809802255e-08 1.3671461296382859e-08 -1.8291158809802255e-08 -7.251182978507131e-06" pbc="T T T"
Ag       1.90960853       1.35029673       3.30753899      -0.00000017       0.00000065       0.00000006
Ag       5.72882546       4.05089100       9.92261683       0.00000033       0.00000031       0.00000012
P       -0.00000014      -0.00000043      -0.00000020      -0.00000188       0.00000947       0.00000382
Se       1.87222850       1.32386529       6.61507805       0.00049752       0.00035256       0.00000009
Se       5.76620497       4.07732273       6.61507847      -0.00050288      -0.00035414       0.00000012
Se       4.79271108       1.32386552       4.92893649      -0.00024682       0.00034985       0.00042889
Se       2.84572306       4.07732261       8.30121952       0.00025254      -0.00035581      -0.00043648
Se       2.84572266       4.07732258       4.92893676       0.00025016      -0.00035340       0.00043392
Se       4.79271127       1.32386518       8.30121920      -0.00024858       0.00035048      -0.00043085
