9
Lattice="5.458136406558257 1.1065333350414126e-07 3.1512565231862695 1.8193788815663434 5.145980268101406 3.151256566391759 -2.9233039940523676e-08 3.224480999660195e-08 6.30251309700564" Properties=species:S:1:pos:R:3:forces:R:3 energy=-32.580467224121094 free_energy=-32.580467224121094 stress="-4.394804636831395e-05 6.8429391042457155e-09 1.5408971876240685e-09 6.8429391042457155e-09 -4.391714173834771e-05 -1.96326488399734e-09 1.5408971876240685e-09 -1.96326488399734e-09 -4.3915406422456726e-05" pbc="T T T"
Ag       1.81937886       1.28649497       3.15125659       0.00000017      -0.00000015      -0.00000002
Ag       5.45813642       3.85948518       9.45376944       0.00000035      -0.00000008       0.00000006
Pt      -0.00000008       0.00000010       0.00000019       0.00000030       0.00000238       0.00000008
S        1.88152336       1.33043815       6.30251320      -0.00249887      -0.00176623      -0.00000004
S        5.39599213       3.81554274       6.30251312       0.00249749       0.00176567      -0.00000018
S        4.51737468       1.33043793       4.78070336       0.00124890      -0.00176674      -0.00216416
S        2.76014053       3.81554239       7.82432263      -0.00124854       0.00176626       0.00216386
S        2.76014046       3.81554235       4.78070343      -0.00124878       0.00176620      -0.00216383
S        4.51737471       1.33043786       7.82432277       0.00124884      -0.00176701       0.00216404
