9
Lattice="5.539007758263766 4.110991628929365e-08 3.1979475905036256 1.846335943896526 5.222226740515168 3.197947615243417 -4.665310681570621e-08 -2.688760245064697e-09 6.395895261812715" Properties=species:S:1:pos:R:3:forces:R:3 energy=-30.57317352294922 free_energy=-30.57317352294922 stress="0.00016928871627897024 -1.4712516538395448e-08 2.369748841601904e-08 -1.4712516538395448e-08 0.0001692680671112612 -2.982704361276234e-10 2.369748841601904e-08 -2.982704361276234e-10 0.00016926271200645715" pbc="T T T"
Ag       1.84633606       1.30555716       3.19794738       0.00000013       0.00000165      -0.00000048
Ag       5.53900743       3.91667011       9.59384276      -0.00000019       0.00000028      -0.00000022
Pd       0.00000015       0.00000054       0.00000020      -0.00000272      -0.00000909      -0.00000496
S        1.93733976       1.36990604       6.39589531      -0.00019211      -0.00013435       0.00000011
S        5.44800313       3.85231976       6.39589505       0.00019628       0.00013739      -0.00000042
S        4.57033797       1.36990594       4.87573271       0.00009528      -0.00013506      -0.00016600
S        2.81500600       3.85232005       7.91605750      -0.00009775       0.00013691       0.00017005
S        2.81500639       3.85232057       4.87573304      -0.00009578       0.00013751      -0.00016725
S        4.57033766       1.36990714       7.91605770       0.00009710      -0.00013518       0.00016928
