9
Lattice="5.638417162799911 1.835673000760484e-08 3.255341811769118 1.8794723966801987 5.315950450404535 3.255341826018053 1.2456687310231374e-07 1.0553341248483232e-07 6.510683407782098" Properties=species:S:1:pos:R:3:forces:R:3 energy=-29.739973068237305 free_energy=-29.739973068237305 stress="4.0999133489094675e-05 -1.2445218189327534e-08 -2.9528324674288342e-08 -1.2445218189327534e-08 4.104359322809614e-05 -9.26037024839843e-09 -2.9528324674288342e-08 -9.26037024839843e-09 4.096009797649458e-05" pbc="T T T"
Ag       1.87947221       1.32898787       3.25534188       0.00000023      -0.00000012       0.00000010
Ag       5.63841766       3.98696255       9.76602499       0.00000035      -0.00000006      -0.00000004
Pd       0.00000002       0.00000035       0.00000047      -0.00000043      -0.00000046      -0.00000134
Se       2.13237799       1.50781938       6.51068353       0.00899427       0.00636062       0.00000045
Se       5.38551164       3.80813117       6.51068396      -0.00899389      -0.00636023       0.00000046
Se       4.57222795       1.50781896       5.10203500      -0.00449750       0.00636019       0.00778878
Se       2.94566176       3.80813139       7.91933135       0.00449695      -0.00635968      -0.00778897
Se       2.94566128       3.80813137       5.10203515       0.00449704      -0.00636010       0.00778897
Se       4.57222833       1.50781930       7.91933205      -0.00449703       0.00635986      -0.00778835
