9
Lattice="5.755710508414955 -1.668747534710716e-07 3.323060976032064 1.918570097616522 5.426535242112954 3.3230608279833915 -1.2532117094850892e-07 -2.699372478232223e-07 6.6461221691267625" Properties=species:S:1:pos:R:3:forces:R:3 energy=-26.92535400390625 free_energy=-26.92535400390625 stress="-1.918689849844668e-05 -1.1212169859220467e-08 4.4731422121913056e-08 -1.1212169859220467e-08 -1.9060029444517568e-05 3.680061055888473e-08 4.4731422121913056e-08 3.680061055888473e-08 -1.923257514135912e-05" pbc="T T T"
Ag       1.91856999       1.35663416       3.32306070       0.00000012       0.00000065      -0.00000055
Ag       5.75571040       4.06990095       9.96918298      -0.00000008      -0.00000042       0.00000050
Pb       0.00000019      -0.00000018       0.00000053      -0.00000310       0.00000172      -0.00000428
S        2.14442622       1.51633893       6.64612223       0.00154118       0.00109292      -0.00000050
S        5.52985395       3.91019609       6.64612142      -0.00154021      -0.00108884      -0.00000313
S        4.68349762       1.51633795       5.18018892      -0.00076906       0.00108988       0.00133535
S        2.99078345       3.91019588       8.11205539       0.00077055      -0.00109246      -0.00133169
S        2.99078349       3.91019679       5.18018840       0.00077120      -0.00109154       0.00133372
S        4.68349665       1.51633864       8.11205534      -0.00077059       0.00108812      -0.00132950
