9
Lattice="4.824422727025484 -6.433412787031571e-08 2.7853816583140283 1.6081408389601612 4.548509428376306 2.785381674584053 -4.8267772846198335e-08 -1.4203829901090776e-08 5.57076340023027" Properties=species:S:1:pos:R:3:forces:R:3 energy=-50.59728240966797 free_energy=-50.59728240966797 stress="-1.1195808838238008e-05 -1.5802250175056543e-08 -7.719728500887868e-08 -1.5802250175056543e-08 -1.1086463018727954e-05 1.0804415495613284e-07 -7.719728500887868e-08 1.0804415495613284e-07 -1.0938828381767962e-05" pbc="T T T"
Ag       1.60814089       1.13712738       2.78538195       0.00000000       0.00000031       0.00000076
Ag       4.82442298       3.41138218       8.35614529       0.00000041      -0.00000002      -0.00000055
Re      -0.00000039      -0.00000044       0.00000018       0.00000485       0.00000639       0.00000608
O        1.55403145       1.09886563       5.57076306       0.00003123       0.00002182       0.00000293
O        4.87853328       3.44964386       5.57076313      -0.00004625      -0.00003135      -0.00000013
O        4.04740690       1.09886633       4.13121260      -0.00000942       0.00001895       0.00001979
O        2.38515598       3.44964384       7.01031459       0.00002074      -0.00002599      -0.00002956
O        2.38515572       3.44964314       4.13121205       0.00002003      -0.00002313       0.00003135
O        4.04740746       1.09886547       7.01031497      -0.00002086       0.00003207      -0.00003266
