9
Lattice="4.89070604592841 5.42034283446579e-07 2.8236504528831055 1.6302355576548966 4.611003194413257 2.8236509760018627 -1.4629469901199557e-07 5.372409850284526e-07 5.647301159155954" Properties=species:S:1:pos:R:3:forces:R:3 energy=-39.0982551574707 free_energy=-39.0982551574707 stress="-0.00018445690511725843 3.8964326876111954e-08 -6.232973248643248e-08 3.8964326876111954e-08 -0.00018444132001604885 3.555479466399447e-08 -6.232973248643248e-08 3.555479466399447e-08 -0.00018448209448251873" pbc="T T T"
Ag       1.63023609       1.15275090       2.82365043       0.00000316      -0.00000063      -0.00000044
Ag       4.89070587       3.45825305       8.47095202       0.00000032      -0.00000115      -0.00000052
Rh       0.00000030      -0.00000029      -0.00000010      -0.00000048       0.00000761       0.00001227
O        1.56355044       1.10559860       5.64730108       0.00327224       0.00231588       0.00000138
O        4.95739110       3.50540670       5.64730162      -0.00327849      -0.00231737       0.00000137
O        4.10892970       1.10559848       4.17772561      -0.00163376       0.00230950       0.00282973
O        2.41201121       3.50540655       7.11687739       0.00164232      -0.00232041      -0.00284225
O        2.41201078       3.50540602       4.17772465       0.00163797      -0.00231540       0.00283891
O        4.10892990       1.10559774       7.11687856      -0.00164276       0.00232172      -0.00284028
