9
Lattice="5.396997428880608 -6.75665441878294e-08 3.115957856228054 1.79899913589064 5.088337682374803 3.115957758137194 3.467953023546057e-08 -9.561418338171888e-08 6.231915652389352" Properties=species:S:1:pos:R:3:forces:R:3 energy=-34.072208404541016 free_energy=-34.072208404541016 stress="4.8104411689564586e-05 -2.752654637561136e-08 1.6938761504547983e-08 -2.752654637561136e-08 4.8113644879776984e-05 -3.4455261754828825e-08 1.6938761504547983e-08 -3.4455261754828825e-08 4.813376654055901e-05" pbc="T T T"
Ag       1.79899903       1.27208431       3.11595767       0.00000012       0.00000100      -0.00000055
Ag       5.39699772       3.81625291       9.34787324       0.00000093      -0.00000008      -0.00000029
Rh       0.00000056       0.00000074      -0.00000031      -0.00000273      -0.00000308       0.00000110
S        1.88579783       1.33345956       6.23191563       0.00098985       0.00069931      -0.00000059
S        5.31019976       3.75487685       6.23191551      -0.00098681      -0.00069997      -0.00000058
S        4.45409827       1.33345989       4.74910664      -0.00049502       0.00069994       0.00085518
S        2.74189748       3.75487725       7.71472497       0.00049451      -0.00069940      -0.00085726
S        2.74189754       3.75487768       4.74910667       0.00049251      -0.00069615       0.00085598
S        4.45409820       1.33346070       7.71472506      -0.00049341       0.00069863      -0.00085303
