9
Lattice="5.573228016180799 3.1545252024241434e-07 3.2177042012485138 1.857742976548274 5.254489199399506 3.2177041889915 -2.8028306816223755e-08 -3.4830681583628084e-08 6.435408451043507" Properties=species:S:1:pos:R:3:forces:R:3 energy=-32.41938781738281 free_energy=-32.41938781738281 stress="0.00017457149806432426 -1.3029025858202203e-08 -7.035196869509264e-09 -1.3029025858202203e-08 0.0001746479538269341 4.57197257830444e-09 -7.035196869509264e-09 4.57197257830444e-09 0.000174615066498518" pbc="T T T"
Ag       1.85774268       1.31362251       3.21770396       0.00000042       0.00000007       0.00000001
Ag       5.57322820       3.94086702       9.65311263       0.00000016       0.00000027      -0.00000048
Rh      -0.00000016      -0.00000019      -0.00000149      -0.00000039      -0.00000011       0.00000892
Se       2.06796878       1.46227467       6.43540925       0.00000471       0.00000263      -0.00000334
Se       5.36300199       3.79221456       6.43540940      -0.00000371      -0.00000274      -0.00000252
Se       4.53924478       1.46227414       5.00861772      -0.00000305       0.00000422       0.00000424
Se       2.89172837       3.79221220       7.86219892       0.00000133      -0.00000444      -0.00000535
Se       2.89172707       3.79221574       5.00861792       0.00000297      -0.00000337       0.00000358
Se       4.53924226       1.46227726       7.86219894      -0.00000246       0.00000345      -0.00000498
