9
Lattice="5.350957311965985 -3.979429830934144e-08 3.089376563626633 1.7836523935524138 5.044931208550198 3.0893765744539454 -1.84377599979863e-07 -1.1711392487941608e-07 6.178753446604572" Properties=species:S:1:pos:R:3:forces:R:3 energy=-35.761714935302734 free_energy=-35.761714935302734 stress="0.0001779165177140385 -2.0919657117701718e-08 2.2582080205779675e-08 -2.0919657117701718e-08 0.00017783805378712714 4.353009330770874e-08 2.2582080205779675e-08 4.353009330770874e-08 0.00017794035375118256" pbc="T T T"
Ag       1.78365331       1.26123229       3.08937511       0.00001655      -0.00001111      -0.00002795
Ag       5.35095812       3.78369788       9.26812889       0.00001673      -0.00001140      -0.00002757
Ru       0.00001650      -0.00001162      -0.00002856       0.00012824      -0.00008952      -0.00022059
S        1.88812646       1.33510846       6.17875631      -0.00189745      -0.00131357       0.00003391
S        5.24647711       3.70982204       6.17875497       0.00184274       0.00133151       0.00003164
S        4.40688685       1.33511549       4.72455445       0.00089842      -0.00128531      -0.00155628
S        2.72771177       3.70982817       7.63297069      -0.00097376       0.00136256       0.00168383
S        2.72771659       3.70982233       4.72454891      -0.00095069       0.00133106      -0.00157845
S        4.40689156       1.33510924       7.63296566       0.00091887      -0.00131398       0.00166118
