9
Lattice="5.598510573721015 -3.83149477054525e-07 3.232302137013563 1.8661698047871484 5.278326108316361 3.232302180689708 3.9336530112510797e-07 3.316434204970326e-07 6.464603592698373" Properties=species:S:1:pos:R:3:forces:R:3 energy=-34.022335052490234 free_energy=-34.022335052490234 stress="0.00016729661729186773 3.6541141640311636e-11 -6.420832932008125e-08 3.6541141640311636e-11 0.00016739651618991047 -1.6151020076904388e-08 -6.420832932008125e-08 -1.6151020076904388e-08 0.00016736204270273447" pbc="T T T"
Ag       1.86616986       1.31958154       3.23230199      -0.00000015      -0.00000020       0.00000019
Ag       5.59851072       3.95874426       9.69690558       0.00000013      -0.00000017      -0.00000046
Ru      -0.00000045      -0.00000022       0.00000081       0.00000064       0.00000011      -0.00000295
Se       2.03624230       1.43984102       6.46460277       0.00030013       0.00021317      -0.00000130
Se       5.42843848       3.83848467       6.46460399      -0.00030010      -0.00021353       0.00000019
Se       4.58038931       1.43984017       4.99574023      -0.00014924       0.00021049       0.00025893
Se       2.88429218       3.83848534       7.93346794       0.00014954      -0.00021050      -0.00025792
Se       2.88429070       3.83848562       4.99574027       0.00014811      -0.00021245       0.00026164
Se       4.58039003       1.43984181       7.93346811      -0.00014901       0.00021313      -0.00025833
