9
Lattice="4.8579642911943175 -2.143342140082864e-08 2.804746757858474 1.619321414869771 4.580133557272077 2.8047467497537144 1.0591616997693866e-07 6.4967759606365e-08 5.6094933322648615" Properties=species:S:1:pos:R:3:forces:R:3 energy=-44.20932388305664 free_energy=-44.20932388305664 stress="-0.00022018527670297772 -2.8502821436404702e-08 -3.054106301192405e-08 -2.8502821436404702e-08 -0.0002201361785409972 5.5997190884227166e-08 -3.054106301192405e-08 5.5997190884227166e-08 -0.0002202784817200154" pbc="T T T"
Ag       1.61932112       1.14503308       2.80474686      -0.00000016       0.00000035       0.00000255
Ag       4.85796435       3.43510047       8.41424051      -0.00000065      -0.00000112       0.00000247
Ru      -0.00000111      -0.00000076       0.00000664       0.00004804       0.00003029      -0.00026818
O        1.49341625       1.05600490       5.60949359       0.00078167       0.00054871      -0.00002226
O        4.98387170       3.52412980       5.60949361      -0.00084253      -0.00059274      -0.00002210
O        4.11125845       1.05600280       4.09808028      -0.00045692       0.00065325       0.00077748
O        2.36603028       3.52412593       7.12090265       0.00035025      -0.00048588      -0.00062270
O        2.36602696       3.52413076       4.09808002       0.00046557      -0.00064795       0.00078017
O        4.11125552       1.05600729       7.12090291      -0.00034505       0.00049515      -0.00062719
