9
Lattice="6.196188202899154 -4.6205770274741883e-07 3.5773707272800297 2.065395793990606 5.841820770055418 3.5773704467052982 7.244687278220269e-08 -2.9240452185374133e-07 7.154741329078488" Properties=species:S:1:pos:R:3:forces:R:3 energy=-34.432987213134766 free_energy=-34.432987213134766 stress="3.584868409234332e-06 -1.6505678956946213e-07 8.134647089264035e-08 -1.6505678956946213e-07 3.6967092000850243e-06 -8.75758914276048e-08 8.134647089264035e-08 -8.75758914276048e-08 3.832694346783683e-06" pbc="T T T"
Ag       2.06539752       1.46045504       3.57737000       0.00000094      -0.00000038      -0.00000033
Ag       6.19618834       4.38136602      10.73211240       0.00000032       0.00000193       0.00000108
Re      -0.00000567      -0.00000003       0.00000339       0.00007366       0.00000069      -0.00004293
Te       2.16519055       1.53101908       7.15474160      -0.00129069      -0.00091252       0.00000017
Te       6.09639757       4.31080370       7.15474115       0.00123632       0.00087261       0.00000103
Te       5.11359417       1.53101706       5.45247736       0.00062492      -0.00088070      -0.00108130
Te       3.14799038       4.31080001       8.85700174      -0.00064894       0.00091824       0.00112562
Te       3.14799108       4.31080053       5.45247972      -0.00064034       0.00090687      -0.00111435
Te       5.11359241       1.53101823       8.85700268       0.00064378      -0.00090668       0.00111099
