9
Lattice="5.816172037402647 -6.216508868170902e-08 3.357968485122635 1.9387240297215012 5.48353921864545 3.357968353722757 7.534633854629594e-08 -1.0765334000824254e-07 6.715936839741489" Properties=species:S:1:pos:R:3:forces:R:3 energy=-37.51585006713867 free_energy=-37.51585006713867 stress="-3.408663906157017e-05 -1.8079538977033849e-09 -1.4744576226632944e-08 -1.8079538977033849e-09 -3.4087115636793897e-05 -1.3429655609797919e-08 -1.4744576226632944e-08 -1.3429655609797919e-08 -3.411510624573566e-05" pbc="T T T"
Ag       1.93872415       1.37088492       3.35796839       0.00000013      -0.00000025       0.00000052
Ag       5.81617233       4.11265422      10.07390552      -0.00000031       0.00000021      -0.00000014
Re       0.00000007       0.00000018       0.00000017       0.00000074      -0.00000013       0.00000093
Se       2.01001261       1.42129317       6.71593728      -0.00037506      -0.00026432       0.00000058
Se       5.74488401       4.06224581       6.71593693       0.00037336       0.00026408      -0.00000058
Se       4.81116536       1.42129328       5.09869002       0.00018747      -0.00026506      -0.00032422
Se       2.94373002       4.06224591       8.33318322      -0.00018699       0.00026369       0.00032341
Se       2.94373013       4.06224558       5.09868998      -0.00018688       0.00026512      -0.00032362
Se       4.81116585       1.42129299       8.33318321       0.00018738      -0.00026339       0.00032353
