9
Lattice="5.470722397836092 1.8212922563220543e-07 3.158523330378043 1.8235742973480231 5.157846078983053 3.1585233424627526 2.4935830542697316e-07 1.9112356932272973e-07 6.317046228854878" Properties=species:S:1:pos:R:3:forces:R:3 energy=-40.47327423095703 free_energy=-40.47327423095703 stress="-0.00024960757582448423 2.8752930703035418e-08 -1.5340575032496417e-08 2.8752930703035418e-08 -0.0002495963708497584 -1.3843651558431702e-08 -1.5340575032496417e-08 -1.3843651558431702e-08 -0.0002497063542250544" pbc="T T T"
Ag       1.82357431       1.28946173       3.15852323       0.00000085       0.00000032       0.00000012
Ag       5.47072255       3.86838480       9.47556955       0.00000106       0.00000043       0.00000051
Re       0.00000088       0.00000004       0.00000031      -0.00000295       0.00000086      -0.00000240
S        1.90005311       1.34353998       6.31704637       0.00199562       0.00141245      -0.00000052
S        5.39424255       3.81430558       6.31704670      -0.00199288      -0.00140804       0.00000033
S        4.52069612       1.34354043       4.80401747      -0.00099912       0.00141025       0.00172734
S        2.77360131       3.81430618       7.83007554       0.00099733      -0.00141239      -0.00172848
S        2.77360072       3.81430656       4.80401723       0.00099787      -0.00141305       0.00173002
S        4.52069610       1.34354082       7.83007531      -0.00099814       0.00140935      -0.00172698
