9
Lattice="4.754038625965017 1.7060114762544842e-06 2.7447431530742934 1.5846807257187538 4.482150488775675 2.7447438886979474 -4.15884853721528e-07 6.068764546116643e-07 5.489487026482053" Properties=species:S:1:pos:R:3:forces:R:3 energy=-35.41045379638672 free_energy=-35.41045379638672 stress="-2.7301772206556052e-05 -1.6232737607424497e-06 4.643581235086458e-07 -1.6232737607424497e-06 -2.616872006910853e-05 -6.471447591138713e-07 4.643581235086458e-07 -6.471447591138713e-07 -2.524986666685436e-05" pbc="T T T"
Ag       1.58468071       1.12053771       2.74474371       0.00002695      -0.00000683      -0.00000818
Ag       4.75403990       3.36161488       8.23423053       0.00002521      -0.00000622      -0.00000840
Se       0.00002878      -0.00000735      -0.00001061       0.00078435      -0.00019690      -0.00028623
O        1.52393054       1.07758808       5.48948936       0.00041962       0.00042021       0.00004922
O        4.81477606       3.40456648       5.48948956      -0.00071335      -0.00038230       0.00004869
O        3.99206824       1.07758478       4.06450615      -0.00039279       0.00040686       0.00050354
O        2.34664040       3.40457296       6.91447188       0.00011480      -0.00030839      -0.00037217
O        2.34663860       3.40457400       4.06450183       0.00010228      -0.00029349       0.00044239
O        3.99207138       1.07757987       6.91447476      -0.00036716       0.00036812      -0.00036991
