9
Lattice="4.660729996826197 -5.7718044346609424e-08 2.6908737239108445 1.5535765980313208 4.394178379492524 2.6908737467051718 -8.304203680718473e-08 -3.0802358815270405e-08 5.381747591654717" Properties=species:S:1:pos:R:3:forces:R:3 energy=-36.61237335205078 free_energy=-36.61237335205078 stress="-4.334704499342479e-05 1.4333512154962591e-08 7.760527331868161e-09 1.4333512154962591e-08 -4.3400686990935355e-05 5.561389215813506e-08 7.760527331868161e-09 5.561389215813506e-08 -4.3410167563706636e-05" pbc="T T T"
Ag       1.55357672       1.09854423       2.69087376      -0.00000033      -0.00000087       0.00000065
Ag       4.66073003       3.29563380       8.07262096       0.00000042       0.00000013      -0.00000078
Sn      -0.00000003      -0.00000022       0.00000004      -0.00000051       0.00000246      -0.00000032
O        1.70416019       1.20502352       5.38174742       0.00415105       0.00293654      -0.00000073
O        4.51014622       3.18915496       5.38174763      -0.00415093      -0.00293589       0.00000052
O        3.80864960       1.20502345       4.16672021      -0.00207564       0.00293422       0.00359511
O        2.40565676       3.18915509       6.59677513       0.00207540      -0.00293499      -0.00359482
O        2.40565674       3.18915504       4.16672000       0.00207695      -0.00293571       0.00359488
O        3.80864965       1.20502323       6.59677512      -0.00207686       0.00293428      -0.00359440
