9
Lattice="6.404594111101643 7.950450058048556e-08 3.6976942414160296 2.1348647789424424 6.038309353363761 3.697694240923524 -6.039676302560777e-10 -1.0302670310139894e-09 7.395388483878132" Properties=species:S:1:pos:R:3:forces:R:3 energy=-25.550281524658203 free_energy=-25.550281524658203 stress="0.0001458765909774229 4.175971124453781e-09 5.366358912795022e-09 4.175971124453781e-09 0.00014585968165192753 -1.2639883806286889e-08 5.366358912795022e-09 -1.2639883806286889e-08 0.00014584342716261744" pbc="T T T"
Ag       2.13486469       1.50957718       3.69769429       0.00000005      -0.00000029       0.00000001
Ag       6.40459393       4.52873212      11.09308273      -0.00000017       0.00000016      -0.00000042
Sn       0.00000017      -0.00000006      -0.00000010      -0.00000092       0.00000003       0.00000240
Te       2.35813681       1.66745427       7.39538853      -0.00209518      -0.00148211      -0.00000005
Te       6.18132212       4.37085490       7.39538842       0.00209570       0.00148213       0.00000047
Te       5.22552566       1.66745465       5.73990042       0.00104735      -0.00148197      -0.00181504
Te       3.31393300       4.37085519       9.05087648      -0.00104650       0.00148095       0.00181288
Te       3.31393333       4.37085485       5.73990049      -0.00104753       0.00148225      -0.00181471
Te       5.22552587       1.66745462       9.05087656       0.00104713      -0.00148115       0.00181453
