9
Lattice="5.796194714446228 2.0755077646967376e-08 3.346434645478706 1.9320649672915888 5.4647045939510805 3.346434571159752 1.4666929317316727e-08 -8.065074504841323e-08 6.692869265553594" Properties=species:S:1:pos:R:3:forces:R:3 energy=-29.379051208496094 free_energy=-29.379051208496094 stress="-9.717622015159577e-05 -1.0523264037942681e-08 3.2111768799580886e-10 -1.0523264037942681e-08 -9.719642548589036e-05 -5.751508602713784e-09 3.2111768799580886e-10 -5.751508602713784e-09 -9.721884998725727e-05" pbc="T T T"
Ag       1.93206485       1.36617611       3.34643463       0.00000022       0.00000001       0.00000019
Ag       5.79619476       4.09852842      10.03930406      -0.00000046      -0.00000003      -0.00000007
Si       0.00000022       0.00000024       0.00000009      -0.00000078      -0.00000078      -0.00000278
Se       1.96555106       1.38985435       6.69286921       0.00745516       0.00527129      -0.00000077
Se       5.76270845       4.07484989       6.69286913      -0.00745367      -0.00527055      -0.00000057
Se       4.81341951       1.38985412       5.04865181      -0.00372826       0.00527076       0.00645677
Se       2.91484059       4.07484999       8.33708640       0.00372685      -0.00527085      -0.00645471
Se       2.91484021       4.07485046       5.04865183       0.00372764      -0.00527047       0.00645614
Se       4.81341909       1.38985454       8.33708678      -0.00372672       0.00527061      -0.00645421
