9
Lattice="5.6634057171391605 7.830449790176872e-09 3.2697689815174895 1.8878018963444785 5.3395100349309965 3.2697690105313786 1.9462045418363096e-08 4.929637314146788e-08 6.539537929325768" Properties=species:S:1:pos:R:3:forces:R:3 energy=-32.6356086730957 free_energy=-32.6356086730957 stress="-1.2211515240778681e-05 4.898861760693762e-09 -1.4138215931325249e-08 4.898861760693762e-09 -1.2223531484778505e-05 -3.520720426308799e-08 -1.4138215931325249e-08 -3.520720426308799e-08 -1.2255245565029327e-05" pbc="T T T"
Ag       1.88780184       1.33487743       3.26976890       0.00000018      -0.00000002       0.00000021
Ag       5.66340597       4.00463259       9.80930707       0.00000051      -0.00000030      -0.00000007
Sc      -0.00000011      -0.00000018       0.00000046      -0.00000031       0.00000218      -0.00000320
S        2.05755884       1.45491406       6.53953753      -0.00127083      -0.00090002       0.00000212
S        5.49364864       3.88459610       6.53953785       0.00127058       0.00089919       0.00000010
S        4.63462614       1.45491388       5.05166742       0.00063536      -0.00089864      -0.00109983
S        2.91658140       3.88459638       8.02740845      -0.00063600       0.00089923       0.00110183
S        2.91658142       3.88459601       5.05166769      -0.00063479       0.00089834      -0.00110105
S        4.63462640       1.45491415       8.02740833       0.00063532      -0.00089997       0.00109994
