9
Lattice="5.730169284198539 1.3216108641061294e-07 3.3083146964541923 1.9100564191717493 5.402455331061504 3.308314927678005 8.881322033668872e-09 2.894701758259664e-07 6.616629377525479" Properties=species:S:1:pos:R:3:forces:R:3 energy=-28.53409767150879 free_energy=-28.53409767150879 stress="-2.821851558110211e-05 -7.848756311545912e-09 -2.9359526365624333e-08 -7.848756311545912e-09 -2.8208283765707165e-05 1.792654025223328e-08 -2.9359526365624333e-08 1.792654025223328e-08 -2.8185557312099263e-05" pbc="T T T"
Ag       1.91005619       1.35061391       3.30831500       0.00000000      -0.00000004       0.00000012
Ag       5.73016914       4.05184181       9.92494450       0.00000004      -0.00000007       0.00000044
Sn       0.00000001       0.00000034      -0.00000035       0.00000286      -0.00000527      -0.00000146
S        2.07392274       1.46648499       6.61662946      -0.00185187      -0.00130977       0.00000015
S        5.56630334       3.93597055       6.61662959       0.00185262       0.00130928       0.00000063
S        4.69320762       1.46648485       5.10438428       0.00092523      -0.00130799      -0.00160292
S        2.94701765       3.93597108       8.12887425      -0.00092712       0.00131205       0.00160545
S        2.94701811       3.93597049       5.10438441      -0.00092714       0.00130989      -0.00160481
S        4.69320799       1.46648506       8.12887477       0.00092559      -0.00130823       0.00160244
