9
Lattice="5.731191491426883 1.3054032840316596e-08 3.3089051894713504 1.9103971641850335 5.403419300511768 3.3089052101371648 -2.6422430669858045e-08 6.626833975910621e-09 6.617810424707747" Properties=species:S:1:pos:R:3:forces:R:3 energy=-28.53409767150879 free_energy=-28.53409767150879 stress="0.00012162681377958506 -6.347539738271735e-08 5.0318829103446205e-09 -6.347539738271735e-08 0.00012171037087682635 1.691670803438683e-08 5.0318829103446205e-09 1.691670803438683e-08 0.00012159029574831948" pbc="T T T"
Ag       1.91039734       1.35085503       3.30890537       0.00000098       0.00000070       0.00000015
Ag       5.73119154       4.05256446       9.92671613      -0.00000015       0.00000040      -0.00000031
Sn       0.00000052       0.00000010       0.00000041      -0.00000658      -0.00000239      -0.00000245
S        2.07412736       1.46662942       6.61781012      -0.00287034      -0.00203039       0.00000073
S        5.56746076       3.93678972       6.61781009       0.00287534       0.00203464      -0.00000147
S        4.69412739       1.46663022       5.10515236       0.00143706      -0.00203007      -0.00249068
S        2.94746096       3.93678901       8.13046823      -0.00143692       0.00202992       0.00249177
S        2.94746137       3.93678951       5.10515235      -0.00143444       0.00202975      -0.00249080
S        4.69412729       1.46662983       8.13046828       0.00143493      -0.00203262       0.00249301
