9
Lattice="4.660767458990869 -2.692145120403596e-07 2.6908959088915774 1.5535889905470275 4.394214041357647 2.6908957506376585 5.5932503205956285e-08 -1.5427042619320372e-07 5.381791720905312" Properties=species:S:1:pos:R:3:forces:R:3 energy=-36.61237716674805 free_energy=-36.61237716674805 stress="1.128028361563338e-05 -3.0797937533577624e-09 3.360105793603907e-08 -3.0797937533577624e-09 1.1250032002863009e-05 5.903643085503063e-08 3.360105793603907e-08 5.903643085503063e-08 1.126129791373387e-05" pbc="T T T"
Ag       1.55358973       1.09855314       2.69089645       0.00000243      -0.00000093       0.00000050
Ag       4.66076733       3.29566039       8.07268719      -0.00000082      -0.00000123      -0.00000141
Sn      -0.00000013      -0.00000094      -0.00000059       0.00000156       0.00000734       0.00000441
O        1.70433821       1.20514840       5.38179205      -0.00015593      -0.00011057      -0.00000124
O        4.51001788       3.18906501       5.38179169       0.00015575       0.00011110      -0.00000006
O        3.80859812       1.20514944       4.16689610       0.00007740      -0.00011307      -0.00013578
O        2.40575830       3.18906494       6.59668785      -0.00007877       0.00010943       0.00013369
O        2.40575787       3.18906508       4.16689588      -0.00008073       0.00010931      -0.00013435
O        3.80859837       1.20514932       6.59668757       0.00007877      -0.00011146       0.00013429
