9
Lattice="6.36359089157557 2.092042946787494e-07 3.6740207085007666 2.1211971822169318 5.999650950340039 3.6740206719220847 2.9388695074760314e-08 -2.4018632360548693e-08 7.34804136609884" Properties=species:S:1:pos:R:3:forces:R:3 energy=-30.080961227416992 free_energy=-30.080961227416992 stress="-0.000204854819457978 2.4840806744919064e-08 8.344184898589901e-09 2.4840806744919064e-08 -0.0002048909809673205 -1.2817386263463959e-08 8.344184898589901e-09 -1.2817386263463959e-08 -0.0002048976020887494" pbc="T T T"
Ag       2.12119722       1.49991218       3.67402051       0.00000054      -0.00000173      -0.00000038
Ag       6.36359094       4.49973831      11.02206190      -0.00000065      -0.00000010      -0.00000001
Sc       0.00000061       0.00000045      -0.00000118      -0.00000337      -0.00000430       0.00000775
Te       2.31259226       1.63524928       7.34804147      -0.00559460      -0.00395621      -0.00000017
Te       6.17219508       4.36440162       7.34804148       0.00559901       0.00396058      -0.00000037
Te       5.20729515       1.63524931       5.67678395       0.00279781      -0.00395648      -0.00484627
Te       3.27749270       4.36440210       9.01929955      -0.00279680       0.00395498       0.00484284
Te       3.27749329       4.36440182       5.67678405      -0.00279886       0.00395807      -0.00484790
Te       5.20729516       1.63524949       9.01929924       0.00279692      -0.00395481       0.00484440
