9
Lattice="5.783972880523438 -2.863310267669457e-07 3.339378414619385 1.9279907469304371 5.45318193926103 3.3393783163923016 1.2422355741322134e-07 -3.2463797360114685e-08 6.678756614077182" Properties=species:S:1:pos:R:3:forces:R:3 energy=-31.172590255737305 free_energy=-31.172590255737305 stress="0.00041135671199299395 1.6411588532605492e-08 -3.849200513883488e-09 1.6411588532605492e-08 0.0004113665781915188 1.6217616138902713e-09 -3.849200513883488e-09 1.6217616138902713e-09 0.00041142888949252665" pbc="T T T"
Ag       1.92799086       1.36329544       3.33937844      -0.00000018       0.00000001       0.00000018
Ag       5.78397298       4.08988630      10.01813473      -0.00000028      -0.00000036       0.00000031
Sc      -0.00000111      -0.00000048      -0.00000006       0.00000661       0.00000184       0.00000162
Se       2.17949313       1.54113382       6.67875701       0.00429863       0.00303717       0.00000252
Se       5.53247079       3.91204689       6.67875745      -0.00430004      -0.00304440       0.00000487
Se       4.69422708       1.54113367       5.22687502      -0.00214722       0.00303543       0.00372195
Se       3.01773803       3.91204716       8.13063824       0.00215085      -0.00304240      -0.00372602
Se       3.01773683       3.91204857       5.22687435       0.00214417      -0.00303341       0.00372119
Se       4.69422642       1.54113512       8.13063820      -0.00215250       0.00304614      -0.00372660
