9
Lattice="4.753664489882983 -1.2845588957716514e-07 2.7445299535248653 1.5845548456965184 4.481797819944851 2.744529716502534 1.4906752042011376e-07 -1.8488522031481142e-07 5.48905964885715" Properties=species:S:1:pos:R:3:forces:R:3 energy=-35.41044998168945 free_energy=-35.41044998168945 stress="-2.4867087631719187e-05 4.3291274209877884e-07 -2.8649841610217663e-08 4.3291274209877884e-07 -2.4978206056402996e-05 -1.211794753430695e-08 -2.8649841610217663e-08 -1.211794753430695e-08 -2.5352823286084458e-05" pbc="T T T"
Ag       1.58455389       1.12044880       2.74453171      -0.00002142      -0.00001387       0.00003835
Ag       4.75366381       3.36134754       8.23359119      -0.00002070      -0.00001432       0.00003854
Se      -0.00002286      -0.00001542       0.00004134      -0.00062571      -0.00041758       0.00112610
O        1.52401698       1.07764308       5.48905351      -0.00038743      -0.00027847      -0.00018396
O        4.81421324       3.40416189       5.48905322       0.00064754       0.00045192      -0.00018514
O        3.99166154       1.07764178       4.06435697       0.00036240      -0.00030017      -0.00063682
O        2.34656743       3.40415730       6.91374497      -0.00013077       0.00039995       0.00021887
O        2.34656481       3.40416045       4.06435681      -0.00015891       0.00043857      -0.00063860
O        3.99165964       1.07764430       6.91374647       0.00033796      -0.00026500       0.00022221
