9
Lattice="4.65752112616721 5.5495811340099616e-08 2.689021079716932 1.5525070587666019 4.391153138856526 2.6890211413972005 -8.21221153224062e-09 6.973563498208078e-08 5.378042173657841" Properties=species:S:1:pos:R:3:forces:R:3 energy=-42.049354553222656 free_energy=-42.049354553222656 stress="9.33928822632879e-05 4.71952965597211e-08 5.656617219074178e-08 4.71952965597211e-08 9.334758942713961e-05 -1.8085495767650173e-08 5.656617219074178e-08 -1.8085495767650173e-08 9.33482515392825e-05" pbc="T T T"
Ag       1.55250707       1.09778848       2.68902116       0.00000045       0.00000090       0.00000014
Ag       4.65752121       3.29336497       8.06706321       0.00000014       0.00000021       0.00000011
Sc       0.00000007       0.00000007      -0.00000017      -0.00000027       0.00000006      -0.00000046
O        1.70987023       1.20906077       5.37804234      -0.00168496      -0.00119290       0.00000046
O        4.50015791       3.18209232       5.37804221       0.00168401       0.00119114      -0.00000051
O        3.80258592       1.20906087       4.16981181       0.00084287      -0.00119191      -0.00145972
O        2.40744188       3.18209229       6.58627256      -0.00084287       0.00119153       0.00145990
O        2.40744200       3.18209240       4.16981212      -0.00084350       0.00119263      -0.00145847
O        3.80258636       1.20906095       6.58627242       0.00084361      -0.00119182       0.00145829
