9
Lattice="5.737703492652344 -4.419828741576622e-09 3.3126646974456944 1.9125678289490307 5.409558791204375 3.312664693579834 -3.6336410708440413e-09 -7.3040684448861866e-09 6.625329401185007" Properties=species:S:1:pos:R:3:forces:R:3 energy=-28.058738708496094 free_energy=-28.058738708496094 stress="0.00013188262528274208 -2.8836083743044583e-08 1.041018560243856e-08 -2.8836083743044583e-08 0.00013188732555136085 2.3347954680730254e-08 1.041018560243856e-08 2.3347954680730254e-08 0.00013188485172577202" pbc="T T T"
Ag       1.91256797       1.35238954       3.31266454       0.00000033       0.00000008      -0.00000059
Ag       5.73770330       4.05716907       9.93799411      -0.00000002       0.00000092       0.00000065
Se       0.00000007       0.00000017       0.00000009      -0.00000082      -0.00000223      -0.00000675
S        1.82647122       1.29151022       6.62532928      -0.00504142      -0.00356549      -0.00000053
S        5.82380012       4.11804858       6.62532933       0.00504327       0.00356632      -0.00000034
S        4.82446780       1.29151012       4.89443552       0.00252092      -0.00356627      -0.00436717
S        2.82580356       4.11804835       8.35622357      -0.00252420       0.00356948       0.00437218
S        2.82580349       4.11804881       4.89443520      -0.00252077       0.00356573      -0.00436723
S        4.82446784       1.29151024       8.35622353       0.00252256      -0.00356859       0.00437009
