9
Lattice="6.203709877816579 5.05275759100432e-08 3.581713425238436 2.0679032844707623 5.848914615503985 3.581713521839389 -1.3105436420220598e-07 2.5642041447305396e-08 7.1634270774698425" Properties=species:S:1:pos:R:3:forces:R:3 energy=-26.432249069213867 free_energy=-26.432249069213867 stress="-3.4219337976537645e-05 6.020478338086832e-09 -4.084507454482633e-10 6.020478338086832e-09 -3.421898145461455e-05 -2.4525956821008776e-09 -4.084507454482633e-10 -2.4525956821008776e-09 -3.421865767450072e-05" pbc="T T T"
Ag       2.06790345       1.46222896       3.58171293       0.00000076       0.00000143      -0.00000108
Ag       6.20370961       4.38668480      10.74513951      -0.00000078      -0.00000338      -0.00000242
Si      -0.00000013      -0.00000003      -0.00000027       0.00000092      -0.00000114       0.00000169
Te       2.16626548       1.53178276       7.16342717       0.00138105       0.00097744       0.00000011
Te       6.10534665       4.31713245       7.16342775      -0.00138104      -0.00097629       0.00000106
Te       5.12057739       1.53178248       5.45775459      -0.00069051       0.00097770       0.00119604
Te       3.15103648       4.31713178       8.86909966       0.00069032      -0.00097795      -0.00119485
Te       3.15103600       4.31713219       5.45775458       0.00068963      -0.00097729       0.00119486
Te       5.12057715       1.53178340       8.86910020      -0.00069041       0.00097948      -0.00119535
