9
Lattice="5.736224581618885 -4.975388555925435e-09 3.3118107382789543 1.9120748373014822 5.408164587483632 3.3118107704038526 -1.7479123823327867e-08 2.698517194637792e-08 6.623621506832635" Properties=species:S:1:pos:R:3:forces:R:3 energy=-28.05873680114746 free_energy=-28.05873680114746 stress="-0.00019621665705926716 2.9274955792857327e-09 1.1000913957559533e-08 2.9274955792857327e-09 -0.00019617524230852723 -3.259948755385267e-08 1.1000913957559533e-08 -3.259948755385267e-08 -0.0001961646630661562" pbc="T T T"
Ag       1.91207499       1.35204107       3.31181075       0.00000001      -0.00000034      -0.00000049
Ag       5.73622431       4.05612353       9.93543242      -0.00000060       0.00000051      -0.00000000
Se       0.00000001      -0.00000015      -0.00000006      -0.00000407       0.00000780      -0.00000625
S        1.82565144       1.29093036       6.62362186       0.00297672       0.00210559       0.00000140
S        5.82264803       4.11723426       6.62362183      -0.00297832      -0.00210452       0.00000109
S        4.82339904       1.29093078       4.89287097      -0.00148800       0.00210583       0.00257707
S        2.82490037       4.11723404       8.35437174       0.00148848      -0.00210601      -0.00258040
S        2.82490055       4.11723404       4.89287084       0.00148958      -0.00210780       0.00257951
S        4.82339891       1.29093054       8.35437154      -0.00148368       0.00209880      -0.00257188
