9
Lattice="5.81836214307197 -1.1626010335933451e-07 3.3592330111569915 1.9394538874531126 5.485604265994182 3.359233098844635 -2.699905409226572e-08 8.830380106764638e-08 6.718466069077769" Properties=species:S:1:pos:R:3:forces:R:3 energy=-28.39280128479004 free_energy=-28.39280128479004 stress="-3.25250111927744e-05 6.144819320041961e-09 1.3385478503380455e-08 6.144819320041961e-09 -3.2518539228476584e-05 1.2464936638423296e-08 1.3385478503380455e-08 1.2464936638423296e-08 -3.2511208701180294e-05" pbc="T T T"
Ag       1.93945394       1.37140069       3.35923282       0.00000044       0.00000038      -0.00000007
Ag       5.81836190       4.11420341      10.07769949      -0.00000002      -0.00000041      -0.00000014
Sn       0.00000013       0.00000030       0.00000039      -0.00000198      -0.00000199      -0.00000412
Se       2.27247847       1.60688481       6.71846607      -0.00266415      -0.00188328       0.00000032
Se       5.48533754       3.87871868       6.71846584       0.00266632       0.00188452      -0.00000074
Se       4.68212299       1.60688477       5.32725723       0.00133241      -0.00188377      -0.00230825
Se       3.07569316       3.87871948       8.10967464      -0.00133373       0.00188598       0.00230915
Se       3.07569296       3.87871972       5.32725733      -0.00133249       0.00188421      -0.00230690
Se       4.68212291       1.60688512       8.10967490       0.00133324      -0.00188568       0.00231077
