9
Lattice="4.4877382257717455 3.2395335201099874e-07 2.5909966620812783 1.4959128711146898 4.231080907702694 2.5909969673300473 -1.9955105098525727e-07 2.3274787731795726e-07 5.181993669795093" Properties=species:S:1:pos:R:3:forces:R:3 energy=-39.93171691894531 free_energy=-39.93171691894531 stress="-1.0149678018933628e-05 1.5193265312518633e-07 6.065318558512445e-08 1.5193265312518633e-07 -1.046730176312849e-05 -2.5070134412885636e-08 6.065318558512445e-08 -2.5070134412885636e-08 -1.0402779480500612e-05" pbc="T T T"
Ag       1.49591257       1.05777027       2.59099655      -0.00000022       0.00000060      -0.00000004
Ag       4.48773802       3.17331067       7.77299064      -0.00000077       0.00000036      -0.00000033
S       -0.00000059      -0.00000004      -0.00000085      -0.00000108       0.00000055       0.00000786
O        1.33067681       0.94093152       5.18199357       0.00031853       0.00022388      -0.00000358
O        4.65297339       3.29015023       5.18199394      -0.00031304      -0.00021958       0.00000055
O        3.82240003       0.94093062       3.74339794      -0.00016367       0.00022531       0.00028026
O        2.16125097       3.29014959       6.62059010       0.00016165      -0.00022960      -0.00028419
O        2.16125272       3.29015031       3.74339684       0.00015855      -0.00022781       0.00027692
O        3.82239872       0.94093216       6.62059011      -0.00016093       0.00022590      -0.00027692
