9
Lattice="6.402872476288539 4.4294166039880287e-07 3.6966997793989615 2.1342911237692994 6.036686793248318 3.6966999859798864 -2.6990326178713377e-07 6.215854305661178e-08 7.39340002628407" Properties=species:S:1:pos:R:3:forces:R:3 energy=-25.550251007080078 free_energy=-25.550251007080078 stress="-3.944800846511498e-05 -3.497143907793543e-08 3.1032365566119324e-09 -3.497143907793543e-08 -3.95284550904762e-05 1.3744738680543378e-08 3.1032365566119324e-09 1.3744738680543378e-08 -3.9456848753616214e-05" pbc="T T T"
Ag       2.13429149       1.50917093       3.69669944       0.00000229      -0.00000364      -0.00000246
Ag       6.40287252       4.52751638      11.09009934      -0.00000091       0.00000278      -0.00000245
Sn       0.00000042      -0.00000012       0.00000116      -0.00000339      -0.00000107      -0.00000887
Te       2.35839375       1.66763575       7.39340105      -0.00826366      -0.00584471      -0.00000107
Te       6.17876796       4.36905116       7.39340044       0.00826946       0.00584719      -0.00000201
Te       5.22367490       1.66763516       5.73912894       0.00412811      -0.00584337      -0.00715426
Te       3.31349013       4.36904964       9.04766902      -0.00413678       0.00585096       0.00716463
Te       3.31348867       4.36905250       5.73912968      -0.00412937       0.00584255      -0.00715561
Te       5.22367348       1.66763771       9.04767014       0.00413425      -0.00585061       0.00716202
