9
Lattice="4.487044583952131 -1.0967691358109761e-07 2.5905964083164514 1.4956814177142401 4.230426168880637 2.59059642020774 -3.962050008914652e-08 -1.3452162784753317e-08 5.181192885257622" Properties=species:S:1:pos:R:3:forces:R:3 energy=-39.931705474853516 free_energy=-39.931705474853516 stress="-0.0004089973808731884 -6.725365153670282e-08 4.0155040181844015e-08 -6.725365153670282e-08 -0.00040931199328042567 -5.1290374614154643e-08 4.0155040181844015e-08 -5.1290374614154643e-08 -0.0004089151043444872" pbc="T T T"
Ag       1.49568163       1.05760679       2.59059653       0.00000108      -0.00000006       0.00000101
Ag       4.48704459       3.17281931       7.77178959       0.00000142      -0.00000013       0.00000018
S        0.00000030      -0.00000019      -0.00000018      -0.00000323      -0.00000289      -0.00000514
O        1.33034464       0.94069632       5.18119279       0.00672746       0.00475872      -0.00000294
O        4.65238092       3.28972984       5.18119276      -0.00671697      -0.00475049      -0.00000082
O        3.82187196       0.94069574       3.74270899      -0.00336683       0.00475442       0.00582063
O        2.16085382       3.28973034       6.61967631       0.00335777      -0.00475121      -0.00581443
O        2.16085380       3.28973077       3.74270926       0.00336337      -0.00476170       0.00582421
O        3.82187203       0.94069558       6.61967647      -0.00336528       0.00475359      -0.00582349
