9
Lattice="5.818261473143591 -2.1740444745194028e-08 3.3591749326757814 1.939420468635922 5.485509612557408 3.3591749359924084 -1.1547420799931785e-07 -7.759068392099695e-08 6.718350065358686" Properties=species:S:1:pos:R:3:forces:R:3 energy=-28.392799377441406 free_energy=-28.392799377441406 stress="-3.5506127460394055e-05 -1.0426194130275235e-08 3.3849868685820184e-08 -1.0426194130275235e-08 -3.5522687539923936e-05 8.191933353884906e-09 3.3849868685820184e-08 8.191933353884906e-09 -3.550239489413798e-05" pbc="T T T"
Ag       1.93942029       1.37137727       3.35917499      -0.00000001       0.00000028       0.00000041
Ag       5.81826144       4.11413195      10.07752540      -0.00000013      -0.00000034      -0.00000042
Sn       0.00000054      -0.00000021      -0.00000021      -0.00000393       0.00000325      -0.00000126
Se       2.27238325       1.60681729       6.71835038      -0.00199529      -0.00141200       0.00000030
Se       5.48529833       3.87869221       6.71834969       0.00199616       0.00141222      -0.00000057
Se       4.68207009       1.60681785       5.32711690       0.00099971      -0.00141127      -0.00172802
Se       3.07561185       3.87869206       8.10958295      -0.00099724       0.00141112       0.00172866
Se       3.07561207       3.87869180       5.32711644      -0.00099771       0.00141000      -0.00172890
Se       4.68206943       1.60681783       8.10958326       0.00099843      -0.00141326       0.00172979
