9
Lattice="5.646479934434882 -1.153314909292852e-07 3.259996940894036 1.8821599521396755 5.32355203954738 3.2599967976009827 -3.3090858103915968e-09 -1.77837354320387e-07 6.519993887519577" Properties=species:S:1:pos:R:3:forces:R:3 energy=-30.768545150756836 free_energy=-30.768545150756836 stress="-9.769859025254846e-05 -5.012951387328712e-09 -1.636912116964595e-08 -5.012951387328712e-09 -9.764345304574817e-05 3.882826504764125e-09 -1.636912116964595e-08 3.882826504764125e-09 -9.76500814431347e-05" pbc="T T T"
Ag       1.88216007       1.33088810       3.25999690       0.00000056       0.00000011      -0.00000007
Ag       5.64648002       3.99266385       9.77999084       0.00000068       0.00000056       0.00000084
Si       0.00000009      -0.00000005       0.00000006      -0.00000219      -0.00000049       0.00000067
S        1.85260159       1.30998723       6.51999422       0.00201792       0.00142750       0.00000087
S        5.67603799       4.01356467       6.51999356      -0.00201589      -0.00142607       0.00000038
S        4.72017926       1.30998706       4.86439729      -0.00100827       0.00142512       0.00174510
S        2.80846066       4.01356497       8.17559048       0.00100797      -0.00142491      -0.00174648
S        2.80846086       4.01356462       4.86439695       0.00100836      -0.00142735       0.00174576
S        4.72017897       1.30998661       8.17559014      -0.00100914       0.00142571      -0.00174671
