9
Lattice="5.83728975553471 -1.5541823693901205e-07 3.3701607169131793 1.9457630755592503 5.503449623901077 3.370160768451932 -1.9499679057363403e-08 4.933350620290379e-08 6.74032146760085" Properties=species:S:1:pos:R:3:forces:R:3 energy=-34.10135269165039 free_energy=-34.10135269165039 stress="-2.87582279270282e-05 -3.7079121995020614e-08 2.0907668485392605e-08 -3.7079121995020614e-08 -2.871337710530497e-05 -3.084860011881574e-08 2.0907668485392605e-08 -3.084860011881574e-08 -2.8682588890660554e-05" pbc="T T T"
Ag       1.94576323       1.37586257       3.37016073      -0.00000010       0.00000009       0.00000015
Ag       5.83728933       4.12758704      10.11048218      -0.00000055      -0.00000026       0.00000046
Ti      -0.00000060      -0.00000039       0.00000082       0.00000482       0.00000319      -0.00000913
Se       2.01601093       1.42553483       6.74032141       0.00266071       0.00188188      -0.00000070
Se       5.76704217       4.07791483       6.74032158      -0.00266478      -0.00188390      -0.00000015
Se       4.82928444       1.42553530       5.11607736      -0.00133248       0.00188412       0.00230719
Se       2.95376863       4.07791409       8.36456527       0.00132901      -0.00188033      -0.00230232
Se       2.95376871       4.07791431       5.11607730       0.00133128      -0.00188266       0.00230498
Se       4.82928435       1.42553553       8.36456516      -0.00132799       0.00187789      -0.00230044
