9
Lattice="5.527294869243538 -9.723684059629943e-08 3.191185234316388 1.8424315723942457 5.211183830519868 3.1911851633216357 -4.892455800735586e-08 -1.2154528021363773e-07 6.382370553372583" Properties=species:S:1:pos:R:3:forces:R:3 energy=-36.3464469909668 free_energy=-36.3464469909668 stress="-0.00024438605760224164 -1.0028970365283385e-07 3.3116776876340737e-08 -1.0028970365283385e-07 -0.00024437287356704473 -3.777670443128045e-08 3.3116776876340737e-08 -3.777670443128045e-08 -0.00024430511984974146" pbc="T T T"
Ag       1.84243156       1.30279607       3.19118516      -0.00000007      -0.00000046      -0.00000019
Ag       5.52729468       3.90838788       9.57355535       0.00000040       0.00000008      -0.00000013
Ti       0.00000008      -0.00000025       0.00000039      -0.00000073       0.00000026      -0.00000294
S        1.91581494       1.35468511       6.38237047       0.00592503       0.00419036       0.00000114
S        5.45391135       3.85649813       6.38237044      -0.00592610      -0.00418854       0.00000105
S        4.56938711       1.35468566       4.85032988      -0.00296111       0.00418776       0.00512990
S        2.80033921       3.85649792       7.91441107       0.00296140      -0.00418741      -0.00512913
S        2.80033947       3.85649780       4.85033006       0.00296073      -0.00418741       0.00512889
S        4.56938705       1.35468600       7.91441080      -0.00295964       0.00418532      -0.00512835
