9
Lattice="5.528185785331677 -5.2595246699814844e-08 3.1916998974884683 1.842728644641915 5.212023446402518 3.1916997258098867 8.468277130226218e-08 -1.5038275587525732e-07 6.383399648302069" Properties=species:S:1:pos:R:3:forces:R:3 energy=-36.346458435058594 free_energy=-36.346458435058594 stress="8.089558832580224e-05 6.14245321273188e-09 -8.347777580297588e-09 6.14245321273188e-09 8.084697765298188e-05 -6.8772223471569305e-09 -8.347777580297588e-09 -6.8772223471569305e-09 8.079323743004352e-05" pbc="T T T"
Ag       1.84272886       1.30300556       3.19169985      -0.00000006      -0.00000017      -0.00000002
Ag       5.52818550       3.90901755       9.57509898      -0.00000036       0.00000001      -0.00000033
Ti      -0.00000021       0.00000004      -0.00000039      -0.00000031       0.00000020       0.00000165
S        1.91649264       1.35516459       6.38339976      -0.00333703      -0.00235793       0.00000061
S        5.45442205       3.85685881       6.38339986       0.00333640       0.00235811      -0.00000007
S        4.56993918       1.35516493       4.85143095       0.00166817      -0.00235826      -0.00288919
S        2.80097529       3.85685896       7.91536871      -0.00166661       0.00235641       0.00288820
S        2.80097508       3.85685863       4.85143072      -0.00166816       0.00235891      -0.00288913
S        4.56993973       1.35516398       7.91536850       0.00166756      -0.00235724       0.00288850
