9
Lattice="6.201144337949576 5.545844253676039e-07 3.5802314742676806 2.067048265055458 5.846494547982358 3.5802321159259414 7.657499789090577e-08 8.400142761974096e-07 7.160462815903615" Properties=species:S:1:pos:R:3:forces:R:3 energy=-31.67677116394043 free_energy=-31.67677116394043 stress="-8.031772449612617e-05 4.1219280433324457e-08 -9.406471690454055e-08 4.1219280433324457e-08 -8.035288919927552e-05 1.398308597799769e-07 -9.406471690454055e-08 1.398308597799769e-07 -8.040606189751998e-05" pbc="T T T"
Ag       2.06704825       1.46162330       3.58023041       0.00000014      -0.00000136      -0.00000125
Ag       6.20114286       4.38487107      10.74069737      -0.00000442      -0.00000261       0.00000337
Ti      -0.00000527      -0.00000268      -0.00000062       0.00002883       0.00001052       0.00000329
Te       2.19551611       1.55246360       7.16046428      -0.00100923      -0.00071678       0.00000172
Te       6.07267752       4.29403232       7.16046201       0.00100055       0.00070419      -0.00000042
Te       5.10338617       1.55246668       5.48160078       0.00049910      -0.00071256      -0.00086993
Te       3.16480786       4.29403136       8.83932339      -0.00050777       0.00071208       0.00087290
Te       3.16480791       4.29403322       5.48160148      -0.00050196       0.00070541      -0.00086182
Te       5.10338924       1.55246478       8.83932626       0.00049476      -0.00069892       0.00085206
