9
Lattice="5.721935341345623 2.2203369031512471e-07 3.3035609399800103 1.907311928760037 5.394691833479164 3.303561045676541 -3.4012457650511327e-09 1.2704617038572146e-07 6.607121885851153" Properties=species:S:1:pos:R:3:forces:R:3 energy=-37.87702560424805 free_energy=-37.87702560424805 stress="-2.2186143269209424e-06 -1.271545926329054e-07 -1.015931960779426e-08 -1.271545926329054e-07 -2.0487607343966374e-06 -1.3325625936033703e-08 -1.015931960779426e-08 -1.3325625936033703e-08 -2.2063534288463416e-06" pbc="T T T"
Ag       1.90731203       1.34867287       3.30356083      -0.00000044      -0.00000023       0.00000048
Ag       5.72193529       4.04601894       9.91068284       0.00000084       0.00000051       0.00000063
Ta       0.00000021       0.00000016       0.00000034      -0.00000072      -0.00000139      -0.00000115
Se       2.06401231       1.45947733       6.60712212       0.00124541       0.00088065      -0.00000057
Se       5.56523483       3.93521475       6.60712173      -0.00124473      -0.00088084      -0.00000035
Se       4.68992863       1.45947826       5.09104839      -0.00062251       0.00087997       0.00107545
Se       2.93931874       3.93521375       8.12319538       0.00062152      -0.00088017      -0.00107368
Se       2.93931856       3.93521422       5.09104840       0.00062227      -0.00087854       0.00107545
Se       4.68992856       1.45947844       8.12319551      -0.00062172       0.00087994      -0.00107621
