9
Lattice="4.789421377992529 -3.043464530429504e-07 2.7651737527949463 1.5964737027366853 4.515510865071301 2.765173411558072 1.0929840074874615e-08 -4.1019941026521055e-07 5.530347486658523" Properties=species:S:1:pos:R:3:forces:R:3 energy=-45.295654296875 free_energy=-45.295654296875 stress="0.00035051078884862363 -2.62842036136135e-07 -3.18077617578183e-08 -2.62842036136135e-07 0.0003506614302750677 1.1680926093049493e-07 -3.18077617578183e-08 1.1680926093049493e-07 0.0003508692607283592" pbc="T T T"
Ag       1.59647425       1.12887862       2.76517359      -0.00000069       0.00000946      -0.00000071
Ag       4.78942167       3.38663227       8.29551992       0.00000215      -0.00000460      -0.00000518
Ti       0.00000004      -0.00000035       0.00000030       0.00000273       0.00000883      -0.00000725
O        1.57392532       1.11293457       5.53034764      -0.00092459      -0.00065362      -0.00000040
O        4.81197223       3.40257545       5.53034839       0.00091493       0.00064778       0.00000077
O        4.00245847       1.11293453       4.12823432       0.00046563      -0.00066024      -0.00080901
O        2.38343665       3.40257467       6.93246137      -0.00046512       0.00066108       0.00080776
O        2.38343509       3.40257624       4.12823268      -0.00046223       0.00065231      -0.00079757
O        4.00245809       1.11293470       6.93246017       0.00046724      -0.00066102       0.00081110
