9
Lattice="6.278166233036722 7.876884766756667e-08 3.6247008055038874 2.092722147650102 5.919111808119317 3.6247008129393263 -2.325729983032693e-08 -7.33891775897896e-09 7.249401651290689" Properties=species:S:1:pos:R:3:forces:R:3 energy=-34.921566009521484 free_energy=-34.921566009521484 stress="-0.00023883626272436231 -1.1787462561585471e-08 -9.953393664829946e-09 -1.1787462561585471e-08 -0.00023881877132225782 -1.8129828749380295e-09 -9.953393664829946e-09 -1.8129828749380295e-09 -0.00023881191737018526" pbc="T T T"
Ag       2.09272136       1.47977796       3.62470106      -0.00000133      -0.00000022       0.00000091
Ag       6.27816649       4.43933387      10.87410110       0.00000036      -0.00000024      -0.00000343
Ta      -0.00000009      -0.00000021      -0.00000029      -0.00000039       0.00000109       0.00000017
Te       2.22652471       1.57439078       7.24940179       0.00639609       0.00452168       0.00000016
Te       6.14436378       4.34472115       7.24940263      -0.00639601      -0.00452199      -0.00000010
Te       5.16490392       1.57439066       5.55292783      -0.00319706       0.00452240       0.00553848
Te       3.20598479       4.34472125       8.94587554       0.00319681      -0.00452019      -0.00553745
Te       3.20598387       4.34472085       5.55292792       0.00319792      -0.00452321       0.00553872
Te       5.16490468       1.57439126       8.94587550      -0.00319636       0.00452068      -0.00553745
