9
Lattice="5.4803369249566005 1.2649020844742628e-07 3.164074471866898 1.826779130618434 5.166911461269254 3.1640744088604826 7.555826231954545e-08 -2.3739012338701628e-08 6.328148812863055" Properties=species:S:1:pos:R:3:forces:R:3 energy=-40.74068069458008 free_energy=-40.74068069458008 stress="1.723432978906203e-05 -1.5413977649814115e-08 -4.927514751784656e-08 -1.5413977649814115e-08 1.7243753973161802e-05 2.5615032317460873e-09 -4.927514751784656e-08 2.5615032317460873e-09 1.7194986867252737e-05" pbc="T T T"
Ag       1.82677910       1.29172751       3.16407441       0.00000038      -0.00000064      -0.00000053
Ag       5.48033709       3.87518397       9.49222267       0.00000035      -0.00000059      -0.00000042
Ta       0.00000037       0.00000017      -0.00000039      -0.00000278      -0.00000065       0.00000218
S        1.96262333       1.38778456       6.32814915      -0.00265890      -0.00187689       0.00000247
S        5.34449248       3.77912706       6.32814919       0.00265786       0.00188020       0.00000136
S        4.49902458       1.38778433       4.86375682       0.00132820      -0.00187936      -0.00230503
S        2.80809174       3.77912758       7.79254155      -0.00132734       0.00188109       0.00230211
S        2.80809076       3.77912696       4.86375641      -0.00132756       0.00187752      -0.00230259
S        4.49902512       1.38778409       7.79254091       0.00132959      -0.00188106       0.00230059
