9
Lattice="6.200353106461411 3.0841282921006964e-08 3.5797753984980285 2.0667844615654123 5.845748909989213 3.579775288222682 1.3781835354479556e-07 -3.76068718986527e-08 7.159550558287655" Properties=species:S:1:pos:R:3:forces:R:3 energy=-31.67675018310547 free_energy=-31.67675018310547 stress="-0.00018520784215070307 2.9811587864969624e-08 7.909057408994613e-09 2.9811587864969624e-08 -0.00018524599727243185 -1.1845928682419071e-08 7.909057408994613e-09 -1.1845928682419071e-08 -0.00018526153871789575" pbc="T T T"
Ag       2.06678465       1.46143720       3.57977455       0.00000052      -0.00000011      -0.00000097
Ag       6.20035220       4.38431190      10.73932548      -0.00000159       0.00000011      -0.00000057
Ti       0.00000026       0.00000002       0.00000034      -0.00000074      -0.00000103      -0.00000266
Te       2.19552472       1.55246982       7.15955149      -0.00385008      -0.00272220       0.00000142
Te       6.07161283       4.29327903       7.15955020       0.00385126       0.00272341      -0.00000064
Te       5.10259109       1.55246931       5.48115442       0.00192326      -0.00272085      -0.00333047
Te       3.16454681       4.29327924       8.83794712      -0.00192437       0.00272135       0.00333281
Te       3.16454699       4.29327892       5.48115441      -0.00192453       0.00272027      -0.00333253
Te       5.10259130       1.55247014       8.83794702       0.00192629      -0.00272094       0.00333364
