9
Lattice="5.83101362048544 -8.512929158655763e-08 3.366537240575662 1.9436711059112117 5.4975324035830475 3.366537276353926 -7.755892246527048e-08 -1.10231803412858e-08 6.733074615487304" Properties=species:S:1:pos:R:3:forces:R:3 energy=-34.10112762451172 free_energy=-34.10112762451172 stress="-0.00039527550688944757 3.668838033377142e-08 1.30144046650571e-08 3.668838033377142e-08 -0.00039531858055852354 -1.0743457679041057e-08 1.30144046650571e-08 -1.0743457679041057e-08 -0.0003953378472942859" pbc="T T T"
Ag       1.94367110       1.37438304       3.36653729      -0.00000009       0.00000037       0.00000015
Ag       5.83101348       4.12314936      10.09961166      -0.00000028      -0.00000006      -0.00000024
Ti       0.00000028       0.00000018       0.00000034      -0.00000299      -0.00000176      -0.00000309
Se       2.01685116       1.42612903       6.73307453      -0.00784335      -0.00554485      -0.00000004
Se       5.75783323       4.07140295       6.73307454       0.00784660       0.00554704      -0.00000003
Se       4.82258793       1.42612893       5.11318160       0.00392059      -0.00554408      -0.00679127
Se       2.95209674       4.07140322       8.35296721      -0.00392199       0.00554446       0.00679227
Se       2.95209694       4.07140337       5.11318183      -0.00392047       0.00554372      -0.00679044
Se       4.82258771       1.42612914       8.35296752       0.00392202      -0.00554482       0.00679257
