9
Lattice="4.900364205048895 -8.7890091651453e-08 2.8292258266948633 1.6334545286223905 4.620107031165148 2.8292260406556315 -4.645432164002177e-07 -6.643437087482549e-08 5.658452458002229" Properties=species:S:1:pos:R:3:forces:R:3 energy=-50.260520935058594 free_energy=-50.260520935058594 stress="-0.00031994428718462586 4.99713848967076e-07 -1.8031998649803427e-07 4.99713848967076e-07 -0.0003203261294402182 2.717391112128098e-07 -1.8031998649803427e-07 2.717391112128098e-07 -0.00032072121393866837" pbc="T T T"
Ag       1.63345404       1.15502634       2.82922643       0.00000275      -0.00000068       0.00000024
Ag       4.90036384       3.46508039       8.48767827      -0.00000212       0.00000065      -0.00000146
Ta       0.00000175       0.00000039      -0.00000572      -0.00003495      -0.00001205       0.00010457
O        1.61402293       1.14128554       5.65845086       0.00494695       0.00350052       0.00001297
O        4.91979314       3.47881924       5.65845172      -0.00490713      -0.00347030       0.00001137
O        4.09335055       1.14128852       4.22701150      -0.00244889       0.00345796       0.00425076
O        2.44046444       3.47882267       7.08989621       0.00249392      -0.00353849      -0.00432247
O        2.44046786       3.47881971       4.22701021       0.00245750      -0.00347948       0.00427407
O        4.09335433       1.14128412       7.08989704      -0.00250831       0.00354165      -0.00432968
