9
Lattice="5.866993303739997 -2.874383185153825e-08 3.387309872074243 1.9556644616769296 5.531454040769691 3.387309778202568 2.4407893443575324e-08 -9.770984933462687e-08 6.774619701872819" Properties=species:S:1:pos:R:3:forces:R:3 energy=-27.201196670532227 free_energy=-27.201196670532227 stress="-2.392940950812772e-05 2.0822694679623055e-09 7.048588823721502e-09 2.0822694679623055e-09 -2.393657086940948e-05 -2.6601234992540412e-08 7.048588823721502e-09 -2.6601234992540412e-08 -2.3912354663480073e-05" pbc="T T T"
Ag       1.95566452       1.38286345       3.38730974      -0.00000031      -0.00000047      -0.00000017
Ag       5.86699339       4.14859043      10.16192953       0.00000031      -0.00000004      -0.00000078
Te       0.00000015       0.00000005      -0.00000031      -0.00000640      -0.00000121       0.00000385
S        1.93690932       1.36960159       6.77461973       0.00098658       0.00069845       0.00000048
S        5.88574836       4.16185230       6.77462002      -0.00098073      -0.00069386       0.00000015
S        4.89853870       1.36960115       5.06472230      -0.00049299       0.00069487       0.00085229
S        2.92411912       4.16185223       8.48451693       0.00049359      -0.00069928      -0.00085527
S        2.92411912       4.16185264       5.06472242       0.00049287      -0.00069559       0.00085247
S        4.89853851       1.36960177       8.48451693      -0.00049284       0.00069761      -0.00085366
