9
Lattice="4.884104960646818 7.654331193124254e-08 2.8198392817649136 1.6280350417537173 4.604778849555264 2.819839311719725 -2.293145242038332e-07 -1.2546282873232407e-07 5.639678960714013" Properties=species:S:1:pos:R:3:forces:R:3 energy=-37.79872131347656 free_energy=-37.79872131347656 stress="-2.0603143639164045e-05 2.0407199485816818e-07 -1.1908092290013883e-08 2.0407199485816818e-07 -2.0783465515705757e-05 -1.2236345270366655e-08 -1.1908092290013883e-08 -1.2236345270366655e-08 -2.088398832711391e-05" pbc="T T T"
Ag       1.62803477       1.15119487       2.81983925      -0.00000106       0.00000044      -0.00000001
Ag       4.88410503       3.45358407       8.45951808       0.00000030      -0.00000042      -0.00000033
Te      -0.00000014      -0.00000020      -0.00000024       0.00000307       0.00000329       0.00001522
O        1.58524128       1.12093527       5.63967871      -0.00008225      -0.00005728       0.00000014
O        4.92689845       3.48384332       5.63967890       0.00007999       0.00005561       0.00000047
O        4.09148457       1.12093460       4.19269783       0.00003761      -0.00005198      -0.00006294
O        2.42065516       3.48384473       7.08666002      -0.00003171       0.00004387       0.00005424
O        2.42065539       3.48384415       4.19269802      -0.00003684       0.00005221      -0.00006270
O        4.09148473       1.12093431       7.08666011       0.00003135      -0.00004536       0.00005549
