9
Lattice="4.537337546818927 -5.264961229812875e-07 2.619631061262657 1.5124460237818178 4.277837569473769 2.619629898662624 1.0286295206787319e-06 -6.96537669688514e-07 5.239260340886407" Properties=species:S:1:pos:R:3:forces:R:3 energy=-45.29856491088867 free_energy=-45.29856491088867 stress="0.0002744276716839522 -2.897208446484001e-07 -2.1125060811755247e-07 -2.897208446484001e-07 0.00027409521862864494 1.3027029233114717e-08 -2.1125060811755247e-07 1.3027029233114717e-08 0.00027508041239343584" pbc="T T T"
Ag       1.51244550       1.06946226       2.61963009      -0.00001021      -0.00000948      -0.00000741
Ag       4.53733420       3.20837225       7.85889399      -0.00002558      -0.00000941       0.00001079
Ti      -0.00000086      -0.00000308      -0.00000207       0.00000123       0.00000954       0.00000852
O        1.58228072       1.11883372       5.23926077       0.00438434       0.00310004      -0.00000590
O        4.46750054       3.15899672       5.23925863      -0.00436544      -0.00309342      -0.00000394
O        3.74619998       1.11884329       3.98992657      -0.00217572       0.00309980       0.00376791
O        2.30358927       3.15899604       6.48859623       0.00218385      -0.00309843      -0.00377166
O        2.30358874       3.15900115       3.98992601       0.00218114      -0.00309396       0.00377738
O        3.74619951       1.11884048       6.48859500      -0.00217330       0.00309521      -0.00377572
