9
Lattice="6.101183494615973 5.90986315774125e-08 3.5225200649828152 2.0337279140707722 5.75225086368846 3.522520018540585 2.5182312907308636e-08 -3.907322547017943e-08 7.045040086348579" Properties=species:S:1:pos:R:3:forces:R:3 energy=-31.5794620513916 free_energy=-31.5794620513916 stress="-3.772894706344232e-05 2.9518453459331795e-08 -1.735253540857684e-08 2.9518453459331795e-08 -3.774424112634733e-05 -1.2138139382500412e-09 -1.735253540857684e-08 -1.2138139382500412e-09 -3.7759473343612626e-05" pbc="T T T"
Ag       2.03372770       1.43806289       3.52252012       0.00000063       0.00000048       0.00000057
Ag       6.10118356       4.31418824      10.56755986      -0.00000066      -0.00000017       0.00000043
V        0.00000031       0.00000010      -0.00000054      -0.00000190       0.00000079       0.00000471
Te       2.16056064       1.52774636       7.04503973       0.00553246       0.00391152       0.00000048
Te       5.97435103       4.22450397       7.04504018      -0.00553124      -0.00391067       0.00000135
Te       5.02090322       1.52774736       5.39362025      -0.00276428       0.00390985       0.00478925
Te       3.11400757       4.22450445       8.69646060       0.00276829      -0.00391555      -0.00479532
Te       3.11400801       4.22450374       5.39362005       0.00276492      -0.00391154       0.00479181
Te       5.02090372       1.52774645       8.69646048      -0.00276825       0.00391526      -0.00479330
