9
Lattice="5.422633355242451 -2.435959956424563e-07 3.1307587317041436 1.8075442540616475 5.1125075357785565 3.1307586763155832 -1.0874699958872845e-07 -1.4473261605463396e-07 6.261517651763755" Properties=species:S:1:pos:R:3:forces:R:3 energy=-37.1535530090332 free_energy=-37.1535530090332 stress="-6.875783583382145e-05 -8.73381722499289e-08 8.722701672070343e-09 -8.73381722499289e-08 -6.866513285785913e-05 -9.136226886141685e-09 8.722701672070343e-09 -9.136226886141685e-09 -6.859635323053226e-05" pbc="T T T"
Ag       1.80754462       1.27812675       3.13075851       0.00000002      -0.00000023       0.00000024
Ag       5.42263322       3.83438032       9.39227655       0.00000065       0.00000015       0.00000143
V       -0.00000012       0.00000021       0.00000054      -0.00000274      -0.00000349      -0.00000712
S        1.83723672       1.29912247       6.26151744       0.00112551       0.00079566      -0.00000110
S        5.39294019       3.81338403       6.26151724      -0.00111979      -0.00079310      -0.00000172
S        4.50401493       1.29912272       4.72185326      -0.00056013       0.00079250       0.00097054
S        2.72616317       3.81338443       7.80118146       0.00055751      -0.00078738      -0.00096667
S        2.72616295       3.81338462       4.72185342       0.00055894      -0.00079256       0.00097024
S        4.50401412       1.29912296       7.80118181      -0.00055975       0.00078863      -0.00096601
