9
Lattice="5.782391160605268 5.341692559353936e-08 3.33846505196717 1.9274637429237205 5.451690767504085 3.338465099840985 5.52203230796406e-08 9.767990664242837e-08 6.676930008289916" Properties=species:S:1:pos:R:3:forces:R:3 energy=-34.17680740356445 free_energy=-34.17680740356445 stress="-0.0002420276723569259 7.390554390696025e-09 -1.198635324328734e-08 7.390554390696025e-09 -0.00024205422960221767 8.757703590100974e-11 -1.198635324328734e-08 8.757703590100974e-11 -0.00024203071370720863" pbc="T T T"
Ag       1.92746363       1.36292260       3.33846514       0.00000019      -0.00000030      -0.00000016
Ag       5.78239110       4.08876817      10.01539478      -0.00000015      -0.00000013      -0.00000016
V       -0.00000016      -0.00000009      -0.00000004      -0.00000032       0.00000117       0.00000140
Se       1.96674403       1.39069809       6.67693007      -0.00558826      -0.00395118       0.00000002
Se       5.74311081       4.06099297       6.67693025       0.00558710       0.00395183       0.00000071
Se       4.79901941       1.39069832       5.04171560       0.00279473      -0.00395143      -0.00483930
Se       2.91083553       4.06099302       8.31214481      -0.00279334       0.00395018       0.00483790
Se       2.91083597       4.06099249       5.04171527      -0.00279339       0.00395012      -0.00483838
Se       4.79901953       1.39069801       8.31214480       0.00279349      -0.00395019       0.00483796
