9
Lattice="5.4229537706040585 2.5082693371473045e-07 3.1309439274185342 1.807651384218651 5.112809938064704 3.1309441164396117 -4.925985840522684e-09 2.2801938227411482e-07 6.261887863369059" Properties=species:S:1:pos:R:3:forces:R:3 energy=-37.1535530090332 free_energy=-37.1535530090332 stress="-1.0469414064573357e-06 -2.4909331486355768e-08 -1.069647259654971e-09 -2.4909331486355768e-08 -1.0454568837303668e-06 -2.1289050522455e-08 -1.069647259654971e-09 -2.1289050522455e-08 -1.1008452247551759e-06" pbc="T T T"
Ag       1.80765159       1.27820224       3.13094398       0.00000026      -0.00000039       0.00000026
Ag       5.42295393       3.83460813       9.39283164       0.00000001      -0.00000037       0.00000001
V        0.00000025      -0.00000027      -0.00000022      -0.00000046      -0.00000133      -0.00000070
S        1.83734208       1.29919739       6.26188841      -0.00021416      -0.00015271       0.00000054
S        5.39326312       3.81361303       6.26188851       0.00021678       0.00015062       0.00000027
S        4.50428240       1.29919733       4.72212873       0.00010613      -0.00015002      -0.00018615
S        2.72632256       3.81361344       7.80164616      -0.00010759       0.00015432       0.00018501
S        2.72632241       3.81361300       4.72212973      -0.00010735       0.00015205      -0.00018597
S        4.50428215       1.29919758       7.80164697       0.00010622      -0.00015187       0.00018698
