9
Lattice="5.785933733822655 1.4126429396821072e-07 3.340510647001604 1.9286447988603748 5.4550303892556755 3.3405104950414173 1.527204747346193e-08 -1.753135147129347e-07 6.681021267551319" Properties=species:S:1:pos:R:3:forces:R:3 energy=-34.17689514160156 free_energy=-34.17689514160156 stress="-1.2503507605288178e-05 3.6415379600640563e-09 5.429017679858816e-09 3.6415379600640563e-09 -1.2459536264941562e-05 -6.404264674131355e-09 5.429017679858816e-09 -6.404264674131355e-09 -1.2532299479062203e-05" pbc="T T T"
Ag       1.92864480       1.36375751       3.34051042      -0.00000022       0.00000004      -0.00000039
Ag       5.78593381       4.09127288      10.02153181       0.00000010      -0.00000011      -0.00000038
V        0.00000001       0.00000023      -0.00000162       0.00000017       0.00000014       0.00000126
Se       1.96612583       1.39026044       6.68102090       0.00127742       0.00090371      -0.00000067
Se       5.74845279       4.06476986       6.68102109      -0.00127709      -0.00090291      -0.00000053
Se       4.80287091       1.39026113       5.04322587      -0.00063784       0.00090143       0.00110757
Se       2.91170743       4.06476882       8.31881769       0.00063956      -0.00090656      -0.00110763
Se       2.91170781       4.06476938       5.04322571       0.00063790      -0.00090148       0.00110796
Se       4.80287079       1.39026118       8.31881771      -0.00064005       0.00090574      -0.00110713
