9
Lattice="4.8517090594434995 -5.031251023921676e-07 2.801134984014122 1.6172357992717967 4.574235312325795 2.8011351217559812 -5.043071735138926e-07 -1.8790062948649294e-07 5.602270841513839" Properties=species:S:1:pos:R:3:forces:R:3 energy=-43.288665771484375 free_energy=-43.288665771484375 stress="-4.467989128897898e-05 -9.371809994718205e-09 -4.8496858084945416e-08 -9.371809994718205e-09 -4.449753032531589e-05 5.39304911839622e-09 -4.8496858084945416e-08 5.39304911839622e-09 -4.459189221961424e-05" pbc="T T T"
Ag       1.61723648       1.14355868       2.80113504       0.00000090       0.00000051       0.00000106
Ag       4.85170812       3.43067575       8.40340588      -0.00000064      -0.00000072       0.00000161
V       -0.00000027       0.00000004       0.00000139      -0.00000187       0.00000323      -0.00000391
O        1.51166385       1.06890786       5.60227033       0.00098586       0.00069857      -0.00000378
O        4.95728028       3.50532699       5.60226953      -0.00098813      -0.00069720      -0.00000306
O        4.09587692       1.06890802       4.11027479      -0.00049376       0.00069827       0.00085330
O        2.37306775       3.50532669       7.09426702       0.00049013      -0.00069326      -0.00085181
O        2.37306813       3.50532689       4.11027433       0.00049484      -0.00069970       0.00085503
O        4.09587639       1.06890777       7.09426616      -0.00048715       0.00068903      -0.00084817
