9
Lattice="4.853030217519925 4.537859049438534e-07 2.801899137779349 1.617677204476587 4.575481793785342 2.801899072879587 7.702206554949979e-07 4.6514252604666686e-07 5.6037969414974" Properties=species:S:1:pos:R:3:forces:R:3 energy=-43.288665771484375 free_energy=-43.288665771484375 stress="0.0001401406479999423 5.405617642395555e-08 1.0217378942911637e-08 5.405617642395555e-08 0.0001400822657160461 1.8497633647029943e-08 1.0217378942911637e-08 1.8497633647029943e-08 0.0001401399349560961" pbc="T T T"
Ag       1.61767737       1.14387154       2.80189930      -0.00000111       0.00000177       0.00000164
Ag       4.85303086       3.43161161       8.40569689      -0.00000133      -0.00000046       0.00000158
V       -0.00000059       0.00000025       0.00000129      -0.00000268       0.00000450      -0.00000157
O        1.51168601       1.06892351       5.60379734      -0.00050306      -0.00035560      -0.00000076
O        4.95902293       3.50655848       5.60379820       0.00050271       0.00035584      -0.00000113
O        4.09718821       1.06892396       4.11105719       0.00025022      -0.00035495      -0.00043684
O        2.37352052       3.50656030       7.09653796      -0.00024998       0.00035626       0.00043255
O        2.37352030       3.50655845       4.11105525      -0.00024557       0.00034732      -0.00042790
O        4.09718889       1.06892299       7.09653825       0.00025064      -0.00035489       0.00043243
