9
Lattice="4.877103675426229 5.776570852833964e-09 2.815797169393609 1.6257012644871807 4.598177094969098 2.815797110678907 2.3917309494007675e-07 9.721047557374801e-08 5.6315939245273405" Properties=species:S:1:pos:R:3:forces:R:3 energy=-44.71600341796875 free_energy=-44.71600341796875 stress="-1.6887679521460086e-05 2.0879282658370357e-07 5.999196162065346e-08 2.0879282658370357e-07 -1.6723100998206064e-05 -2.5688205340657078e-08 5.999196162065346e-08 -2.5688205340657078e-08 -1.704819624137599e-05" pbc="T T T"
Ag       1.62570114       1.14954411       2.81579733       0.00000009      -0.00000086      -0.00000029
Ag       4.87710368       3.44863298       8.44739099      -0.00000117      -0.00000029      -0.00000057
W       -0.00000005      -0.00000005      -0.00000050      -0.00000089      -0.00000256       0.00000265
O        1.58154552       1.11832109       5.63159425      -0.00049341      -0.00034881       0.00000227
O        4.92125987       3.47985672       5.63159432       0.00049126       0.00035012       0.00000261
O        4.08633184       1.11832152       4.18545505       0.00024635      -0.00034428      -0.00042117
O        2.41647399       3.47985624       7.07773369      -0.00023919       0.00034106       0.00041914
O        2.41647368       3.47985573       4.18545493      -0.00024813       0.00034845      -0.00042498
O        4.08633194       1.11832103       7.07773318       0.00024468      -0.00034237       0.00042045
