9
Lattice="5.560030013140996 1.4042090383166896e-07 3.2100846987998852 1.8533434719583866 5.242046905519522 3.2100846955876463 -4.996937184850434e-09 -7.467511930060358e-09 6.420169406254631" Properties=species:S:1:pos:R:3:forces:R:3 energy=-41.64386749267578 free_energy=-41.64386749267578 stress="-5.6273871450684965e-05 1.1420480205970307e-07 4.8611308756107974e-08 1.1420480205970307e-07 -5.638642323901877e-05 -5.375856559908243e-08 4.8611308756107974e-08 -5.375856559908243e-08 -5.645464625558816e-05" pbc="T T T"
Ag       1.85334357       1.31051180       3.21008480       0.00000024      -0.00000060       0.00000039
Ag       5.56002995       3.93153523       9.63025436       0.00000025       0.00000005       0.00000090
W        0.00000000      -0.00000037      -0.00000012      -0.00000343       0.00001281      -0.00000404
S        1.85870995       1.31430641       6.42016938      -0.00067732      -0.00047874       0.00000044
S        5.55466348       3.92774048       6.42016936       0.00067192       0.00047684      -0.00000011
S        4.63067572       1.31430609       4.81977381       0.00033377      -0.00047095      -0.00057742
S        2.78269812       3.92774130       8.02056513      -0.00033018       0.00046803       0.00057183
S        2.78269793       3.92774105       4.81977389      -0.00033158       0.00046961      -0.00057463
S        4.63067523       1.31430634       8.02056451       0.00033648      -0.00047714       0.00058274
