9
Lattice="5.859976768899468 9.751593321100593e-08 3.3832592458720736 1.9533255714003315 5.524839659105771 3.383259436694955 -1.5419339429958892e-07 1.246782707010121e-07 6.766518758814885" Properties=species:S:1:pos:R:3:forces:R:3 energy=-38.510108947753906 free_energy=-38.510108947753906 stress="-6.488746294053271e-05 2.009279498338401e-08 -1.949488925845344e-08 2.009279498338401e-08 -6.492967077065259e-05 2.6530564412041713e-08 -1.949488925845344e-08 2.6530564412041713e-08 -6.492561806226149e-05" pbc="T T T"
Ag       1.95332574       1.38120958       3.38325925       0.00000014      -0.00000020       0.00000009
Ag       5.85997698       4.14362982      10.14977793       0.00000050      -0.00000033      -0.00000009
W        0.00000022       0.00000014      -0.00000015      -0.00000601      -0.00000024      -0.00000671
Se       1.95144630       1.37988166       6.76651882       0.00079974       0.00056545      -0.00000063
Se       5.86185559       4.14495847       6.76651890      -0.00079528      -0.00056204       0.00000030
Se       4.88425342       1.37988131       5.07326171      -0.00039967       0.00056493       0.00069164
Se       2.92904882       4.14495853       8.45977551       0.00039822      -0.00056321      -0.00068993
Se       2.92904857       4.14495874       5.07326162       0.00040155      -0.00056792       0.00069565
Se       4.88425314       1.37988128       8.45977628      -0.00039923       0.00056353      -0.00069034
