9
Lattice="5.800759852938317 1.5718057019847055e-07 3.349069761130354 1.933586852129544 5.4690086936601245 3.3490696116679977 -3.865585914288171e-08 -2.1038710978244122e-07 6.698139589214536" Properties=species:S:1:pos:R:3:forces:R:3 energy=-34.08888244628906 free_energy=-34.08888244628906 stress="-2.7006768505088985e-05 9.920715626776655e-08 6.944812014353374e-08 9.920715626776655e-08 -2.7102549211122096e-05 5.1645998588867315e-09 6.944812014353374e-08 5.1645998588867315e-09 -2.7123842301080003e-05" pbc="T T T"
Ag       1.93358645       1.36725220       3.34906966       0.00000039       0.00000056       0.00000051
Ag       5.80076009       4.10175611      10.04720886       0.00000071       0.00000046       0.00000052
Zr       0.00000110       0.00000170       0.00000125      -0.00000453      -0.00000794      -0.00000519
Se       2.15806024       1.52597943       6.69813954       0.00087579       0.00062010       0.00000159
Se       5.57628487       3.94302787       6.69813987      -0.00088213      -0.00062308       0.00000194
Se       4.72172987       1.52597859       5.21800445      -0.00043946       0.00062368       0.00076447
Se       3.01261743       3.94302875       8.17827371       0.00044478      -0.00062397      -0.00076680
Se       3.01261734       3.94303049       5.21800480       0.00044343      -0.00061642       0.00076556
Se       4.72172928       1.52597948       8.17827375      -0.00043905       0.00062651      -0.00076263
