9
Lattice="5.479577057691832 -3.0469105621868673e-07 3.163635212560119 1.826525607742683 5.166194701339046 3.163634850369385 1.3662580041128896e-07 -3.469823308107267e-07 6.327270188477534" Properties=species:S:1:pos:R:3:forces:R:3 energy=-24.726871490478516 free_energy=-24.726871490478516 stress="-0.0003161200729664415 3.3843466695770985e-08 3.201197529278943e-08 3.3843466695770985e-08 -0.00031612810562364757 -2.571159996023198e-08 3.201197529278943e-08 -2.571159996023198e-08 -0.00031609772122465074" pbc="T T T"
Ag       1.82652587       1.29154900       3.16363451       0.00000123       0.00000177       0.00000116
Ag       5.47957659       3.87464597       9.49090458      -0.00000056       0.00000019       0.00000150
Zn       0.00000238      -0.00000015       0.00000515      -0.00002825       0.00000070      -0.00005497
S        1.92929558       1.36421719       6.32727029      -0.00492531      -0.00348459       0.00000261
S        5.37680552       3.80197514       6.32726972       0.00494360       0.00349624       0.00000020
S        4.51492933       1.36421838       4.83445325       0.00246241      -0.00348002      -0.00426668
S        2.79117443       3.80197493       7.82008595      -0.00247012       0.00349394       0.00428298
S        2.79117330       3.80197622       4.83445263      -0.00245900       0.00347467      -0.00425890
S        4.51492820       1.36421954       7.82008505       0.00247601      -0.00350292       0.00429197
