9
Lattice="5.667826460237157 5.983541441519267e-08 3.272321130741746 1.8892755911468992 5.343677459464247 3.272321047624384 1.136502984849289e-07 -2.1434664046459805e-08 6.544642064635368" Properties=species:S:1:pos:R:3:forces:R:3 energy=-36.32335662841797 free_energy=-36.32335662841797 stress="-3.8499538277392276e-06 3.6918266221874774e-09 1.2145545014163872e-08 3.6918266221874774e-09 -3.828787157544866e-06 -9.6745234046125e-09 1.2145545014163872e-08 -9.6745234046125e-09 -3.7994780086592073e-06" pbc="T T T"
Ag       1.88927546       1.33591946       3.27232107      -0.00000017      -0.00000018      -0.00000057
Ag       5.66782654       4.00775762       9.81696275      -0.00000031      -0.00000035      -0.00000012
Zr      -0.00000005       0.00000012      -0.00000012       0.00000029      -0.00000053       0.00000047
S        2.05212686       1.45107253       6.54464180       0.00193360       0.00136717      -0.00000246
S        5.50497560       3.89260461       6.54464260      -0.00193280      -0.00136600      -0.00000111
S        4.64176312       1.45107285       5.04951476      -0.00096667       0.00136571       0.00167587
S        2.91533862       3.89260490       8.03976978       0.00096615      -0.00136709      -0.00167537
S        2.91533889       3.89260487       5.04951476       0.00096603      -0.00136511       0.00167620
S        4.64176363       1.45107302       8.03976961      -0.00096585       0.00136629      -0.00167313
