9
Lattice="5.637942582374416 9.477246670141947e-08 3.2550677130037915 1.879314244745789 5.315503722243277 3.255067780088472 -1.3388850633717398e-07 -1.2511913204097092e-08 6.51013565790918" Properties=species:S:1:pos:R:3:forces:R:3 energy=-24.92157745361328 free_energy=-24.92157745361328 stress="0.00021457437833305448 -4.693942301514653e-08 3.075574284139293e-08 -4.693942301514653e-08 0.00021451311476994306 1.1021875856442875e-08 3.075574284139293e-08 1.1021875856442875e-08 0.00021451988141052425" pbc="T T T"
Ag       1.87931425       1.32887603       3.25506789       0.00000015      -0.00000005       0.00000063
Ag       5.63794260       3.98662804       9.76520381       0.00000044      -0.00000009       0.00000029
Zn      -0.00000012      -0.00000034      -0.00000075      -0.00000095       0.00000156       0.00000167
Se       2.15068587       1.52076369       6.51013570      -0.00190948      -0.00135160      -0.00000250
Se       5.36657081       3.79473912       6.51013504       0.00191139       0.00135121      -0.00000281
Se       4.56259968       1.52076427       5.11761652       0.00095325      -0.00135135      -0.00165441
Se       2.95465736       3.79473811       7.90265497      -0.00095618       0.00134992       0.00165460
Se       2.95465731       3.79474024       5.11761671      -0.00095373       0.00135091      -0.00165293
Se       4.56259897       1.52076607       7.90265472       0.00095502      -0.00135051       0.00165549
