9
Lattice="6.179217724914458 3.565533403676292e-08 3.567572675516657 2.05973930145108 5.825822112699791 3.5675726301424526 6.432174685195116e-08 -1.0089397533575294e-08 7.1351452396247" Properties=species:S:1:pos:R:3:forces:R:3 energy=-22.837650299072266 free_energy=-22.837650299072266 stress="1.8194525637227343e-06 4.028155586865978e-08 -3.247720425925138e-10 4.028155586865978e-08 1.8438511233398458e-06 2.9924933642178075e-09 -3.247720425925138e-10 2.9924933642178075e-09 1.8001422859015292e-06" pbc="T T T"
Ag       2.05973935       1.45645638       3.56757290       0.00000017       0.00000131       0.00000003
Ag       6.17921854       4.36936656      10.70271822       0.00000095      -0.00000004      -0.00000006
Zn       0.00000019       0.00000000       0.00000034      -0.00000219      -0.00000043      -0.00000027
Te       2.23515702       1.58049517       7.13514581      -0.00019241      -0.00013546       0.00000094
Te       6.00380000       4.24532656       7.13514572       0.00019355       0.00013602       0.00000079
Te       5.06163924       1.58049457       5.50327462       0.00009565      -0.00013510      -0.00016712
Te       3.17731720       4.24532749       8.76701513      -0.00009675       0.00013579       0.00016550
Te       3.17731746       4.24532749       5.50327437      -0.00009537       0.00013411      -0.00016588
Te       5.06163939       1.58049431       8.76701507       0.00009642      -0.00013617       0.00016611
