9
Lattice="5.462406070495791 -7.301725844849935e-07 3.153720054696548 1.820801147469899 5.150005072638594 3.153720379655979 7.617349349784775e-07 9.36620223356513e-07 6.307438790029575" Properties=species:S:1:pos:R:3:forces:R:3 energy=-27.315200805664062 free_energy=-27.315200805664062 stress="-5.2656578191090375e-05 9.319941227659001e-07 -5.301365035847994e-07 9.319941227659001e-07 -5.2397641411516815e-05 -3.0670418027511914e-07 -5.301365035847994e-07 -3.0670418027511914e-07 -5.042581688030623e-05" pbc="T T T"
Au       1.82080355       1.28750100       3.15371990       0.00000136       0.00000089       0.00000198
Au       5.46240678       3.86250490       9.46115942       0.00000197       0.00000192       0.00000079
Be       0.00000237      -0.00000080      -0.00000446       0.00002733       0.00000591      -0.00002241
Se       1.57622689       1.11455681       6.30744940      -0.00095868      -0.00070179       0.00007334
Se       5.70698580       4.03544817       6.30744502       0.00098300       0.00070900       0.00002854
Se       4.67429245       1.11456044       4.51875682       0.00047696      -0.00067741      -0.00092933
Se       2.60891598       4.03544285       8.09610896      -0.00045872       0.00063261       0.00083160
Se       2.60891352       4.03544727       4.51876449      -0.00047734       0.00068411      -0.00086886
Se       4.67428473       1.11456050       8.09611720       0.00040394      -0.00065488       0.00088423
