9
Lattice="5.445470943297346 3.0451257113078788e-09 3.1439441528193615 1.8151569515481092 5.1340392411030145 3.1439442089758733 -2.1279955750023473e-08 5.3730213446889425e-08 6.28788834249671" Properties=species:S:1:pos:R:3:forces:R:3 energy=-26.30948829650879 free_energy=-26.30948829650879 stress="0.00015959791198838502 -3.141042981269493e-08 -4.232779904356221e-09 -3.141042981269493e-08 0.0001595615758560598 -9.199442985163842e-09 -4.232779904356221e-09 -9.199442985163842e-09 0.00015962243196554482" pbc="T T T"
Au       1.81515724       1.28351011       3.14394378       0.00000213       0.00000116      -0.00000130
Au       5.44547100       3.85052906       9.43183231       0.00000046      -0.00000193      -0.00000078
Be       0.00000005       0.00000005      -0.00000009       0.00000168      -0.00000117      -0.00000123
S        1.91523938       1.35427944       6.28788836      -0.00359686      -0.00254316       0.00000042
S        5.34538825       3.77976009       6.28788856       0.00359573       0.00254169      -0.00000076
S        4.48785135       1.35427941       4.80259050       0.00179702      -0.00254112      -0.00311361
S        2.77277693       3.77975990       7.77318634      -0.00179883       0.00254452       0.00311639
S        2.77277658       3.77976010       4.80259072      -0.00179838       0.00254210      -0.00311543
S        4.48785073       1.35427901       7.77318633       0.00179702      -0.00254212       0.00311618
