9
Lattice="5.407331638767686 -1.0729070606001568e-07 3.121924159090038 1.802443855221775 5.098080517530591 3.1219240260907197 8.633111546090075e-08 -1.0184490274853613e-07 6.24384816865026" Properties=species:S:1:pos:R:3:forces:R:3 energy=-32.82899475097656 free_energy=-32.82899475097656 stress="-3.163938890793361e-05 6.017212061948385e-09 -1.153941386888846e-08 6.017212061948385e-09 -3.1582199881086126e-05 1.403191429716344e-08 -1.153941386888846e-08 1.403191429716344e-08 -3.158824983984232e-05" pbc="T T T"
Au       1.80244283       1.27451944       3.12192406      -0.00000387      -0.00000272       0.00000014
Au       5.40733116       3.82355890       9.36577298      -0.00000211      -0.00000561       0.00000361
Co       0.00000016      -0.00000001       0.00000017      -0.00000084      -0.00000053       0.00000031
S        1.78586774       1.26279942       6.24384811       0.00105345       0.00074646      -0.00000042
S        5.42390817       3.83528131       6.24384755      -0.00105026      -0.00074315      -0.00000218
S        4.51439820       1.26279928       4.66853068      -0.00052561       0.00074574       0.00091067
S        2.69537798       3.83528146       7.81916560       0.00052731      -0.00074401      -0.00091136
S        2.69537795       3.83528185       4.66853084       0.00052692      -0.00074208       0.00091168
S        4.51439814       1.26279940       7.81916550      -0.00052498       0.00074580      -0.00091264
