9
Lattice="5.370495484202981 -3.74453708420365e-08 3.1006570016610504 1.790165209701488 5.0633514017648595 3.100656856854102 1.449171685838678e-07 -7.487969150599649e-08 6.201313752318188" Properties=species:S:1:pos:R:3:forces:R:3 energy=-29.11138916015625 free_energy=-29.11138916015625 stress="1.4982178072386887e-05 7.369565402370881e-09 1.0230406743971798e-08 7.369565402370881e-09 1.4917654880264308e-05 5.005643544109262e-08 1.0230406743971798e-08 5.005643544109262e-08 1.4944824215490371e-05" pbc="T T T"
Au       1.79016657       1.26583550       3.10065769       0.00001664      -0.00005842       0.00001882
Au       5.37049587       3.79751224       9.30197005       0.00000806      -0.00005168       0.00000461
C       -0.00001265       0.00007817      -0.00001829      -0.00049241       0.00305458      -0.00070693
S        1.63538449       1.15639330       6.20131211      -0.00057840      -0.00036573      -0.00002161
S        5.52524404       3.90694015       6.20131395      -0.00059533      -0.00036782      -0.00000382
S        4.55280200       1.15639144       4.51694071       0.00029093      -0.00040674      -0.00054252
S        2.60787412       3.90693857       7.88565815       0.00031215      -0.00040543      -0.00054884
S        2.60787913       3.90693041       4.51697905       0.00051874      -0.00070572       0.00090098
S        4.55280969       1.15638537       7.88569671       0.00051969      -0.00069338       0.00089848
