9
Lattice="5.520837769573016 4.43596463640424e-08 3.1874574374415157 1.840279299811179 5.205095540497411 3.1874574349055953 1.4245979165687993e-07 9.762839156279277e-08 6.374914628135543" Properties=species:S:1:pos:R:3:forces:R:3 energy=-33.5110969543457 free_energy=-33.5110969543457 stress="8.065729343798012e-05 -4.6221579452776496e-08 -7.568689142090079e-08 -4.6221579452776496e-08 8.075826917774975e-05 -8.068339885092257e-10 -7.568689142090079e-08 -8.068339885092257e-10 8.055502985371277e-05" pbc="T T T"
Au       1.84027969       1.30127446       3.18745792       0.00000038       0.00000030       0.00000135
Au       5.52083758       3.90382156       9.56237146      -0.00000054       0.00000053       0.00000204
Cr       0.00000019       0.00000034       0.00000063      -0.00000205      -0.00000356      -0.00000315
Se       2.04811037       1.44823284       6.37491487       0.00051531       0.00036442       0.00000094
Se       5.31300690       3.75686277       6.37491615      -0.00051367      -0.00036386       0.00000055
Se       4.49678241       1.44823276       4.96117218      -0.00025699       0.00036494       0.00044332
Se       2.86433528       3.75686225       7.78865580       0.00025637      -0.00036198      -0.00044347
Se       2.86433397       3.75686241       4.96117213       0.00025833      -0.00036417       0.00044362
Se       4.49678251       1.44823332       7.78865684      -0.00025724       0.00036348      -0.00044517
