9
Lattice="5.456563724191006 3.173891112103893e-08 3.150348616489529 1.8188546043795049 5.144497671624132 3.150348616965077 6.932506756200938e-08 4.960266966286085e-08 6.300697112904491" Properties=species:S:1:pos:R:3:forces:R:3 energy=-27.209217071533203 free_energy=-27.209217071533203 stress="0.00017897452926263213 -1.7404158114686652e-08 1.502416746568258e-09 -1.7404158114686652e-08 0.00017896646750159562 6.9862178264656905e-09 1.502416746568258e-09 6.9862178264656905e-09 0.00017899650265462697" pbc="T T T"
Au       1.81885458       1.28612444       3.15034864       0.00000112      -0.00000014       0.00000109
Au       5.45656389       3.85837317       9.45104582       0.00000014      -0.00000084       0.00000057
Cu       0.00000014       0.00000006       0.00000014      -0.00000072      -0.00000072      -0.00000066
S        1.89543052       1.34027194       6.30069705      -0.00115651      -0.00081816      -0.00000037
S        5.37998767       3.80422601       6.30069718       0.00115746       0.00081813       0.00000053
S        4.50884835       1.34027182       4.79183964       0.00057861      -0.00081775      -0.00100300
S        2.76656999       3.80422584       7.80955471      -0.00057861       0.00081939       0.00100300
S        2.76657001       3.80422583       4.79183962      -0.00057933       0.00081813      -0.00100324
S        4.50884849       1.34027196       7.80955459       0.00057757      -0.00081807       0.00100225
