9
Lattice="4.647148406550318 -6.469440584370705e-10 2.6830324842409787 1.5490494312671064 4.381373744657954 2.683032548280214 2.3005021627371258e-08 9.469870887177407e-08 5.366064928636133" Properties=species:S:1:pos:R:3:forces:R:3 energy=-36.74468994140625 free_energy=-36.74468994140625 stress="-0.0006136088049970567 1.2152353789929293e-08 5.692218252306702e-09 1.2152353789929293e-08 -0.000613577663898468 3.51036177903552e-08 5.692218252306702e-09 3.51036177903552e-08 -0.0006135512376204133" pbc="T T T"
Au       1.54905004       1.09534370       2.68303269       0.00000574       0.00000139       0.00000075
Au       4.64714778       3.28603109       8.04909632      -0.00000620       0.00000607      -0.00000921
Co       0.00000003       0.00000003      -0.00000006      -0.00000295      -0.00000107       0.00000249
O        1.48117193       1.04734660       5.36606490      -0.00573349      -0.00405818      -0.00000202
O        4.71502610       3.33402704       5.36606602       0.00573665       0.00405699       0.00000846
O        3.90656212       1.04734667       3.96576513       0.00286528      -0.00405943      -0.00496995
O        2.28963566       3.33402672       6.76636496      -0.00286424       0.00405478       0.00497025
O        2.28963580       3.33402700       3.96576509      -0.00286689       0.00405651      -0.00496918
O        3.90656209       1.04734649       6.76636455       0.00286582      -0.00405794       0.00496787
