9
Lattice="4.5854445429369575 -2.771821883003595e-10 2.647407516461939 1.5284815025765648 4.323198609965447 2.647407536336212 -1.0146233649159476e-09 2.362344396368267e-08 5.294815034681276" Properties=species:S:1:pos:R:3:forces:R:3 energy=-33.306541442871094 free_energy=-33.306541442871094 stress="5.284453072817996e-05 -1.3666674902879095e-08 -2.3140170668511928e-08 -1.3666674902879095e-08 5.271555346553214e-05 -3.2306338937360124e-08 -2.3140170668511928e-08 -3.2306338937360124e-08 5.2836294344160706e-05" pbc="T T T"
Au       1.52848214       1.08080195       2.64740715       0.00000801       0.00002365      -0.00000475
Au       4.58544504       3.24239970       7.94222383       0.00000477       0.00000859       0.00001428
Cu       0.00000005      -0.00000015      -0.00000017       0.00000132      -0.00000146       0.00000404
O        1.52620837       1.07919185       5.29481536       0.00443655       0.00313163       0.00000370
O        4.58771807       3.24400570       5.29481414      -0.00443000      -0.00314173      -0.00000960
O        3.82234039       1.07919199       3.96914255      -0.00221771       0.00313529       0.00384092
O        2.29158476       3.24400594       6.62048772       0.00220746      -0.00314432      -0.00384027
O        2.29158556       3.24400574       3.96914192       0.00221533      -0.00314459       0.00383264
O        3.82233967       1.07919177       6.62048794      -0.00222579       0.00313294      -0.00384146
