9
Lattice="4.2511786045003195 -3.9024227919956825e-09 2.454418999225173 1.417059551478428 4.008049433813045 2.4544189640225866 4.220428379811163e-08 -1.3271251968862862e-08 4.908837925350384" Properties=species:S:1:pos:R:3:forces:R:3 energy=-39.241485595703125 free_energy=-39.241485595703125 stress="0.00012343242997303605 6.4442855496338325e-09 7.647993527371e-08 6.4442855496338325e-09 0.00012279390648473054 -2.2210965511249015e-08 7.647993527371e-08 -2.2210965511249015e-08 0.00012286702985875309" pbc="T T T"
Au       1.41705927       1.00201173       2.45441872      -0.00000376      -0.00000414      -0.00000349
Au       4.25117879       3.00603716       7.36325696      -0.00000011      -0.00000143      -0.00000017
C       -0.00000001      -0.00000013      -0.00000015      -0.00000131      -0.00000025       0.00000122
O        1.25609061       0.88819037       4.90883796       0.00074828       0.00053120       0.00000081
O        4.41214749       3.11985929       4.90883802      -0.00074863      -0.00052828       0.00000041
O        3.62313334       0.88819028       3.54222539      -0.00037307       0.00053173       0.00064909
O        2.04510489       3.11985920       6.27545068       0.00037688      -0.00053179      -0.00064921
O        2.04510496       3.11985965       3.54222572       0.00037545      -0.00052673       0.00065225
O        3.62313352       0.88819000       6.27545028      -0.00037301       0.00053024      -0.00065088
