9
Lattice="4.250849040111261 -8.922799321696991e-08 2.4542289353093416 1.4169495345133734 4.007738701802406 2.454229041655109 -5.062843850966457e-08 9.444669770847295e-08 4.908457958309738" Properties=species:S:1:pos:R:3:forces:R:3 energy=-39.241485595703125 free_energy=-39.241485595703125 stress="-0.00011481602996354923 1.5755028925923398e-07 5.4937448368264086e-08 1.5755028925923398e-07 -0.0001149994641309604 2.0936040812102874e-07 5.4937448368264086e-08 2.0936040812102874e-07 -0.0001145504429587163" pbc="T T T"
Au       1.41695162       1.00193442       2.45422978       0.00003084      -0.00000825       0.00001301
Au       4.25085197       3.00580498       7.36268915       0.00003642       0.00000038       0.00002053
C        0.00000438      -0.00000275       0.00000161      -0.00002012       0.00002285      -0.00000316
O        1.25611868       0.88821147       4.90845737      -0.00264120      -0.00184953      -0.00001084
O        4.41167731       3.11952752       4.90845696       0.00262928       0.00186580      -0.00000953
O        3.62278737       0.88821133       3.54206074       0.00130320      -0.00186443      -0.00229627
O        2.04500811       3.11952819       6.27485433      -0.00132704       0.00185770       0.00226951
O        2.04500798       3.11952847       3.54206034      -0.00132090       0.00184280      -0.00226808
O        3.62278690       0.88821075       6.27485359       0.00130856      -0.00186777       0.00228542
