9
Lattice="5.40840994913503 1.2516602334373887e-08 3.122546858859602 1.8028033395200254 5.099097755815471 3.122546839216567 -1.175120036988257e-08 -3.236705845585774e-08 6.245093738072888" Properties=species:S:1:pos:R:3:forces:R:3 energy=-32.8289680480957 free_energy=-32.8289680480957 stress="0.00043940491741523147 1.0584619403175566e-08 7.30156557438022e-09 1.0584619403175566e-08 0.00043943020864389837 6.447882672233618e-09 7.30156557438022e-09 6.447882672233618e-09 0.00043942776392214" pbc="T T T"
Au       1.80280323       1.27477419       3.12254702       0.00000004      -0.00000141      -0.00000018
Au       5.40841006       3.82432334       9.36764065       0.00000056       0.00000110      -0.00000115
Co      -0.00000001       0.00000006      -0.00000016      -0.00000033      -0.00000029       0.00000006
S        1.78641729       1.26318756       6.24509366      -0.00674489      -0.00476944       0.00000069
S        5.42479606       3.83591013       6.24509365       0.00674522       0.00477076       0.00000106
S        4.51520136       1.26318783       4.66962950       0.00337285      -0.00476986      -0.00584134
S        2.69601178       3.83591023       7.82055803      -0.00337239       0.00476968       0.00584069
S        2.69601186       3.83590994       4.66962956      -0.00337292       0.00476933      -0.00584078
S        4.51520152       1.26318764       7.82055781       0.00337207      -0.00476971       0.00584128
