9
Lattice="4.658026840543565 -6.803467446011073e-08 2.6893129399277718 1.5526755332826785 4.391629880269175 2.689312967793238 -1.8505509295901237e-07 -9.672561876191294e-08 5.3786262003803476" Properties=species:S:1:pos:R:3:forces:R:3 energy=-40.233070373535156 free_energy=-40.233070373535156 stress="-1.2409430382831488e-05 -9.007884216316597e-08 1.5510890349901274e-08 -9.007884216316597e-08 -1.2485854313126765e-05 9.806342404772295e-08 1.5510890349901274e-08 9.806342404772295e-08 -1.2619309927686118e-05" pbc="T T T"
Au       1.55267652       1.09790827       2.68931097       0.00000884       0.00000899      -0.00002690
Au       4.65802263       3.29372279       8.06793992      -0.00004828       0.00000762       0.00000767
Cr       0.00000005      -0.00000008      -0.00000065       0.00000082       0.00000148      -0.00000030
O        1.53482875       1.08528659       5.37862716       0.00003266       0.00000653       0.00001006
O        4.67587433       3.30634227       5.37862563      -0.00002486      -0.00001928      -0.00000425
O        3.89061296       1.08528718       4.01851307      -0.00000817       0.00001928       0.00001854
O        2.32009037       3.30634165       6.73873989       0.00002226      -0.00002125      -0.00000614
O        2.32009109       3.30634276       4.01851244       0.00003371      -0.00002116       0.00001526
O        3.89061195       1.08528745       6.73873978      -0.00001696       0.00001809      -0.00001365
