9
Lattice="4.6488349068498644 6.241386142298859e-08 2.6840060855384875 1.5496116910071722 4.3829636392581675 2.684006091520606 -1.0419548340162656e-09 6.589793100564069e-09 5.368012172881652" Properties=species:S:1:pos:R:3:forces:R:3 energy=-36.7447509765625 free_energy=-36.7447509765625 stress="-0.0005216575809754431 -1.2142153060779037e-08 -1.5992421609212215e-08 -1.2142153060779037e-08 -0.0005218071746639907 -4.701019307162824e-08 -1.5992421609212215e-08 -4.701019307162824e-08 -0.0005216043209657073" pbc="T T T"
Au       1.54961082       1.09573941       2.68400696      -0.00000635      -0.00001209       0.00000813
Au       4.64883575       3.28722318       8.05201818       0.00000564       0.00000173      -0.00000061
Co       0.00000008      -0.00000005       0.00000014       0.00000056       0.00000028       0.00000093
O        1.48079163       1.04707793       5.36801209       0.00729561       0.00515896      -0.00000193
O        4.71765471       3.33588630       5.36801228      -0.00729758      -0.00515574      -0.00000030
O        3.90843896       1.04707757       3.96640915      -0.00364915       0.00515813       0.00632030
O        2.29000730       3.33588666       6.76961451       0.00364885      -0.00515395      -0.00632596
O        2.29000732       3.33588615       3.96640932       0.00364730      -0.00515664       0.00632203
O        3.90843984       1.04707773       6.76961475      -0.00364402       0.00515920      -0.00632304
