9
Lattice="5.470339699544846 2.683671403970442e-08 3.1583020490478955 1.8234466088122276 5.157485598809911 3.1583020196110567 -1.3345334807051002e-08 -4.548922532156561e-08 6.316604121210614" Properties=species:S:1:pos:R:3:forces:R:3 energy=-34.371456146240234 free_energy=-34.371456146240234 stress="0.00040317687671631575 6.578107303312208e-08 -1.3079581862029954e-08 6.578107303312208e-08 0.00040314861689694226 -1.8760198727818533e-08 -1.3079581862029954e-08 -1.8760198727818533e-08 0.0004031380813103169" pbc="T T T"
Au       1.82344664       1.28937122       3.15830218       0.00000048      -0.00000074       0.00000011
Au       5.47033959       3.86811462       9.47490594       0.00000039       0.00000344      -0.00000086
Fe       0.00000015       0.00000018      -0.00000004      -0.00000222      -0.00000363       0.00000186
S        1.79120768       1.26657477       6.31660416      -0.00369596      -0.00261474       0.00000022
S        5.50257849       3.89091057       6.31660412       0.00370079       0.00261706       0.00000049
S        4.57473603       1.26657470       4.70953309       0.00184679      -0.00261360      -0.00319874
S        2.71905029       3.89091087       7.92367496      -0.00184736       0.00261116       0.00319868
S        2.71905039       3.89091074       4.70953339      -0.00184846       0.00261217      -0.00319993
S        4.57473588       1.26657465       7.92367494       0.00184602      -0.00261104       0.00319821
