9
Lattice="5.677504657961135 2.061432515775796e-08 3.2779088403458756 1.892501564374005 5.352802715200567 3.277908853708895 7.399488191288566e-08 6.868854663489366e-08 6.555817552528951" Properties=species:S:1:pos:R:3:forces:R:3 energy=-33.07672119140625 free_energy=-33.07672119140625 stress="-5.728827090933919e-05 9.81681225198372e-09 1.2927466208623173e-08 9.81681225198372e-09 -5.7292618294013664e-05 -8.42892777797033e-09 1.2927466208623173e-08 -8.42892777797033e-09 -5.730453267460689e-05" pbc="T T T"
Au       1.89250146       1.33820045       3.27790878       0.00000011       0.00000004      -0.00000004
Au       5.67750471       4.01460233       9.83372636      -0.00000012       0.00000037      -0.00000074
Fe       0.00000020       0.00000001      -0.00000014      -0.00000491      -0.00000090      -0.00000587
Se       1.85902205       1.31452704       6.55581771       0.00227278       0.00160593      -0.00000034
Se       5.71098422       4.03827567       6.55581789      -0.00226924      -0.00160429       0.00000102
Se       4.74799377       1.31452699       4.88786899      -0.00113633       0.00160766       0.00196820
Se       2.82201254       4.03827574       8.22376618       0.00113513      -0.00160524      -0.00196618
Se       2.82201249       4.03827582       4.88786893       0.00113660      -0.00160730       0.00196794
Se       4.74799369       1.31452713       8.22376642      -0.00113431       0.00160381      -0.00196385
