9
Lattice="4.620206503779237 -6.650036828298003e-08 2.6674775845186693 1.5400687943984372 4.35597233667859 2.6674775455431883 -2.8461458680204474e-08 -6.786033240696859e-08 5.334955218334049" Properties=species:S:1:pos:R:3:forces:R:3 energy=-37.074462890625 free_energy=-37.074462890625 stress="3.7423837966343854e-06 -4.680705600890178e-08 -9.575697568209307e-09 -4.680705600890178e-08 3.739052772289142e-06 3.279196292282904e-08 -9.575697568209307e-09 3.279196292282904e-08 3.789264837905648e-06" pbc="T T T"
Au       1.54006842       1.08899412       2.66747726      -0.00000604       0.00001038      -0.00000330
Au       4.62020478       3.26697850       8.00243316      -0.00001363      -0.00000676       0.00000154
Fe       0.00000003      -0.00000005      -0.00000043       0.00000180       0.00000040       0.00000941
O        1.52429091       1.07783576       5.33495531      -0.00080088      -0.00056800      -0.00000005
O        4.63598493       3.27813532       5.33495491       0.00080642       0.00056371      -0.00000165
O        3.85806172       1.07783686       3.98755238       0.00040869      -0.00056928      -0.00070152
O        2.30221454       3.27813569       6.68235829      -0.00039935       0.00056547       0.00069878
O        2.30221470       3.27813568       3.98755164      -0.00039919       0.00056586      -0.00070056
O        3.85806099       1.07783665       6.68235892       0.00040217      -0.00056151       0.00069702
