9
Lattice="5.468582526707225 1.0910783924139164e-07 3.1572874612690702 1.8228608984008638 5.155829490109414 3.1572875421605855 -2.290757977174222e-08 8.287334767427884e-08 6.314574962215284" Properties=species:S:1:pos:R:3:forces:R:3 energy=-34.371482849121094 free_energy=-34.371482849121094 stress="-0.00021484168246388435 -2.5560206395880414e-08 4.270488673796535e-08 -2.5560206395880414e-08 -0.0002148819185094908 1.3468372195291067e-08 4.270488673796535e-08 1.3468372195291067e-08 -0.00021481745352502912" pbc="T T T"
Au       1.82286122       1.28895778       3.15728736       0.00000073       0.00000048       0.00000014
Au       5.46858205       3.86687171       9.47186282      -0.00000141      -0.00000154       0.00000169
Fe       0.00000016      -0.00000029       0.00000016      -0.00000315       0.00000490       0.00000118
S        1.79068802       1.26620775       6.31457455       0.00562888       0.00398016       0.00000023
S        5.50075512       3.88962228       6.31457461      -0.00562984      -0.00397921      -0.00000063
S        4.57323828       1.26620794       4.70806876      -0.00281206       0.00397819       0.00487089
S        2.71820456       3.88962146       7.92108138       0.00281471      -0.00398308      -0.00487608
S        2.71820528       3.88962168       4.70806888       0.00281450      -0.00397950       0.00487393
S        4.57323865       1.26620823       7.92108116      -0.00281253       0.00397974      -0.00487202
