9
Lattice="4.620249272176912 -2.0196621923905294e-08 2.6675020915397942 1.5400830815799742 4.356012826345071 2.667502074399596 4.160207478897718e-08 8.424726062200524e-09 5.335004111022681" Properties=species:S:1:pos:R:3:forces:R:3 energy=-37.074462890625 free_energy=-37.074462890625 stress="1.6887443052837625e-05 -3.3982727742909447e-09 1.48558934043308e-08 -3.3982727742909447e-09 1.6857546143000945e-05 -4.042306400720008e-08 1.48558934043308e-08 -4.042306400720008e-08 1.6847010556375608e-05" pbc="T T T"
Au       1.54008115       1.08900091       2.66750265      -0.00001776      -0.00001918       0.00000562
Au       4.62024990       3.26701105       8.00250610       0.00000444       0.00001096       0.00000111
Fe       0.00000002       0.00000002       0.00000008       0.00000158       0.00000103      -0.00000296
O        1.52428123       1.07782920       5.33500410      -0.00045803      -0.00032949      -0.00000137
O        4.63605137       3.27818380       5.33500404       0.00045851       0.00032923      -0.00000035
O        3.85810918       1.07782883       3.98756848       0.00023036      -0.00032702      -0.00039116
O        2.30222365       3.27818446       6.68243959      -0.00022559       0.00033349       0.00039074
O        2.30222344       3.27818392       3.98756852      -0.00023024       0.00033161      -0.00039259
O        3.85810964       1.07782905       6.68243948       0.00023669      -0.00033033       0.00039068
