9
Lattice="5.664955692483065 -1.372251623326952e-07 3.270663754814624 1.8883185089521122 5.340971287093958 3.2706636263515882 1.0619006527615552e-07 -8.22468165954232e-08 6.541327325702756" Properties=species:S:1:pos:R:3:forces:R:3 energy=-28.918106079101562 free_energy=-28.918106079101562 stress="5.416531712398864e-05 5.666360269884763e-09 7.332564333495384e-09 5.666360269884763e-09 5.413452527136542e-05 -3.735469267240887e-09 7.332564333495384e-09 -3.735469267240887e-09 5.4137544793775305e-05" pbc="T T T"
Au       1.88831847       1.33524265       3.27066359      -0.00000029      -0.00000084      -0.00000092
Au       5.66495585       4.00572822       9.81199113      -0.00000051      -0.00000110      -0.00000070
Ge      -0.00000042       0.00000011      -0.00000012       0.00000161      -0.00000037      -0.00000015
Se       2.21302216       1.56484244       6.54132723      -0.00055496      -0.00039028       0.00000204
Se       5.34025298       3.77612838       6.54132707       0.00055155       0.00039315       0.00000208
Se       4.55844470       1.56484303       5.18719703       0.00027814      -0.00039239      -0.00048266
Se       2.99482891       3.77612918       7.89545873      -0.00027442       0.00038841       0.00047581
Se       2.99482942       3.77612804       5.18719644      -0.00027751       0.00039294      -0.00047766
Se       4.55844516       1.56484227       7.89545771       0.00027640      -0.00038949       0.00048214
