9
Lattice="5.5820943628622395 -6.504102868438338e-08 3.22282366392063 1.8606980631784964 5.262848757147148 3.2228236577793417 2.080440948263525e-08 7.18941146665356e-09 6.445647291806982" Properties=species:S:1:pos:R:3:forces:R:3 energy=-28.095579147338867 free_energy=-28.095579147338867 stress="0.00025048438692465425 -1.4665215708475898e-08 2.5688747129493095e-08 -1.4665215708475898e-08 0.00025055313017219305 -1.2127673976181086e-08 2.5688747129493095e-08 -1.2127673976181086e-08 0.0002505041193217039" pbc="T T T"
Au       1.86069745       1.31571310       3.22282381      -0.00000302       0.00000619       0.00000016
Au       5.58209415       3.94713593       9.66847081      -0.00000117      -0.00000458      -0.00000322
Ge       0.00000010       0.00000004       0.00000016      -0.00000092      -0.00000117       0.00000169
S        1.91357845       1.35310444       6.44564700       0.00076938       0.00054359      -0.00000129
S        5.52921443       3.90974368       6.44564721      -0.00076532      -0.00054836       0.00000253
S        4.62530540       1.35310455       4.88003128      -0.00038347       0.00054547       0.00066525
S        2.81748720       3.90974389       8.01126344       0.00038317      -0.00054666      -0.00066513
S        2.81748728       3.90974419       4.88003126       0.00038275      -0.00054374       0.00066453
S        4.62530535       1.35310498       8.01126347      -0.00038156       0.00054911      -0.00066435
