9
Lattice="5.583057463945626 3.294492825286815e-08 3.2233799466566344 1.8610191144749852 5.2637574485365795 3.223380070038081 -1.5289845627027655e-07 4.2995318684395605e-08 6.4467601581411085" Properties=species:S:1:pos:R:3:forces:R:3 energy=-28.095542907714844 free_energy=-28.095542907714844 stress="0.00032032030867412686 -6.430918375599504e-08 -1.085979084436417e-09 -6.430918375599504e-08 0.00032032420858740807 1.4728961161836196e-08 -1.085979084436417e-09 1.4728961161836196e-08 0.0003203327360097319" pbc="T T T"
Au       1.86101892       1.31593790       3.22337936      -0.00000320      -0.00000952      -0.00000357
Au       5.58305621       3.94781812       9.67013928      -0.00000481       0.00000170      -0.00000342
Ge      -0.00000002      -0.00000037       0.00000114      -0.00000212       0.00000865      -0.00001296
S        1.91333416       1.35293163       6.44676029       0.00456154       0.00322512       0.00000009
S        5.53074224       3.91082655       6.44676017      -0.00456744      -0.00322324       0.00000114
S        4.62639046       1.35293142       4.88037681      -0.00227875       0.00322399       0.00395274
S        2.81768683       3.91082592       8.01314375       0.00228274      -0.00322011      -0.00394845
S        2.81768678       3.91082648       4.88037610       0.00228804      -0.00322667       0.00395656
S        4.62639005       1.35293238       8.01314388      -0.00227615       0.00322008      -0.00394237
