9
Lattice="5.664547198090074 5.288777226530337e-07 3.2704282875485085 1.8881829471695477 5.340585871809777 3.2704282023739353 1.5536791808859598e-07 5.544608624024026e-09 6.5408563059919524" Properties=species:S:1:pos:R:3:forces:R:3 energy=-28.918106079101562 free_energy=-28.918106079101562 stress="-2.4851959096849896e-05 4.5121733904807115e-08 -1.962129836385884e-08 4.5121733904807115e-08 -2.4868733817129396e-05 -3.039984264319173e-08 -1.962129836385884e-08 -3.039984264319173e-08 -2.5002804250107147e-05" pbc="T T T"
Au       1.88818290       1.33514600       3.27042801       0.00000100      -0.00000100       0.00000074
Au       5.66454787       4.00543989       9.81128248       0.00000045       0.00000019       0.00000386
Ge       0.00000159      -0.00000035       0.00000084      -0.00000551       0.00000104      -0.00000301
Se       2.21277428       1.56466745       6.54085677      -0.00096481      -0.00068177      -0.00000234
Se       5.33995542       3.77591847       6.54085715       0.00096539       0.00068392      -0.00000577
Se       4.55816127       1.56466661       5.18674549       0.00048004      -0.00067565      -0.00083566
Se       2.99456952       3.77591887       7.89496802      -0.00048431       0.00068352       0.00083512
Se       2.99456717       3.77591978       5.18674557      -0.00047795       0.00067591      -0.00083186
Se       4.55816133       1.56466881       7.89496672       0.00048564      -0.00068621       0.00083891
