9
Lattice="4.573498056974937 -1.7922475792287486e-08 2.6405104078908197 1.5244993589334583 4.311935196424303 2.6405103671772956 9.803886175446496e-08 1.946028278094473e-08 5.281020645973331" Properties=species:S:1:pos:R:3:forces:R:3 energy=-37.582740783691406 free_energy=-37.582740783691406 stress="-0.00023653970856685191 -3.222688960136111e-08 -6.416007636289578e-08 -3.222688960136111e-08 -0.00023630882787983865 -1.2142309380180905e-10 -6.416007636289578e-08 -1.2142309380180905e-10 -0.00023641179723199457" pbc="T T T"
Au       1.52449906       1.07798294       2.64051032      -0.00000347      -0.00000713      -0.00000023
Au       4.57349809       3.23395072       7.92153165      -0.00000119      -0.00000897       0.00000586
Ge      -0.00000002      -0.00000002      -0.00000006      -0.00000095      -0.00000538       0.00000540
O        1.53730002       1.08703568       5.28102079       0.00042403       0.00030446      -0.00000060
O        4.56069752       3.22490003       5.28102064      -0.00042331      -0.00029951      -0.00000131
O        3.80484863       1.08703560       3.97185134      -0.00020635       0.00030315       0.00036776
O        2.29314940       3.22490041       6.59018951       0.00021166      -0.00029492      -0.00037229
O        2.29314983       3.22489993       3.97185110       0.00021464      -0.00029677       0.00036442
O        3.80484767       1.08703547       6.59019044      -0.00021499       0.00030434      -0.00036895
