9
Lattice="5.703490650834209 -3.513882372872407e-07 3.2929117756790185 1.901163205248175 5.377301983463897 3.292911799473673 -1.1762788077408991e-07 -5.4033076438878186e-08 6.585823755095514" Properties=species:S:1:pos:R:3:forces:R:3 energy=-34.686580657958984 free_energy=-34.686580657958984 stress="0.00015182531205937266 4.911107520655378e-09 1.0548457396453159e-07 4.911107520655378e-09 0.0001521238882560283 -4.234251704815506e-08 1.0548457396453159e-07 -4.234251704815506e-08 0.00015204153896775097" pbc="T T T"
Au       1.90116328       1.34432589       3.29291180       0.00000023      -0.00000080       0.00000088
Au       5.70349110       4.03297513       9.87873603       0.00000024       0.00000019       0.00000038
Hf      -0.00000099      -0.00000057       0.00000027       0.00000455       0.00000280      -0.00000394
Se       2.14397120       1.51601683       6.58582369      -0.00297526      -0.00210056       0.00000161
Se       5.46068446       3.86128565       6.58582318       0.00298105       0.00210364      -0.00000068
Se       4.63150564       1.51601616       5.14964548       0.00148814      -0.00210653      -0.00257584
Se       2.97314721       3.86128523       8.02200259      -0.00149341       0.00210063       0.00257961
Se       2.97314849       3.86128491       5.14964507      -0.00149423       0.00210477      -0.00258136
Se       4.63150461       1.51601712       8.02200118       0.00148870      -0.00210418       0.00257939
