9
Lattice="4.7286133846928555 -2.416340102276036e-07 2.7300662274255076 1.5762043336493698 4.458179244155888 2.7300660543939412 2.0416785363669855e-08 -1.974826446584863e-07 5.4601324194881045" Properties=species:S:1:pos:R:3:forces:R:3 energy=-46.149261474609375 free_energy=-46.149261474609375 stress="-0.00021428137551993132 -1.512987211071959e-07 6.709542255123324e-09 -1.512987211071959e-07 -0.00021433396614156663 2.0236047504340604e-08 6.709542255123324e-09 2.0236047504340604e-08 -0.0002142354496754706" pbc="T T T"
Au       1.57620254       1.11454404       2.73006665      -0.00002679      -0.00001104       0.00000626
Au       4.72861351       3.34363295       8.19019939       0.00000152      -0.00001365       0.00001453
Hf       0.00000022      -0.00000027       0.00000021       0.00000026      -0.00000207      -0.00000225
O        1.68837263       1.19385949       5.46013243       0.00176793       0.00125226      -0.00000059
O        4.61644518       3.26431916       5.46013215      -0.00176281      -0.00124830      -0.00000545
O        3.88442749       1.19386035       4.19223992      -0.00087121       0.00125387       0.00152239
O        2.42039060       3.26431985       6.72802380       0.00087968      -0.00123882      -0.00153232
O        2.42039088       3.26431983       4.19224016       0.00088029      -0.00123948       0.00152746
O        3.88442796       1.19385962       6.72802423      -0.00086865       0.00124702      -0.00153005
