9
Lattice="5.585197448020225 -1.3598309095063123e-07 3.2246155227263333 1.861732437812506 5.26577451885088 3.224615378368235 1.0104138496632556e-07 -1.0535476417258484e-07 6.44923087044382" Properties=species:S:1:pos:R:3:forces:R:3 energy=-36.52191162109375 free_energy=-36.52191162109375 stress="3.986147203249857e-05 5.155779803089899e-09 -3.019636984902263e-09 5.155779803089899e-09 3.985239163739607e-05 -4.2496868246644226e-08 -3.019636984902263e-09 -4.2496868246644226e-08 3.990746699855663e-05" pbc="T T T"
Au       1.86173291       1.31644486       3.22461516       0.00000134       0.00000456       0.00000021
Au       5.58519739       3.94933107       9.67384700       0.00000056       0.00000136       0.00000334
Hf      -0.00000002      -0.00000053       0.00000063      -0.00000073       0.00000108      -0.00000252
S        2.03196279       1.43681439       6.44923075      -0.00110535      -0.00078220       0.00000091
S        5.41496720       3.82895950       6.44923045       0.00110368       0.00078009      -0.00000094
S        4.56921572       1.43681442       4.98434703       0.00055172      -0.00078116      -0.00095858
S        2.87771377       3.82895931       7.91411478      -0.00055256       0.00077959       0.00095659
S        2.87771425       3.82895959       4.98434671      -0.00055201       0.00078086      -0.00095735
S        4.56921589       1.43681452       7.91411464       0.00055333      -0.00078415       0.00095838
