9
Lattice="5.578311285767094 -2.1114523452135005e-07 3.2206403721052728 1.859436872809856 5.259283144860985 3.220640412594133 -8.958471123647336e-10 4.8955038591015594e-08 6.4412807457622" Properties=species:S:1:pos:R:3:forces:R:3 energy=-33.161293029785156 free_energy=-33.161293029785156 stress="5.3075265896040946e-05 -5.234101507767264e-08 1.941243787939584e-08 -5.234101507767264e-08 5.298370524542406e-05 -2.7280989911560027e-08 1.941243787939584e-08 -2.7280989911560027e-08 5.2992494602221996e-05" pbc="T T T"
Au       1.85943750       1.31481980       3.22064045      -0.00000090      -0.00000065      -0.00000004
Au       5.57831102       3.94446170       9.66192108       0.00000030      -0.00000119       0.00000087
Ir      -0.00000079      -0.00000141       0.00000060       0.00000507       0.00001002      -0.00000295
Se       2.07385617       1.46643796       6.44128087       0.00038725       0.00027257       0.00000079
Se       5.36389094       3.79284540       6.44128077      -0.00038696      -0.00027546       0.00000085
Se       4.54138328       1.46643881       5.01665231      -0.00019339       0.00027092       0.00033350
Se       2.89636587       3.79284534       7.86590747       0.00019173      -0.00027448      -0.00033257
Se       2.89636586       3.79284547       5.01665383       0.00019064      -0.00027260       0.00033249
Se       4.54138278       1.46643886       7.86590870      -0.00019373       0.00027085      -0.00033297
