9
Lattice="4.822329297909598 7.844624175663563e-08 2.784172943559333 1.6074431862921859 4.546535662886452 2.784172920992121 -1.0831275161436426e-08 -3.5297975505071656e-08 5.568345905878984" Properties=species:S:1:pos:R:3:forces:R:3 energy=-41.57375717163086 free_energy=-41.57375717163086 stress="-9.357280760013964e-06 8.378762572647247e-08 -5.540200742615298e-09 8.378762572647247e-08 -9.30065471038688e-06 6.039126532186856e-08 -5.540200742615298e-09 6.039126532186856e-08 -9.440133908356074e-06" pbc="T T T"
Au       1.60744394       1.13663380       2.78417287       0.00000629       0.00000225      -0.00000117
Au       4.82233011       3.40990215       8.35251969       0.00000568       0.00000227       0.00000851
Ir      -0.00000005       0.00000009      -0.00000006      -0.00001441       0.00000579      -0.00000679
O        1.52504949       1.07837301       5.56834606       0.00257219       0.00181907      -0.00000007
O        4.90472318       3.46816231       5.56834553      -0.00256813      -0.00181351      -0.00000283
O        4.05980429       1.07837325       4.10490427      -0.00128849       0.00181879       0.00222483
O        2.36996721       3.46816246       7.03178729       0.00128548      -0.00182255      -0.00223334
O        2.36996745       3.46816309       4.10490410       0.00129060      -0.00182691       0.00223760
O        4.05980431       1.07837261       7.03178728      -0.00128925       0.00181462      -0.00222635
