9
Lattice="4.581526862227073 -2.8631139640158787e-08 2.6451456601978145 1.527175554773285 4.319504955777927 2.645145727705125 -1.2401748776480588e-08 7.390986450721386e-08 5.290291341876114" Properties=species:S:1:pos:R:3:forces:R:3 energy=-32.58845138549805 free_energy=-32.58845138549805 stress="-2.2213305783225223e-05 -7.39325116683176e-08 -6.243381989179397e-08 -7.39325116683176e-08 -2.1938338250038214e-05 -6.825863607673455e-08 -6.243381989179397e-08 -6.825863607673455e-08 -2.2051795895094983e-05" pbc="T T T"
Au       1.52717709       1.07987497       2.64514391       0.00001098      -0.00001434      -0.00001623
Au       4.58152701       3.23962986       7.93543667       0.00000797       0.00001202      -0.00000525
Mg       0.00000019       0.00000016      -0.00000005       0.00000068      -0.00000082      -0.00000315
O        1.60958339       1.13814713       5.29029148      -0.00007732      -0.00005915       0.00000666
O        4.49911928       3.18135721       5.29029064       0.00007695       0.00005908      -0.00000214
O        3.77673447       1.13814606       4.03908628       0.00003311      -0.00006569      -0.00006517
O        2.33196709       3.18135803       6.54149697      -0.00004023       0.00005840       0.00006961
O        2.33196768       3.18135911       4.03908718      -0.00003974       0.00007028      -0.00006348
O        3.77673354       1.13814759       6.54149789       0.00002762      -0.00005981       0.00007915
