9
Lattice="5.6728949976675045 -7.041679754734468e-08 3.2752473559222217 1.8909649404602054 5.348456607315608 3.2752473427113147 3.4308941615846684e-08 8.080130941671497e-09 6.550494652419607" Properties=species:S:1:pos:R:3:forces:R:3 energy=-25.725704193115234 free_energy=-25.725704193115234 stress="-0.00020846701227128506 3.055848196709121e-08 5.5467939574782577e-08 3.055848196709121e-08 -0.00020839912758674473 -3.741216225705557e-09 5.5467939574782577e-08 -3.741216225705557e-09 -0.0002083451981889084" pbc="T T T"
Au       1.89096492       1.33711418       3.27524736       0.00000067      -0.00000034       0.00000037
Au       5.67289476       4.01134254       9.82574209      -0.00000044       0.00000033       0.00000025
Mg      -0.00000000       0.00000016      -0.00000017       0.00000086      -0.00000106       0.00000073
Se       2.21199261       1.56411560       6.55049557      -0.00655657      -0.00463370      -0.00000021
Se       5.35186756       3.78434139       6.55049505       0.00655194       0.00463355      -0.00000024
Se       4.56689909       1.56411488       5.19088959       0.00327724      -0.00463101      -0.00567554
Se       2.99696090       3.78434126       7.91009939      -0.00327830       0.00463629       0.00567335
Se       2.99696126       3.78434104       5.19088929      -0.00327538       0.00463252      -0.00567489
Se       4.56689882       1.56411520       7.91009924       0.00328003      -0.00463663       0.00567614
