9
Lattice="4.705295500864124 -6.243059212439649e-09 2.7166036999833088 1.5684318484803406 4.4361949854269 2.7166036640519766 1.1185235578197665e-07 3.508482502655225e-08 5.433207206232665" Properties=species:S:1:pos:R:3:forces:R:3 energy=-43.035438537597656 free_energy=-43.035438537597656 stress="-1.2150157090218272e-05 6.999092505566296e-08 -1.0064987066016329e-07 6.999092505566296e-08 -1.1756541425711475e-05 5.727926577492326e-08 -1.0064987066016329e-07 5.727926577492326e-08 -1.240407073055394e-05" pbc="T T T"
Au       1.56843224       1.10904912       2.71660379       0.00000133       0.00000699      -0.00000007
Au       4.70529578       3.32714602       8.14981048      -0.00000063      -0.00000431      -0.00000560
Mn       0.00000003       0.00000001       0.00000026      -0.00001090      -0.00000020      -0.00001652
O        1.55068375       1.09649904       5.43320709       0.00493544       0.00349182      -0.00000343
O        4.72304358       3.33969578       5.43320756      -0.00492215      -0.00347745       0.00000208
O        3.92995359       1.09649897       4.05953537      -0.00247365       0.00348836       0.00426883
O        2.34377371       3.33969579       6.80687940       0.00246295      -0.00348377      -0.00427139
O        2.34377341       3.33969599       4.05953499       0.00247097      -0.00350338       0.00429004
O        3.92995377       1.09649939       6.80687934      -0.00246319       0.00348192      -0.00426418
