9
Lattice="4.67329025029687 -3.6248856052120395e-08 2.6981252122788995 1.5577633516364935 4.406020156100155 2.698125265891689 -1.5038334066225724e-08 5.502830163335834e-08 5.396250450604941" Properties=species:S:1:pos:R:3:forces:R:3 energy=-41.64669418334961 free_energy=-41.64669418334961 stress="-0.0001860010961536318 -1.2261982362815615e-07 -3.221616751147849e-08 -1.2261982362815615e-07 -0.00018591205298434943 -2.624742023726867e-08 -3.221616751147849e-08 -2.624742023726867e-08 -0.00018579249444883317" pbc="T T T"
Au       1.55776037       1.10150503       2.69812463      -0.00002824       0.00000025      -0.00000742
Au       4.67328939       3.30451518       8.09437676      -0.00001462       0.00000182       0.00000752
Mo      -0.00000021      -0.00000007      -0.00000001      -0.00000746       0.00000270       0.00000006
O        1.58157649       1.11834237       5.39625063       0.00342727       0.00241637       0.00000309
O        4.64947860       3.28767744       5.39625002      -0.00341976      -0.00242579      -0.00000312
O        3.88250335       1.11834328       4.06781038      -0.00169194       0.00241882       0.00296402
O        2.34855157       3.28767698       6.72469079       0.00171244      -0.00241673      -0.00296068
O        2.34855196       3.28767739       4.06781004       0.00171804      -0.00241393       0.00295997
O        3.88250289       1.11834312       6.72469045      -0.00169605       0.00241649      -0.00296390
