9
Lattice="5.722174691719157 -2.046099959137059e-07 3.303699216761432 1.9073913983203157 5.3949179037325345 3.303699169438144 5.149428605023913e-08 -2.1546923389590425e-08 6.607398344332076" Properties=species:S:1:pos:R:3:forces:R:3 energy=-33.59555435180664 free_energy=-33.59555435180664 stress="-5.914176654187031e-05 -5.411851944359114e-08 -2.7017896600534108e-11 -5.411851944359114e-08 -5.90581948927138e-05 2.1818158391084808e-09 -2.7017896600534108e-11 2.1818158391084808e-09 -5.905334546696395e-05" pbc="T T T"
Au       1.90739109       1.34872960       3.30369907      -0.00000087       0.00000001       0.00000061
Au       5.72217447       4.04618804       9.91109828       0.00000029      -0.00000081       0.00000148
Mn      -0.00000017      -0.00000014       0.00000020       0.00000261       0.00000155       0.00000015
Se       1.91027286       1.35076673       6.60739836       0.00378403       0.00267553       0.00000038
Se       5.71929393       4.04415104       6.60739788      -0.00378543      -0.00267720      -0.00000012
Se       4.76703811       1.35076726       4.95804425      -0.00189024       0.00267315       0.00327322
Se       2.86252768       4.04415061       8.25675240       0.00188960      -0.00267303      -0.00327486
Se       2.86252838       4.04415061       4.95804419       0.00188988      -0.00267234       0.00327343
Se       4.76703816       1.35076684       8.25675233      -0.00188969       0.00267315      -0.00327426
