9
Lattice="5.59753918148456 -2.210881098190323e-08 3.2317408256942133 1.8658463880428302 5.277410735296207 3.2317407996112237 3.793350715523099e-08 -5.12199235913335e-09 6.463481585685677" Properties=species:S:1:pos:R:3:forces:R:3 energy=-24.675647735595703 free_energy=-24.675647735595703 stress="0.00014507609012071043 1.7302651755812803e-08 -6.634613747280582e-09 1.7302651755812803e-08 0.00014514723443426192 1.0385450721628331e-08 -6.634613747280582e-09 1.0385450721628331e-08 0.00014508111053146422" pbc="T T T"
Au       1.86584677       1.31935274       3.23174096       0.00000093       0.00000031       0.00000116
Au       5.59753892       3.95805776       9.69522323      -0.00000158      -0.00000224       0.00000213
Mg       0.00000005      -0.00000008       0.00000042      -0.00000027      -0.00000032      -0.00000349
S        2.05492049       1.45304814       6.46348143      -0.00015233      -0.00010895      -0.00000032
S        5.40846530       3.82436180       6.46348130       0.00015432       0.00010554      -0.00000102
S        4.57007891       1.45304836       5.01135365       0.00007488      -0.00010590      -0.00013269
S        2.89330656       3.82436235       7.91560888      -0.00007723       0.00010762       0.00013102
S        2.89330683       3.82436291       5.01135384      -0.00007328       0.00010889      -0.00013074
S        4.57007860       1.45304889       7.91560918       0.00007455      -0.00010474       0.00013393
