9
Lattice="5.799283532414736 -7.403037533405584e-08 3.348217915471305 1.933094443888524 5.467616924673293 3.3482179104827425 -3.0812649555520527e-08 -2.7897568996294275e-08 6.69643588431168" Properties=species:S:1:pos:R:3:forces:R:3 energy=-35.534664154052734 free_energy=-35.534664154052734 stress="-1.106860327126924e-05 -1.3026275169636392e-08 -8.335937273784566e-09 -1.3026275169636392e-08 -1.1051626643165946e-05 1.840697905208799e-08 -8.335937273784566e-09 1.840697905208799e-08 -1.1045751307392493e-05" pbc="T T T"
Au       1.93309425       1.36690421       3.34821785      -0.00000046       0.00000028      -0.00000017
Au       5.79928342       4.10071297      10.04465312      -0.00000032       0.00000038      -0.00000090
Mo      -0.00000017      -0.00000001       0.00000008       0.00000071      -0.00000133       0.00000335
Se       1.96959930       1.39271687       6.69643574       0.00056483       0.00039946       0.00000042
Se       5.76277883       4.07489983       6.69643616      -0.00056465      -0.00039900       0.00000002
Se       4.81448365       1.39271687       5.05394107      -0.00028094       0.00039709       0.00048776
Se       2.91789424       4.07489978       8.33893089       0.00028188      -0.00039912      -0.00048926
Se       2.91789436       4.07489974       5.05394096       0.00028161      -0.00039789       0.00048879
Se       4.81448390       1.39271698       8.33893092      -0.00028261       0.00040016      -0.00049005
