9
Lattice="5.5320983660686425 -2.3728907159903532e-08 3.193958361576062 1.8440327461890889 5.215712215300013 3.1939583964398364 3.764113459075476e-09 4.536086895362396e-08 6.38791671663246" Properties=species:S:1:pos:R:3:forces:R:3 energy=-37.97845458984375 free_energy=-37.97845458984375 stress="1.2246243386471178e-05 -1.18540768312414e-08 -1.8464255902017612e-08 -1.18540768312414e-08 1.2267812962818425e-05 -3.544456461668233e-08 -1.8464255902017612e-08 -3.544456461668233e-08 1.2271840205357876e-05" pbc="T T T"
Au       1.84403293       1.30392778       3.19395856       0.00000050      -0.00000116       0.00000022
Au       5.53209853       3.91178344       9.58187356       0.00000072      -0.00000219      -0.00000300
Mo      -0.00000008       0.00000009       0.00000058       0.00000165       0.00000058      -0.00000416
S        1.88744220       1.33462342       6.38791648      -0.00027269      -0.00019132       0.00000025
S        5.48868879       3.88108902       6.38791729       0.00027096       0.00019182       0.00000012
S        4.58837697       1.33462323       4.82853150       0.00013462      -0.00018877      -0.00023299
S        2.78775428       3.88108904       7.94730192      -0.00013712       0.00019431       0.00023723
S        2.78775376       3.88108925       4.82853193      -0.00013550       0.00019147      -0.00023517
S        4.58837710       1.33462365       7.94730204       0.00013703      -0.00019459       0.00023764
