9
Lattice="4.577365444285045 -4.093237351986992e-09 2.6427432515231377 1.5257884554579215 4.31558179563173 2.6427432898210186 4.295714000301646e-08 7.728042489485937e-08 5.2854864286423355" Properties=species:S:1:pos:R:3:forces:R:3 energy=-32.896278381347656 free_energy=-32.896278381347656 stress="-0.0003130477271042764 1.796998994052501e-08 -2.0754772123154908e-08 1.796998994052501e-08 -0.0003131106495857239 1.1321285242615886e-08 -2.0754772123154908e-08 1.1321285242615886e-08 -0.00031294499058276415" pbc="T T T"
Au       1.52578509       1.07889251       2.64274335      -0.00002953      -0.00002445      -0.00000202
Au       4.57736673       3.23668927       7.92822676       0.00000966       0.00002521      -0.00002697
Ni       0.00000006       0.00000011       0.00000019       0.00000126      -0.00000308       0.00000304
O        1.48879534       1.05273618       5.28548666       0.00383548       0.00270106       0.00000123
O        4.61435907       3.26284539       5.28548756      -0.00382911      -0.00270393       0.00001099
O        3.83296842       1.05273552       3.93207881      -0.00191046       0.00269292       0.00333010
O        2.27018675       3.26284608       6.63889507       0.00191984      -0.00269521      -0.00331952
O        2.27018492       3.26284571       3.93207899       0.00190520      -0.00269556       0.00332811
O        3.83296939       1.05273672       6.63889459      -0.00190239       0.00270294      -0.00332503
