9
Lattice="5.510245675685326 -3.371707544549136e-08 3.1813417732151175 1.8367484907055653 5.19510933476145 3.181341835685783 -6.546162634258572e-08 3.0222237404229034e-08 6.362683659813123" Properties=species:S:1:pos:R:3:forces:R:3 energy=-31.108360290527344 free_energy=-31.108360290527344 stress="-3.7313864140742226e-06 2.490328165904998e-09 -1.4937629799760543e-08 2.490328165904998e-09 -3.697555484905024e-06 3.606719900517419e-08 -1.4937629799760543e-08 3.606719900517419e-08 -3.7245852126943646e-06" pbc="T T T"
Au       1.83674877       1.29877738       3.18134171       0.00000103       0.00000052      -0.00000062
Au       5.51024581       3.89633240       9.54402607       0.00000149       0.00000196       0.00000276
Ni      -0.00000012      -0.00000005       0.00000001      -0.00000438      -0.00000162       0.00000401
S        1.76379960       1.24719474       6.36268356       0.00019202       0.00013563       0.00000022
S        5.58319422       3.94791459       6.36268337      -0.00018820      -0.00013372      -0.00000172
S        4.62834571       1.24719481       4.70883736      -0.00009435       0.00013310       0.00016358
S        2.71864840       3.94791424       8.01652975       0.00009473      -0.00013623      -0.00016522
S        2.71864842       3.94791462       4.70883738       0.00009492      -0.00013465       0.00016460
S        4.62834554       1.24719456       8.01652982      -0.00009711       0.00013486      -0.00016761
