9
Lattice="4.577297275904973 5.647377667237692e-08 2.6427037614507474 1.5257657909242475 4.315517192032946 2.6427037977453947 2.026597979983469e-08 5.87818917050009e-08 5.2854074877997785" Properties=species:S:1:pos:R:3:forces:R:3 energy=-32.896263122558594 free_energy=-32.896263122558594 stress="2.7719024728867225e-05 8.631919712343006e-08 -6.589164058823371e-08 8.631919712343006e-08 2.7723663151846267e-05 1.8601150841845993e-08 -6.589164058823371e-08 1.8601150841845993e-08 2.752113687165547e-05" pbc="T T T"
Au       1.52576524       1.07888022       2.64270439      -0.00000563       0.00000997       0.00000688
Au       4.57729586       3.23663726       7.92811087      -0.00001442      -0.00000797      -0.00000436
Ni       0.00000017      -0.00000004      -0.00000001      -0.00000091      -0.00000376       0.00000609
O        1.48934792       1.05312808       5.28540741      -0.00703710      -0.00497937      -0.00000087
O        4.61371533       3.26238928       5.28540789       0.00704321       0.00497698       0.00000111
O        3.83262349       1.05312845       3.93251622       0.00352152      -0.00497369      -0.00609815
O        2.27044029       3.26238912       6.63829880      -0.00351208       0.00497372       0.00609937
O        2.27043952       3.26238874       3.93251626      -0.00351782       0.00497392      -0.00609916
O        3.83262457       1.05312822       6.63829836       0.00352322      -0.00496954       0.00608943
