9
Lattice="5.51106431587009 -1.1576691291503666e-07 3.181814477878743 1.8370213598704617 5.1958811161625 3.1818144252362885 8.349065931555015e-09 -5.856991284634662e-08 6.363628941296449" Properties=species:S:1:pos:R:3:forces:R:3 energy=-31.10835075378418 free_energy=-31.10835075378418 stress="9.161519301414955e-06 -7.434530857608479e-08 -2.4394186226572856e-08 -7.434530857608479e-08 9.211381438944954e-06 2.9805871548660434e-08 -2.4394186226572856e-08 2.9805871548660434e-08 9.285081432608422e-06" pbc="T T T"
Au       1.83702188       1.29897019       3.18181480       0.00000052      -0.00000064       0.00000341
Au       5.51106372       3.89691093       9.54544427      -0.00000260       0.00000105       0.00000505
Ni      -0.00000008       0.00000019       0.00000095      -0.00000610      -0.00000445      -0.00003682
S        1.76348806       1.24697415       6.36362841       0.00597173       0.00422376      -0.00000267
S        5.58459778       3.94890640       6.36362832      -0.00596595      -0.00421885      -0.00000263
S        4.62931998       1.24697425       4.70904024      -0.00298733       0.00422531       0.00517297
S        2.71876585       3.94890618       8.01821744       0.00297706      -0.00420853      -0.00515705
S        2.71876595       3.94890683       4.70903984       0.00299089      -0.00422737       0.00517520
S        4.62931966       1.24697459       8.01821731      -0.00297832       0.00420991      -0.00515720
