9
Lattice="5.6468372701989695 -2.064989060033181e-08 3.260203168349599 1.8822791585386578 5.323888734121725 3.2602030160309434 1.6909255344206635e-07 -6.698505572234819e-08 6.520406043822324" Properties=species:S:1:pos:R:3:forces:R:3 energy=-29.628366470336914 free_energy=-29.628366470336914 stress="8.234734559664503e-05 2.5020973737355234e-08 3.686273331027223e-08 2.5020973737355234e-08 8.237899601226673e-05 -1.050842968197685e-07 3.686273331027223e-08 -1.050842968197685e-07 8.230288221966475e-05" pbc="T T T"
Au       1.88227866       1.33097165       3.26020310      -0.00000152      -0.00000222       0.00000213
Au       5.64683773       3.99291612       9.78060985       0.00000169      -0.00000017       0.00000253
Ni       0.00000015      -0.00000017       0.00000029      -0.00000429       0.00000538      -0.00000006
Se       1.87359609       1.32483223       6.52040576       0.00062889       0.00044492      -0.00000040
Se       5.65552029       3.99905644       6.52040523      -0.00062850      -0.00044419      -0.00000096
Se       4.71003953       1.32483238       4.88278474      -0.00031473       0.00044620       0.00054693
Se       2.81907683       3.99905752       8.15802761       0.00031734      -0.00044851      -0.00055218
Se       2.81907750       3.99905622       4.88278539       0.00031362      -0.00044341       0.00054500
Se       4.71003968       1.32483216       8.15802712      -0.00031261       0.00044204      -0.00054282
