9
Lattice="5.646156911005049 -3.041320960661413e-08 3.259810267378674 1.8820522803787212 5.323247961524365 3.2598102580529145 -1.1462889326226847e-08 -1.9527158242995512e-08 6.519620554611628" Properties=species:S:1:pos:R:3:forces:R:3 energy=-29.62836456298828 free_energy=-29.62836456298828 stress="-5.122760194353759e-05 -4.3166896723789705e-09 -1.2386011327691904e-08 -4.3166896723789705e-09 -5.1236518629593775e-05 2.193789816473668e-09 -1.2386011327691904e-08 2.193789816473668e-09 -5.124526433064602e-05" pbc="T T T"
Au       1.88205224       1.33081211       3.25981028       0.00000005       0.00000032      -0.00000009
Au       5.64615695       3.99243584       9.77943073      -0.00000046      -0.00000016      -0.00000068
Ni      -0.00000036      -0.00000021      -0.00000006       0.00000880       0.00000185       0.00000292
Se       1.87373219       1.32492897       6.51962053      -0.00133967      -0.00094692      -0.00000000
Se       5.65447727       3.99831917       6.51962070       0.00133401       0.00094330       0.00000114
Se       4.70929080       1.32492884       4.88251010       0.00066812      -0.00094527      -0.00115764
Se       2.81891835       3.99831905       8.15673092      -0.00066857       0.00094517       0.00115800
Se       2.81891835       3.99831895       4.88251008      -0.00066949       0.00094563      -0.00115940
Se       4.70929089       1.32492892       8.15673106       0.00066741      -0.00094382       0.00115579
