9
Lattice="5.50104051012367 4.095148147158016e-07 3.175996895897548 1.833680901753955 5.186397283291778 3.1759962972501046 -1.0220551769740399e-07 -8.054635615710658e-07 6.351993968823081" Properties=species:S:1:pos:R:3:forces:R:3 energy=-37.87076187133789 free_energy=-37.87076187133789 stress="-0.00020361863425932825 3.1245381251210347e-06 -1.0387086746277419e-07 3.1245381251210347e-06 -0.00020143360598012805 7.006199211900821e-07 -1.0387086746277419e-07 7.006199211900821e-07 -0.0002034010976785794" pbc="T T T"
Au       1.83367260       1.29659062       3.17599203      -0.00000536      -0.00000498      -0.00003530
Au       5.50105707       3.88982020       9.52797711       0.00003621       0.00003850      -0.00004440
Nb       0.00000718       0.00000242      -0.00001068      -0.00002001       0.00003786       0.00019313
S        1.94757819       1.37715167       6.35199096      -0.00201946      -0.00141793       0.00001991
S        5.38714834       3.80926758       6.35197584       0.00191119       0.00140572       0.00001537
S        4.52726172       1.37713675       4.86264753       0.00100935      -0.00138840      -0.00159243
S        2.80743919       3.80925818       7.84137749      -0.00086011       0.00122061       0.00150371
S        2.80745505       3.80924112       4.86261811      -0.00094195       0.00130528      -0.00157961
S        4.52726430       1.37712528       7.84137695       0.00089015      -0.00119674       0.00151923
