9
Lattice="4.794703521530637 1.6072391778019444e-08 2.7682233907594167 1.5982345157473845 4.520489856657832 2.7682234021609666 3.2257391952522623e-09 1.624493385795248e-08 5.5364467759316875" Properties=species:S:1:pos:R:3:forces:R:3 energy=-46.5052375793457 free_energy=-46.5052375793457 stress="-2.3168669940787368e-05 -4.1152912189090785e-08 2.7797458557188293e-08 -4.1152912189090785e-08 -2.3280839741346426e-05 -2.6925212281980748e-08 2.7797458557188293e-08 -2.6925212281980748e-08 -2.3068614609655924e-05" pbc="T T T"
Au       1.59823452       1.13012249       2.76822338       0.00000021      -0.00000061      -0.00000032
Au       4.79470358       3.39036740       8.30467018       0.00000049       0.00000058       0.00000181
Os       0.00000001      -0.00000003       0.00000003      -0.00000122       0.00000412      -0.00000021
O        1.52380263       1.07749123       5.53644679      -0.00040936      -0.00028980      -0.00000039
O        4.86913542       3.44299868       5.53644678       0.00040758       0.00028783      -0.00000083
O        4.03280220       1.07749119       4.08787519       0.00020587      -0.00028986      -0.00035602
O        2.36013580       3.44299868       6.98501837      -0.00020519       0.00028962       0.00035471
O        2.36013585       3.44299866       4.08787523      -0.00020370       0.00028902      -0.00035477
O        4.03280214       1.07749127       6.98501831       0.00020522      -0.00029033       0.00035518
