9
Lattice="5.467111640831473 5.3567369423248203e-08 3.156438172421384 1.822370596972038 5.154442098156546 3.1564381732450673 1.7531527425304887e-08 1.3405503920174449e-08 6.312876314477302" Properties=species:S:1:pos:R:3:forces:R:3 energy=-36.32664108276367 free_energy=-36.32664108276367 stress="1.1022189028153662e-05 9.96357041316287e-09 8.453356237225762e-09 9.96357041316287e-09 1.0904910595854744e-05 1.2816678829352668e-09 8.453356237225762e-09 1.2816678829352668e-09 1.1012520189979114e-05" pbc="T T T"
Au       1.82237078       1.28860978       3.15643827       0.00000025      -0.00000120       0.00000166
Au       5.46711118       3.86583101       9.46931524      -0.00000069      -0.00000149       0.00000401
Os      -0.00000009      -0.00000053       0.00000070       0.00000029      -0.00000582       0.00000425
S        1.92735611       1.36284659       6.31287628      -0.00159365      -0.00112647      -0.00000094
S        5.36212598       3.79159650       6.31287611       0.00159645       0.00113052      -0.00000066
S        4.50343359       1.36284668       4.82557669       0.00079769      -0.00112641      -0.00138223
S        2.78604852       3.79159622       7.80017534      -0.00079879       0.00112849       0.00138050
S        2.78604908       3.79159613       4.82557678      -0.00079790       0.00112933      -0.00138485
S        4.50343377       1.36284625       7.80017506       0.00079638      -0.00112706       0.00137818
