9
Lattice="5.576709192193108 2.7446937667163223e-07 3.2197150567539046 1.8589033987261396 5.257772643957567 3.219714925309284 2.125731871309207e-07 -1.0674146432608641e-08 6.439429745320215" Properties=species:S:1:pos:R:3:forces:R:3 energy=-35.06287384033203 free_energy=-35.06287384033203 stress="1.187973339256132e-05 -6.332912505513377e-08 -7.221917730504401e-09 -6.332912505513377e-08 1.1761841051338706e-05 -4.4363478224340724e-08 -7.221917730504401e-09 -4.4363478224340724e-08 1.1890625501109753e-05" pbc="T T T"
Au       1.85890270       1.31444292       3.21971519      -0.00000073       0.00000008      -0.00000091
Au       5.57671000       3.94333051       9.65914460       0.00000001      -0.00000033       0.00000022
Os       0.00000029      -0.00000052      -0.00000085      -0.00000234       0.00000295       0.00000338
Se       2.06031294       1.45686061       6.43942945      -0.00033243      -0.00023587      -0.00000086
Se       5.37530044       3.80091208       6.43942978       0.00033316       0.00023594      -0.00000060
Se       4.54655239       1.45686049       5.00399906       0.00016680      -0.00023888      -0.00029036
Se       2.88905960       3.80091173       7.87486184      -0.00016548       0.00023423       0.00028865
Se       2.88905989       3.80091195       5.00399864      -0.00016727       0.00023863      -0.00029099
Se       4.54655296       1.45686185       7.87486116       0.00016824      -0.00023657       0.00029168
