9
Lattice="5.6378878532631855 -1.4169162279503793e-08 3.255036089726137 1.879295936329048 5.315451476338159 3.255036092150687 1.3291126146466582e-07 9.695194883684103e-08 6.510071949243189" Properties=species:S:1:pos:R:3:forces:R:3 energy=-29.253154754638672 free_energy=-29.253154754638672 stress="8.508744213031605e-05 3.544615623241043e-08 -1.2067670418502985e-08 3.544615623241043e-08 8.504086872562766e-05 -1.2994997078408232e-08 -1.2067670418502985e-08 -1.2994997078408232e-08 8.511258056387305e-05" pbc="T T T"
Au       1.87929589       1.32886282       3.25503623       0.00000012      -0.00000049       0.00000019
Au       5.63788815       3.98658881       9.76510878       0.00000056       0.00000034       0.00000059
P       -0.00000017      -0.00000004      -0.00000023      -0.00000100      -0.00000059       0.00000818
Se       1.86262499       1.31707452       6.51007204       0.00816357       0.00577235       0.00000040
Se       5.65455907       3.99837686       6.51007170      -0.00816238      -0.00577173      -0.00000101
Se       4.70657554       1.31707477       4.86811646      -0.00408164       0.00577202       0.00706717
Se       2.81060819       3.99837703       8.15202762       0.00408301      -0.00577495      -0.00707206
Se       2.81060844       3.99837688       4.86811618       0.00408167      -0.00577211       0.00706843
Se       4.70657563       1.31707458       8.15202782      -0.00408363       0.00577554      -0.00707197
