9
Lattice="5.478246667211208 4.806724265171043e-09 3.162867336882703 1.826082247094015 5.164940424546567 3.1628673019672657 3.1091953590382196e-08 -2.07771860906986e-08 6.325734619912534" Properties=species:S:1:pos:R:3:forces:R:3 energy=-31.872467041015625 free_energy=-31.872467041015625 stress="0.00016165472334250808 3.0957103547279985e-08 -4.970206912702224e-09 3.0957103547279985e-08 0.00016162208339665085 1.1485053796889133e-08 -4.970206912702224e-09 1.1485053796889133e-08 0.00016161870735231787" pbc="T T T"
Au       1.82608282       1.29123468       3.16286732       0.00000102      -0.00000158      -0.00000069
Au       5.47824668       3.87370480       9.48860108       0.00000062      -0.00000178      -0.00000425
Pt      -0.00000046      -0.00000037      -0.00000085       0.00000906       0.00000866       0.00002065
S        1.88326773       1.33167119       6.32573460       0.00158250       0.00112066       0.00000039
S        5.42106179       3.83327000       6.32573482      -0.00159329      -0.00112662       0.00000040
S        4.53661250       1.33167123       4.79382496      -0.00079215       0.00111943       0.00137144
S        2.76771553       3.83327031       7.85764504       0.00079727      -0.00112790      -0.00137991
S        2.76771585       3.83326934       4.79382499       0.00079122      -0.00112090       0.00137275
S        4.53661329       1.33167049       7.85764512      -0.00079620       0.00113001      -0.00138021
