9
Lattice="5.705851037098513 -4.6559861785361016e-07 3.2942744530680947 1.9019499229747874 5.379527940580852 3.294274424929429 -1.7267024853234795e-07 -1.5655902290101668e-07 6.588549205209799" Properties=species:S:1:pos:R:3:forces:R:3 energy=-25.813953399658203 free_energy=-25.813953399658203 stress="-0.00016226556908804923 1.0214797185881253e-07 5.803186198249932e-08 1.0214797185881253e-07 -0.00016232005145866424 5.3783196563017555e-08 5.803186198249932e-08 5.3783196563017555e-08 -0.0001622404088266194" pbc="T T T"
Au       1.90194921       1.34488124       3.29427394      -0.00000481      -0.00000461      -0.00000457
Au       5.70585046       4.03464631       9.88282402      -0.00000077       0.00000268       0.00000312
Pb      -0.00000007      -0.00000034       0.00000001      -0.00000199      -0.00000176      -0.00000254
S        2.13363935       1.50871085       6.58854954      -0.00148217      -0.00104944       0.00000438
S        5.47416043       3.87081599       6.58854820       0.00148600       0.00105168      -0.00000400
S        4.63903229       1.50871037       5.14206110       0.00074655      -0.00105132      -0.00128211
S        2.96877012       3.87081730       8.03503743      -0.00074351       0.00105412       0.00128396
S        2.96877064       3.87081812       5.14206094      -0.00073917       0.00105762      -0.00128154
S        4.63903067       1.50870940       8.03503710       0.00074001      -0.00105907       0.00128330
