9
Lattice="4.471041862040079 -2.4245249971272153e-08 2.581357101372022 1.4903472354271674 4.215338603111963 2.581357151706932 -7.108475164165924e-08 1.1382891856116494e-08 5.162714325866467" Properties=species:S:1:pos:R:3:forces:R:3 energy=-43.1424674987793 free_energy=-43.1424674987793 stress="-0.0007927438709884882 -6.431950794194563e-08 -1.1441810165990773e-08 -6.431950794194563e-08 -0.0007925817044451833 -9.933739875123138e-08 -1.1441810165990773e-08 -9.933739875123138e-08 -0.0007928215200081468" pbc="T T T"
Au       1.49034780       1.05383564       2.58135720       0.00000369       0.00000730       0.00000002
Au       4.47104130       3.16150393       7.74407065      -0.00000205       0.00000146      -0.00000671
P       -0.00000010       0.00000012      -0.00000003      -0.00000027      -0.00000615       0.00000040
O        1.39367306       0.98547563       5.16271470       0.00559986       0.00395870       0.00000153
O        4.56771611       3.22986246       5.16271451      -0.00559711      -0.00395763       0.00000043
O        3.77420481       0.98547551       3.78831341      -0.00280315       0.00395596       0.00485158
O        2.18718387       3.22986275       6.53711551       0.00279891      -0.00395966      -0.00484717
O        2.18718381       3.22986261       3.78831334       0.00279886      -0.00395870       0.00484812
O        3.77420506       0.98547597       6.53711553      -0.00279921       0.00395858      -0.00484717
