9
Lattice="4.722522275948317 -6.088785682800209e-08 2.726549540171189 1.5741740374477493 4.452436758216047 2.7265495351991604 -2.4708549227434967e-09 -7.836620527556266e-09 5.453099084622012" Properties=species:S:1:pos:R:3:forces:R:3 energy=-36.74852752685547 free_energy=-36.74852752685547 stress="-1.9710654669324867e-05 -6.41062456452346e-08 -3.9036709864603836e-08 -6.41062456452346e-08 -1.9702280042110942e-05 4.654209462273684e-08 -3.9036709864603836e-08 4.654209462273684e-08 -1.9624987544375472e-05" pbc="T T T"
Au       1.57417386       1.11311007       2.72655010      -0.00000191       0.00000812       0.00000533
Au       4.72252227       3.33932718       8.17964774       0.00000183      -0.00000407      -0.00000962
Pt       0.00000011       0.00000004      -0.00000031      -0.00000198       0.00000074       0.00001205
O        1.56103673       1.10381999       5.45309896       0.00293505       0.00207777      -0.00000248
O        4.73565977       3.34861673       5.45309995      -0.00293377      -0.00207812       0.00000568
O        3.94200369       1.10381970       4.07844711      -0.00146379       0.00206818       0.00253436
O        2.35469239       3.34861680       6.82775119       0.00146751      -0.00207527      -0.00253905
O        2.35469228       3.34861641       4.07844683       0.00146207      -0.00207536       0.00253494
O        3.94200414       1.10381987       6.82775101      -0.00146523       0.00207838      -0.00254139
