9
Lattice="4.893220469841706 1.2279763394758456e-09 2.825102204416189 1.6310734947453815 4.613372748442497 2.8251021981108777 5.344488577057717e-09 -3.943292093268031e-09 5.6502043995754745" Properties=species:S:1:pos:R:3:forces:R:3 energy=-33.15143585205078 free_energy=-33.15143585205078 stress="7.318308053072542e-05 -1.4838660078453358e-08 -1.0810924599979899e-08 -1.4838660078453358e-08 7.313999958569184e-05 -6.8605974234969835e-09 -1.0810924599979899e-08 -6.8605974234969835e-09 7.320642907870933e-05" pbc="T T T"
Au       1.63107286       1.15334447       2.82510153      -0.00000378       0.00001134      -0.00000665
Au       4.89321967       3.46002882       8.47530690      -0.00000737      -0.00000666       0.00000045
Pb       0.00000010      -0.00000033      -0.00000023      -0.00000193       0.00000753      -0.00000147
O        1.70454324       1.20529417       5.65020490      -0.00090806      -0.00064237       0.00000371
O        4.81975128       3.40807829       5.65020416       0.00090867       0.00063780      -0.00000052
O        4.04094918       1.20529438       4.30128016       0.00045820      -0.00064260      -0.00078833
O        2.48334530       3.40807824       6.99912951      -0.00045139       0.00063917       0.00078809
O        2.48334535       3.40807824       4.30127942      -0.00045137       0.00063765      -0.00078646
O        4.04094894       1.20529464       6.99912886       0.00045706      -0.00064193       0.00079138
