9
Lattice="5.969259737759563 -1.6139488285628535e-07 3.446353783434881 1.9897531678732923 5.627871705323496 3.4463536550587626 4.840439311761802e-08 -1.230009216213519e-07 6.892707483030874" Properties=species:S:1:pos:R:3:forces:R:3 energy=-27.451797485351562 free_energy=-27.451797485351562 stress="-6.268664583330974e-05 -1.540404248601135e-08 -3.870961329255351e-09 -1.540404248601135e-08 -6.257990753510967e-05 -2.466106785448119e-08 -3.870961329255351e-09 -2.466106785448119e-08 -6.26581022515893e-05" pbc="T T T"
Au       1.98975343       1.40696763       3.44635375       0.00000022       0.00000047       0.00000050
Au       5.96925965       4.22090377      10.33906120       0.00000022       0.00000039       0.00000094
Pb      -0.00000015       0.00000046       0.00000116      -0.00000075      -0.00000278      -0.00000817
Se       2.43323876       1.72055954       6.89270848      -0.00286635      -0.00202820      -0.00000695
Se       5.52577344       3.90731039       6.89270862       0.00287743       0.00202871      -0.00000577
Se       4.75264117       1.72055971       5.55359983       0.00142715      -0.00201950      -0.00248159
Se       3.20637427       3.90730918       8.23181250      -0.00144645       0.00203895       0.00249496
Se       3.20637210       3.90731223       5.55360078      -0.00143254       0.00201953      -0.00248500
Se       4.75263917       1.72056285       8.23181335       0.00144106      -0.00203758       0.00249106
