9
Lattice="5.579375866693703 5.856786720790713e-08 3.221254067079486 1.8597920012204359 5.260285340978225 3.2212540836420693 -1.238564975563405e-07 -6.729480052351182e-08 6.442508348684731" Properties=species:S:1:pos:R:3:forces:R:3 energy=-30.779293060302734 free_energy=-30.779293060302734 stress="-0.00020811222202610224 4.392382990658916e-08 -3.082596844450336e-09 4.392382990658916e-08 -0.0002080625417875126 -9.643078335841437e-09 -3.082596844450336e-09 -9.643078335841437e-09 -0.0002081760176224634" pbc="T T T"
Au       1.85979269       1.31507200       3.22125403       0.00000020      -0.00000026      -0.00000042
Au       5.57937569       3.94521340       9.66376205       0.00000037       0.00000066       0.00000002
Pt       0.00000042       0.00000028       0.00000017      -0.00000114      -0.00000130      -0.00000021
Se       2.12850900       1.50508365       6.44250792      -0.00133216      -0.00094011      -0.00000034
Se       5.31065872       3.75520100       6.44250805       0.00132958       0.00093896      -0.00000002
Se       4.51512113       1.50508286       5.06459653       0.00066512      -0.00093959      -0.00114986
Se       2.92404641       3.75520251       7.82042007      -0.00066324       0.00094058       0.00114938
Se       2.92404650       3.75520285       5.06459684      -0.00066322       0.00094094      -0.00114873
Se       4.51512040       1.50508275       7.82042036       0.00066450      -0.00093991       0.00115020
