9
Lattice="5.551831456438393 -2.637564130680657e-07 3.205351146549953 1.850610321948201 5.234316289407218 3.205350999082056 8.349598766743499e-08 -1.215699410066268e-07 6.410702148480634" Properties=species:S:1:pos:R:3:forces:R:3 energy=-33.744415283203125 free_energy=-33.744415283203125 stress="-0.0001041954819811508 1.5654981311286065e-08 3.8192116136315235e-09 1.5654981311286065e-08 -0.00010413538257125765 -1.2567213936165444e-08 3.8192116136315235e-09 -1.2567213936165444e-08 -0.00010417009616503492" pbc="T T T"
Au       1.85061059       1.30857910       3.20535097       0.00000007      -0.00000044       0.00000022
Au       5.55183149       3.92573671       9.61605347       0.00000074      -0.00000072       0.00000088
Ru       0.00000005       0.00000017      -0.00000008       0.00000079       0.00000033      -0.00000007
Se       2.04604210       1.44676992       6.41070234       0.00269601       0.00190635      -0.00000033
Se       5.35639993       3.78754597       6.41070211      -0.00269722      -0.00190693       0.00000047
Se       4.52881051       1.44676985       4.97727529      -0.00134859       0.00190713       0.00233578
Se       2.87363113       3.78754591       7.84412893       0.00134839      -0.00190695      -0.00233623
Se       2.87363124       3.78754595       4.97727511       0.00134788      -0.00190608       0.00233482
Se       4.52881051       1.44677016       7.84412897      -0.00134809       0.00190731      -0.00233558
