9
Lattice="5.654997981752399 -9.83069170510613e-08 3.2649146569956855 1.8849992511348301 5.331582978079797 3.264914628297786 1.8823631381367074e-08 -2.1837225257653097e-08 6.5298292813878165" Properties=species:S:1:pos:R:3:forces:R:3 energy=-36.6338996887207 free_energy=-36.6338996887207 stress="0.0002790610014926642 4.834611999626759e-08 -1.3098162554570081e-08 4.834611999626759e-08 0.0002790703729260713 6.298336518995029e-09 -1.3098162554570081e-08 6.298336518995029e-09 0.0002790439175441861" pbc="T T T"
Au       1.88499920       1.33289581       3.26491457       0.00000014      -0.00000075      -0.00000037
Au       5.65499788       3.99868735       9.79474323      -0.00000019       0.00000022      -0.00000011
Re      -0.00000023      -0.00000018      -0.00000042       0.00000132       0.00000093       0.00000105
Se       2.02425764       1.43136565       6.52982930      -0.00532600      -0.00376576       0.00000032
Se       5.51573934       3.90021664       6.52982943       0.00532582       0.00376639      -0.00000088
Se       4.64286956       1.43136581       5.01797317       0.00266242      -0.00376475      -0.00461233
Se       2.89712816       3.90021733       8.04168614      -0.00266267       0.00376377       0.00461173
Se       2.89712769       3.90021705       5.01797303      -0.00266276       0.00376496      -0.00461158
Se       4.64286980       1.43136596       8.04168573       0.00266218      -0.00376517       0.00461188
