9
Lattice="5.433032102342808 -5.0870833040570875e-08 3.136762502839113 1.8110106088508484 5.122311995031987 3.1367625789950355 -1.504603758634433e-07 -1.3120083287285908e-08 6.273525266283295" Properties=species:S:1:pos:R:3:forces:R:3 energy=-34.981544494628906 free_energy=-34.981544494628906 stress="-5.9059762861579657e-05 9.355403562949505e-09 2.886662819889807e-08 9.355403562949505e-09 -5.913245695410296e-05 1.256106507696586e-08 2.886662819889807e-08 1.256106507696586e-08 -5.909900210099295e-05" pbc="T T T"
Au       1.81101007       1.28057724       3.13676199      -0.00000192      -0.00000268      -0.00000288
Au       5.43303193       3.84173399       9.41028752      -0.00000105      -0.00000107      -0.00000129
Ru      -0.00000052      -0.00000028      -0.00000063      -0.00000534      -0.00000354      -0.00000671
S        1.90226014       1.34510069       6.27352552       0.00471479       0.00333303       0.00000130
S        5.34178282       3.77721127       6.27352564      -0.00470901      -0.00332996       0.00000096
S        4.48190236       1.34510097       4.78416815      -0.00235564       0.00333330       0.00408101
S        2.76214071       3.77721143       7.76288252       0.00235534      -0.00332898      -0.00407809
S        2.76214069       3.77721161       4.78416810       0.00235721      -0.00333172       0.00408381
S        4.48190218       1.34510071       7.76288255      -0.00235456       0.00333115      -0.00407821
