9
Lattice="5.48467876406194 1.1501985908159818e-07 3.1665804429074913 1.8282263256404638 5.171004739641421 3.166580507839679 -4.5939158209553313e-08 4.704145471910833e-08 6.333160965383887" Properties=species:S:1:pos:R:3:forces:R:3 energy=-39.37561798095703 free_energy=-39.37561798095703 stress="2.1357827790779993e-05 5.264440616770116e-08 -1.4111668278360412e-08 5.264440616770116e-08 2.138429226761218e-05 2.6062913605073845e-08 -1.4111668278360412e-08 2.6062913605073845e-08 2.1392153939814307e-05" pbc="T T T"
Au       1.82822641       1.29275100       3.16658037       0.00000142      -0.00000063      -0.00000063
Au       5.48467925       3.87825361       9.49974163       0.00000171       0.00000005       0.00000118
Re       0.00000008       0.00000020      -0.00000022       0.00000075      -0.00000303      -0.00000156
S        1.90179073       1.34476996       6.33316104      -0.00449622      -0.00317979      -0.00000076
S        5.41111367       3.82623537       6.33316091       0.00449860       0.00318056       0.00000013
S        4.53378338       1.34476896       4.81357929       0.00224411      -0.00317597      -0.00388920
S        2.77912149       3.82623555       7.85274217      -0.00224802       0.00317770       0.00389338
S        2.77912180       3.82623600       4.81357968      -0.00224620       0.00317723      -0.00389159
S        4.53378324       1.34476904       7.85274254       0.00224438      -0.00317591       0.00388843
