9
Lattice="5.554825033568435 -2.0030850396554337e-08 3.2070796907672294 1.851608253574597 5.237139168088422 3.207079815583938 6.102938670443352e-08 1.9602283893117958e-07 6.414159275828556" Properties=species:S:1:pos:R:3:forces:R:3 energy=-32.12792205810547 free_energy=-32.12792205810547 stress="9.000313002616167e-05 2.8567766818810014e-08 -1.6854439621738493e-08 2.8567766818810014e-08 9.001075522974133e-05 -6.42136877004873e-09 -1.6854439621738493e-08 -6.42136877004873e-09 9.004183084471151e-05" pbc="T T T"
Au       1.85160853       1.30928531       3.20707945      -0.00000067      -0.00000050       0.00000000
Au       5.55482526       3.92785440       9.62123930      -0.00000053      -0.00000014      -0.00000005
Rh      -0.00000071      -0.00000028       0.00000060       0.00000243       0.00000176      -0.00000251
Se       2.08376898       1.47344753       6.41415893       0.00084321       0.00059607      -0.00000011
Se       5.32266475       3.76369213       6.41415882      -0.00084403      -0.00059676       0.00000105
Se       4.51294049       1.47344691       5.01167665      -0.00042210       0.00059584       0.00073118
Se       2.89349252       3.76369227       7.81664240       0.00042212      -0.00059655      -0.00073035
Se       2.89349254       3.76369235       5.01167655       0.00042128      -0.00059624       0.00073138
Se       4.51294101       1.47344673       7.81664248      -0.00042168       0.00059655      -0.00073042
