9
Lattice="4.715938148712647 2.1247575917575856e-08 2.722748152529875 1.5719794153601778 4.446229110083269 2.722748131011668 -1.0268548947464122e-07 -9.896393754487734e-08 5.445496482916269" Properties=species:S:1:pos:R:3:forces:R:3 energy=-48.29820251464844 free_energy=-48.29820251464844 stress="0.00011308243847452104 1.197916361661555e-07 -1.8821118885625765e-07 1.197916361661555e-07 0.00011302551138214767 1.686309758497373e-07 -1.8821118885625765e-07 1.686309758497373e-07 0.00011287925735814497" pbc="T T T"
Au       1.57197934       1.11155676       2.72274794      -0.00000280      -0.00000541      -0.00000364
Au       4.71593762       3.33467243       8.16824298      -0.00000554       0.00000687      -0.00001178
Re      -0.00000020       0.00000049      -0.00000022       0.00000354      -0.00000444      -0.00000346
O        1.54992631       1.09596322       5.44549675       0.00043643       0.00030339       0.00000121
O        4.73799115       3.35026563       5.44549702      -0.00043166      -0.00030696       0.00000547
O        3.94097509       1.09596293       4.06502396      -0.00021845       0.00030828       0.00038457
O        2.34694306       3.35026558       6.82596917       0.00021940      -0.00030446      -0.00036824
O        2.34694232       3.35026642       4.06502364       0.00022584      -0.00031483       0.00038898
O        3.94097546       1.09596254       6.82596990      -0.00022650       0.00031817      -0.00039279
