9
Lattice="4.8010015075065775 -1.775334961939726e-07 2.7718596585492534 1.6003337389759813 4.5264274810454594 2.771859536403932 3.545861269824984e-08 -1.24523851492254e-07 5.5437192556824115" Properties=species:S:1:pos:R:3:forces:R:3 energy=-42.518592834472656 free_energy=-42.518592834472656 stress="-2.8815567929996178e-05 8.623812419727983e-08 -3.750079002884377e-08 8.623812419727983e-08 -2.8857466531917453e-05 4.6434209366452706e-08 -3.750079002884377e-08 4.6434209366452706e-08 -2.893842975026928e-05" pbc="T T T"
Au       1.60033514       1.13160804       2.77185931       0.00001039       0.00000998      -0.00000185
Au       4.80100134       3.39482160       8.31557829       0.00000052       0.00000978      -0.00000468
Ru      -0.00000000       0.00000044      -0.00000034       0.00000903      -0.00000315       0.00000454
O        1.52008755       1.07486394       5.54371951       0.00195932       0.00138059       0.00000075
O        4.88124798       3.45156306       5.54371962      -0.00196213      -0.00139052       0.00000332
O        4.04095737       1.07486328       4.08829369      -0.00098625       0.00138646       0.00170481
O        2.36037765       3.45156242       6.99914502       0.00098065      -0.00139391      -0.00169396
O        2.36037685       3.45156311       4.08829354       0.00097939      -0.00139260       0.00169861
O        4.04095726       1.07486286       6.99914503      -0.00099137       0.00139335      -0.00171113
