9
Lattice="4.574945861492057 1.0493201930499219e-07 2.641346265598701 1.5249820545859525 4.3133003090234805 2.641346262438732 3.523838077754465e-08 2.1047119506019956e-08 5.282692470162705" Properties=species:S:1:pos:R:3:forces:R:3 energy=-34.96847152709961 free_energy=-34.96847152709961 stress="-5.5827873438829556e-05 1.9104650306189797e-08 9.272487488942716e-08 1.9104650306189797e-08 -5.6097844208125025e-05 -4.336138559324354e-08 9.272487488942716e-08 -4.336138559324354e-08 -5.5916163546498865e-05" pbc="T T T"
Au       1.52498334       1.07832561       2.64134621       0.00001343       0.00000399      -0.00000020
Au       4.57494618       3.23497463       7.92403854       0.00000839      -0.00000405      -0.00000043
Se       0.00000087       0.00000026       0.00000024       0.00001532       0.00000050       0.00000346
O        1.50539393       1.06447472       5.28269243      -0.00170946      -0.00120234      -0.00000076
O        4.59453341       3.24882587       5.28269261       0.00169837       0.00120461      -0.00000000
O        3.82224819       1.06447479       3.94505555       0.00084490      -0.00120354      -0.00147796
O        2.27767877       3.24882552       6.62032906      -0.00085837       0.00120199       0.00147557
O        2.27767871       3.24882571       3.94505584      -0.00085771       0.00120211      -0.00147629
O        3.82224834       1.06447479       6.62032947       0.00084430      -0.00120342       0.00147724
