9
Lattice="5.634667679459434 -3.3157107665299396e-08 3.2531767358872123 1.8782224352717016 5.312415952213826 3.253176897465518 -1.5736288320883248e-07 8.661985017567186e-08 6.506353744334937" Properties=species:S:1:pos:R:3:forces:R:3 energy=-27.53447151184082 free_energy=-27.53447151184082 stress="-2.4105136617436074e-05 -1.645344482881228e-08 5.3025202007006556e-09 -1.645344482881228e-08 -2.404977749392856e-05 1.1073233885383615e-08 5.3025202007006556e-09 1.1073233885383615e-08 -2.4043363737291656e-05" pbc="T T T"
Au       1.87822265       1.32810324       3.25317608       0.00000083      -0.00000354      -0.00000363
Au       5.63466809       3.98431259       9.75953122       0.00000083       0.00000165       0.00000009
Sn      -0.00000002      -0.00000053       0.00000038      -0.00000161       0.00000863      -0.00000751
S        2.06325425       1.45894104       6.50635425       0.00012594       0.00008754       0.00000233
S        5.44963594       3.85347522       6.50635343      -0.00012798      -0.00008966      -0.00000167
S        4.60304045       1.45894099       5.04000770      -0.00006333       0.00008913       0.00010936
S        2.90984900       3.85347511       7.97269989       0.00006358      -0.00008730      -0.00010941
S        2.90984918       3.85347556       5.04000715       0.00006502      -0.00008974       0.00011535
S        4.60304029       1.45894081       7.97269950      -0.00006336       0.00008314      -0.00010473
