9
Lattice="4.475712540657127 -1.9582772902465954e-08 2.5840536751208854 1.491904124290665 4.219742315447239 2.5840537400131334 -4.91728407053729e-08 4.470600062913445e-08 5.1681074354116046" Properties=species:S:1:pos:R:3:forces:R:3 energy=-38.38011932373047 free_energy=-38.38011932373047 stress="-1.7874830859909707e-07 3.60064476012667e-08 3.2234602542757784e-08 3.60064476012667e-08 -2.6055769808408513e-07 -6.767804450191761e-08 3.2234602542757784e-08 -6.767804450191761e-08 -2.197085393618181e-07" pbc="T T T"
Au       1.49190390       1.05493445       2.58405407      -0.00000100      -0.00001095       0.00000414
Au       4.47571232       3.16480627       7.75216162      -0.00000345      -0.00000764       0.00000510
S       -0.00000023      -0.00000022       0.00000006      -0.00000038       0.00000156       0.00000339
O        1.36055482       0.96205776       5.16810752       0.00004053       0.00002885       0.00000259
O        4.60706182       3.25768528       5.16810726      -0.00003719      -0.00002480      -0.00000065
O        3.79543527       0.96205794       3.76232856      -0.00001800       0.00002730       0.00003517
O        2.17218146       3.25768542       6.57388572       0.00002170      -0.00002658      -0.00004387
O        2.17218183       3.25768474       3.76232831       0.00001836      -0.00002325       0.00003266
O        3.79543538       0.96205812       6.57388624      -0.00001991       0.00003517      -0.00003910
