9
Lattice="5.794706590912688 -3.163883932564291e-07 3.345575420022258 1.9315685238262559 5.4633011790636115 3.345575491932517 -1.8405463365723106e-07 -4.207452425077321e-08 6.6911511588365595" Properties=species:S:1:pos:R:3:forces:R:3 energy=-28.046598434448242 free_energy=-28.046598434448242 stress="-6.338937964756042e-06 -2.9753916663821656e-08 -1.1699070157078495e-08 -2.9753916663821656e-08 -6.2586964304500725e-06 4.3466105381639863e-08 -1.1699070157078495e-08 4.3466105381639863e-08 -6.283932634687517e-06" pbc="T T T"
Au       1.93156868       1.36582512       3.34557519      -0.00000014      -0.00000005      -0.00000012
Au       5.79470628       4.09747543      10.03672649       0.00000014       0.00000002      -0.00000086
Sn       0.00000029       0.00000014       0.00000147      -0.00000245      -0.00000081      -0.00000901
Se       2.28313477       1.61442070       6.69115069      -0.00251645      -0.00177788       0.00000188
Se       5.44314021       3.84888024       6.69114976       0.00251648       0.00177908       0.00000097
Se       4.65313836       1.61442056       5.32282933       0.00126079      -0.00178181      -0.00217976
Se       3.07313675       3.84888052       8.05947351      -0.00125679       0.00178004       0.00218324
Se       3.07313628       3.84888046       5.32282896      -0.00125887       0.00178030      -0.00217815
Se       4.65313807       1.61442007       8.05947281       0.00125733      -0.00177891       0.00218186
