9
Lattice="4.482952486938328 9.07702621765332e-08 2.5882341702299874 1.4943175809541756 4.22656833786777 2.5882341706993253 1.2577604355648122e-07 8.951190686338336e-08 5.1764681226094345" Properties=species:S:1:pos:R:3:forces:R:3 energy=-42.750953674316406 free_energy=-42.750953674316406 stress="-6.868827767902985e-06 -3.7560297982963675e-08 -4.991322910541385e-08 -3.7560297982963675e-08 -7.163632290030364e-06 4.85360587276773e-08 -4.991322910541385e-08 4.85360587276773e-08 -7.162440851971041e-06" pbc="T T T"
Au       1.49431778       1.05664309       2.58823419       0.00000229       0.00000877      -0.00000144
Au       4.48295209       3.16992740       7.76470073      -0.00000509       0.00000709      -0.00000925
Si       0.00000009       0.00000003       0.00000020      -0.00000311      -0.00000026       0.00000785
O        1.42826457       1.00993536       5.17646827       0.00022304       0.00015265       0.00000205
O        4.54900598       3.21663236       5.17646891      -0.00021720      -0.00015640       0.00000417
O        3.76882008       1.00993531       3.82514753      -0.00011218       0.00014812       0.00019139
O        2.20845013       3.21663255       6.52778966       0.00011498      -0.00015938      -0.00019085
O        2.20844970       3.21663242       3.82514742       0.00010818      -0.00015694       0.00019032
O        3.76882044       1.00993553       6.52778911      -0.00011158       0.00015634      -0.00019413
