9
Lattice="5.6787130518307425 1.1145440265011031e-07 3.278606692939965 1.8929044086534794 5.353942212440326 3.278606774410351 -6.898741380302117e-08 5.099897525493891e-08 6.557213505369593" Properties=species:S:1:pos:R:3:forces:R:3 energy=-26.716270446777344 free_energy=-26.716270446777344 stress="-1.7745124978318927e-06 2.4582835767006372e-09 -2.6135310804420442e-08 2.4582835767006372e-09 -1.7808295069698943e-06 1.172372776636621e-08 -2.6135310804420442e-08 1.172372776636621e-08 -1.8020347170022433e-06" pbc="T T T"
Au       1.89290545       1.33848621       3.27860649       0.00000517       0.00000174      -0.00000186
Au       5.67871249       4.01545603       9.83582093      -0.00000248      -0.00000234       0.00000456
Se       0.00000007       0.00000020       0.00000010       0.00000327      -0.00000407      -0.00000767
S        1.82599318       1.29117243       6.55721362       0.00028092       0.00019646      -0.00000089
S        5.74562399       4.06276979       6.55721328      -0.00027925      -0.00019723      -0.00000289
S        4.76571651       1.29117243       4.85996293      -0.00014398       0.00020039       0.00024498
S        2.80590070       4.06276964       8.25446362       0.00013489      -0.00019312      -0.00023502
S        2.80590133       4.06276977       4.85996286       0.00014207      -0.00019908       0.00023943
S        4.76571586       1.29117295       8.25446405      -0.00014079       0.00019747      -0.00024122
