9
Lattice="5.555694103794182 1.7383770168544808e-08 3.2075814980733504 1.851898047280985 5.237958674875736 3.2075815044934144 -3.638417423560586e-08 -1.786451001713198e-08 6.415163059165915" Properties=species:S:1:pos:R:3:forces:R:3 energy=-29.844955444335938 free_energy=-29.844955444335938 stress="-8.882478869054466e-05 7.771718379956383e-09 -2.2262735654976495e-08 7.771718379956383e-09 -8.887796866474673e-05 5.1221538122092625e-09 -2.2262735654976495e-08 5.1221538122092625e-09 -8.874980267137289e-05" pbc="T T T"
Au       1.85189799       1.30948894       3.20758168      -0.00000076      -0.00000276      -0.00000049
Au       5.55569402       3.92846925       9.62274463       0.00000097       0.00000023      -0.00000040
Si       0.00000023       0.00000040      -0.00000000       0.00000024      -0.00000455      -0.00000130
S        1.84767141       1.30650113       6.41516293       0.00486511       0.00343969      -0.00000163
S        5.55992013       3.93145750       6.41516282      -0.00486135      -0.00343728      -0.00000028
S        4.63185872       1.30650070       4.80771196      -0.00243148       0.00343788       0.00421497
S        2.77573387       3.93145764       8.02261398       0.00242963      -0.00343648      -0.00421149
S        2.77573376       3.93145804       4.80771214       0.00243118      -0.00343615       0.00421199
S        4.63185832       1.30650104       8.02261401      -0.00243333       0.00343955      -0.00421160
