9
Lattice="4.6727359274049025 1.111561881955029e-08 2.697805313089794 1.5575786895000836 4.40549777104798 2.6978052497801466 7.577950994941762e-08 -2.3953981126171915e-08 5.395610494925665" Properties=species:S:1:pos:R:3:forces:R:3 energy=-35.714534759521484 free_energy=-35.714534759521484 stress="5.315203088684939e-05 -4.023393174179546e-08 -2.189722891898782e-08 -4.023393174179546e-08 5.2897928981110454e-05 -4.1573791520477243e-08 -2.189722891898782e-08 -4.1573791520477243e-08 5.314802547218278e-05" pbc="T T T"
Au       1.55757771       1.10137562       2.69780453      -0.00001096       0.00001039      -0.00000609
Au       4.67273560       3.30412303       8.09341688      -0.00000316      -0.00000335       0.00001065
Sn      -0.00000014       0.00000001       0.00000017      -0.00000107       0.00000256      -0.00000158
O        1.66603226       1.17806275       5.39561118      -0.00069964      -0.00049376       0.00000607
O        4.56428256       3.22743466       5.39560993       0.00070274       0.00049114      -0.00000823
O        3.83972019       1.17806311       4.14063163       0.00035444      -0.00049102      -0.00060534
O        2.39059501       3.22743425       6.65058957      -0.00035158       0.00048965       0.00060844
O        2.39059502       3.22743453       4.14063128      -0.00034818       0.00049269      -0.00060910
O        3.83972061       1.17806299       6.65058914       0.00035751      -0.00049812       0.00060523
