9
Lattice="5.688841433339718 6.919381592635202e-08 3.284454075171291 1.8962805335087134 5.363491466722345 3.2844540916391236 -3.533705235690036e-08 -4.8181443399908294e-09 6.568908211548165" Properties=species:S:1:pos:R:3:forces:R:3 energy=-28.609668731689453 free_energy=-28.609668731689453 stress="0.00034785992465913296 -1.3981150459585479e-08 -1.7138235719471595e-08 -1.3981150459585479e-08 0.00034780087298713624 3.733517939252806e-09 -1.7138235719471595e-08 3.733517939252806e-09 0.00034784519812092185" pbc="T T T"
Au       1.89628078       1.34087304       3.28445392       0.00000185       0.00000115      -0.00000058
Au       5.68884123       4.02261878       9.85336260       0.00000081       0.00000051       0.00000256
Si       0.00000052       0.00000001      -0.00000007      -0.00000404      -0.00000028       0.00000140
Se       1.94846901       1.37777580       6.56890803       0.00677570       0.00479086      -0.00000067
Se       5.63665277       3.98571563       6.56890796      -0.00677267      -0.00478842      -0.00000052
Se       4.71460692       1.37777578       4.97187787      -0.00338672       0.00478914       0.00586598
Se       2.87051486       3.98571574       8.16593872       0.00338668      -0.00479110      -0.00586743
Se       2.87051501       3.98571565       4.97187777       0.00338679      -0.00479048       0.00586664
Se       4.71460664       1.37777570       8.16593868      -0.00338839       0.00478853      -0.00586747
