9
Lattice="4.765695184623549 9.411071717295728e-08 2.7514752985445368 1.5885651498106828 4.493140862657031 2.7514752993395124 1.3717268606100594e-08 1.067318116673418e-08 5.502950573330075" Properties=species:S:1:pos:R:3:forces:R:3 energy=-36.98857879638672 free_energy=-36.98857879638672 stress="0.00016793407849036157 5.773231350758579e-07 1.0655295312744784e-07 5.773231350758579e-07 0.00016755495744291693 -7.188264561364122e-08 1.0655295312744784e-07 -7.188264561364122e-08 0.00016703686560504138" pbc="T T T"
Au       1.58856470       1.12328517       2.75147507      -0.00000201       0.00000006      -0.00000155
Au       4.76569606       3.36985631       8.25442511       0.00000507       0.00000514      -0.00000646
Te       0.00000027       0.00000019       0.00000031      -0.00001432      -0.00001276      -0.00001451
O        1.58244169       1.11895522       5.50295045      -0.00322223      -0.00228006       0.00000023
O        4.77181816       3.37418520       5.50295106       0.00324017       0.00229156       0.00000358
O        3.97447540       1.11895416       4.12190874       0.00159323      -0.00225657      -0.00275934
O        2.37978498       3.37418671       6.88399286      -0.00160012       0.00226033       0.00276899
O        2.37978499       3.37418652       4.12190910      -0.00160149       0.00226021      -0.00276643
O        3.97447500       1.11895438       6.88399219       0.00160140      -0.00226814       0.00277454
