9
Lattice="5.489539444158331 4.0021004476401663e-07 3.169386759272678 1.8298468805201915 5.175586822505899 3.1693867214923945 2.610233706721247e-07 1.3830023396263046e-07 6.338773066439588" Properties=species:S:1:pos:R:3:forces:R:3 energy=-35.36045455932617 free_energy=-35.36045455932617 stress="2.1911566363996826e-05 3.021078109899378e-10 -3.307388496409658e-08 3.021078109899378e-10 2.193926411564462e-05 -2.2252075737583255e-08 -3.307388496409658e-08 -2.2252075737583255e-08 2.1904481400270015e-05" pbc="T T T"
Au       1.82984708       1.29389746       3.16938785       0.00000159       0.00000169       0.00000535
Au       5.48953970       3.88168928       9.50816135      -0.00000135      -0.00000547       0.00000590
Ti      -0.00000026      -0.00000010       0.00000027       0.00000163       0.00000088      -0.00000312
S        1.92704688       1.36262824       6.33877296      -0.00412560      -0.00291720      -0.00000441
S        5.39233967       3.81295910       6.33877304       0.00412545       0.00291643      -0.00000149
S        4.52601619       1.36262833       4.83825714       0.00206038      -0.00291377      -0.00357226
S        2.79337048       3.81295903       7.83928813      -0.00206189       0.00291753       0.00357100
S        2.79337006       3.81295922       4.83825718      -0.00206131       0.00291517      -0.00357261
S        4.52601644       1.36262890       7.83928848       0.00206110      -0.00291535       0.00357178
