9
Lattice="4.629681373587018 -3.590559357298558e-07 2.6729477229441496 1.5432269585393537 4.364904726787167 2.6729474241107685 1.3828281326585085e-07 -2.682138905666845e-07 5.345895206375363" Properties=species:S:1:pos:R:3:forces:R:3 energy=-43.96867370605469 free_energy=-43.96867370605469 stress="-9.6686844699434e-06 1.4944069448574737e-07 -2.5650695789636302e-08 1.4944069448574737e-07 -9.668090569903143e-06 6.19446183236505e-08 -2.5650695789636302e-08 6.19446183236505e-08 -9.67116739047924e-06" pbc="T T T"
Au       1.54322751       1.09122539       2.67294736       0.00000525      -0.00000721      -0.00000351
Au       4.62968163       3.27367876       8.01884083       0.00000380       0.00000419      -0.00001812
Ti       0.00000006      -0.00000045      -0.00000003      -0.00000015       0.00000098      -0.00000007
O        1.55812026       1.10175763       5.34589528       0.00028384       0.00020286       0.00000098
O        4.61478781       3.26314715       5.34589643      -0.00028545      -0.00019872       0.00001208
O        3.85062131       1.10175620       4.02231950      -0.00014904       0.00019932       0.00025594
O        2.32228721       3.26314730       6.66947100       0.00014767      -0.00020605      -0.00025207
O        2.32228699       3.26314755       4.02231979       0.00014105      -0.00020140       0.00025332
O        3.85062108       1.10175667       6.66947178      -0.00014725       0.00020623      -0.00024825
