9
Lattice="4.678018624549214 4.273280055203054e-08 2.7008554125177153 1.5593395384429458 4.410478558411236 2.700855487623457 3.139345243105496e-08 1.141838872344073e-07 5.401710770660375" Properties=species:S:1:pos:R:3:forces:R:3 energy=-48.82046127319336 free_energy=-48.82046127319336 stress="-0.0006775445071980357 -1.2163397400399845e-08 4.445593404511783e-08 -1.2163397400399845e-08 -0.0006774566136300564 1.103477487163218e-07 4.445593404511783e-08 1.103477487163218e-07 -0.0006776096997782588" pbc="T T T"
Au       1.55933860       1.10261952       2.70085650      -0.00001173      -0.00000107       0.00001161
Au       4.67801712       3.30785784       8.10256393      -0.00001832      -0.00001419      -0.00002799
Ta      -0.00000101      -0.00000031      -0.00000012       0.00000197      -0.00000157      -0.00000075
O        1.62104365       1.14625121       5.40171044       0.00063837       0.00045252      -0.00000381
O        4.61631557       3.26422820       5.40171204      -0.00063950      -0.00045294       0.00001190
O        3.86749683       1.14625101       4.10472053      -0.00031552       0.00045079       0.00055146
O        2.36986243       3.26422795       6.69870185       0.00033075      -0.00044495      -0.00054514
O        2.36986144       3.26422739       4.10472014       0.00031957      -0.00045145       0.00055104
O        3.86749816       1.14625183       6.69870170      -0.00030541       0.00046295      -0.00054812
