9
Lattice="5.648357942767371 -3.8575693431705115e-06 3.2610793853366107 1.8827847913922384 5.3253199007699425 3.2610751462781287 1.8563767140370064e-06 -3.879107380882704e-06 6.522155555333229" Properties=species:S:1:pos:R:3:forces:R:3 energy=-37.11823654174805 free_energy=-37.11823654174805 stress="5.3358144214143977e-05 -1.916633785015165e-08 8.333246910297021e-07 -1.916633785015165e-08 5.4330259445123374e-05 -1.2235138910909882e-06 8.333246910297021e-07 -1.2235138910909882e-06 5.344231249182485e-05" pbc="T T T"
Au       1.88278628       1.33133802       3.26107948      -0.00000081      -0.00002923      -0.00000773
Au       5.64836136       3.99397220       9.78322972       0.00000406      -0.00001565      -0.00000536
Ta       0.00000285      -0.00002840      -0.00000734      -0.00003261       0.00031593       0.00007925
Se       2.06514351       1.46027719       6.52215497      -0.00148036      -0.00107805      -0.00000556
Se       5.46601777       3.86504445       6.52215267       0.00144996       0.00099222      -0.00001138
Se       4.61578191       1.46027859       5.04954064       0.00073473      -0.00105976      -0.00126603
Se       2.91535029       3.86505072       7.99479240      -0.00069170       0.00096239       0.00120312
Se       2.91534985       3.86504130       5.04953102      -0.00074587       0.00102671      -0.00129431
Se       4.61578427       1.46027401       7.99476693       0.00076249      -0.00111458       0.00130801
