9
Lattice="5.819224189204916 -2.4188027996707355e-08 3.3597306491583847 1.9397413101115872 5.486417202278837 3.359730759118271 -2.0405605162212618e-07 -9.61657624386418e-09 6.719461651752203" Properties=species:S:1:pos:R:3:forces:R:3 energy=-25.741989135742188 free_energy=-25.741989135742188 stress="0.0003035965492017567 4.067942926955226e-10 -9.641932585680024e-09 4.067942926955226e-10 0.00030368962325155735 -3.060283049194368e-08 -9.641932585680024e-09 -3.060283049194368e-08 0.0003036303096450865" pbc="T T T"
Au       1.93974086       1.37160463       3.35973072      -0.00000029       0.00000069      -0.00000015
Au       5.81922394       4.11481325      10.07919251      -0.00000004       0.00000093       0.00000100
Te       0.00000069      -0.00000049       0.00000060      -0.00002062       0.00001486      -0.00001970
S        1.92511956       1.36126535       6.71946164       0.00296503       0.00209779      -0.00000013
S        5.83384553       4.12515165       6.71946147      -0.00295669      -0.00209248      -0.00000042
S        4.85666434       1.36126502       5.02693342      -0.00148463       0.00209635       0.00256526
S        2.90230085       4.12515189       8.41198970       0.00148255      -0.00209695      -0.00257158
S        2.90230105       4.12515226       5.02693275       0.00148919      -0.00210571       0.00258029
S        4.85666420       1.36126510       8.41198936      -0.00147429       0.00208467      -0.00255418
