9
Lattice="5.476503876103349 -2.775989154058561e-07 3.161860922379381 1.8255010521841843 5.163297582073414 3.161860884495114 -1.1407492250561161e-07 -1.2706174928556672e-07 6.323722042342304" Properties=species:S:1:pos:R:3:forces:R:3 energy=-39.487117767333984 free_energy=-39.487117767333984 stress="5.942479765508324e-05 -1.2492496637150907e-07 1.3688919331400484e-08 -1.2492496637150907e-07 5.9500944189494476e-05 2.7910978417367005e-08 1.3688919331400484e-08 2.7910978417367005e-08 5.969262929284014e-05" pbc="T T T"
Au       1.82549993       1.29082328       3.16186097      -0.00000516      -0.00000444       0.00000150
Au       5.47650315       3.87247239       9.48558285      -0.00000269      -0.00000225       0.00000193
Ta      -0.00000039      -0.00000097       0.00000087       0.00000381       0.00000543      -0.00000469
S        1.96353719       1.38843073       6.32372178       0.00356835       0.00252311      -0.00000196
S        5.33846837       3.77486796       6.32372203      -0.00357050      -0.00252526      -0.00000118
S        4.49473540       1.38843082       4.86233447      -0.00178182       0.00252083       0.00308615
S        2.80727058       3.77486610       7.78510911       0.00178172      -0.00251743      -0.00308293
S        2.80727003       3.77486729       4.86233484       0.00178395      -0.00251877       0.00308710
S        4.49473501       1.38843103       7.78510841      -0.00177772       0.00251849      -0.00308582
