9
Lattice="5.5945336265536705 -1.4846961796355182e-07 3.2300055850929463 1.8648443955273806 5.274576736636363 3.2300055966606864 5.994185800528219e-08 5.655282614595741e-08 6.46001106636352" Properties=species:S:1:pos:R:3:forces:R:3 energy=-33.55986404418945 free_energy=-33.55986404418945 stress="3.343240905451239e-06 2.0110235254833242e-08 -1.2939516125243244e-08 2.0110235254833242e-08 3.345957111378084e-06 2.1255116777751937e-08 -1.2939516125243244e-08 2.1255116777751937e-08 3.4812630929081934e-06" pbc="T T T"
Au       1.86484414       1.31864458       3.23000567       0.00000073       0.00000008       0.00000013
Au       5.59453400       3.95593351       9.69001733      -0.00000028      -0.00000059       0.00000033
Ti       0.00000061       0.00000011       0.00000021      -0.00000235      -0.00000162      -0.00000029
Se       2.05930158       1.45614593       6.46001139       0.00255957       0.00180985       0.00000187
Se       5.40007657       3.81843067       6.46001187      -0.00255967      -0.00180830       0.00000242
Se       4.56488290       1.45614621       5.01341353      -0.00127919       0.00180941       0.00221389
Se       2.89449458       3.81843026       7.90660886       0.00127910      -0.00180831      -0.00221572
Se       2.89449467       3.81843044       5.01341241       0.00128035      -0.00180829       0.00221429
Se       4.56488324       1.45614479       7.90660780      -0.00127830       0.00180778      -0.00221686
