9
Lattice="5.4631435414475575 -2.344712018054472e-07 3.154147052292092 1.8210477093382706 5.150700190855399 3.1541469080977067 1.4203530099671107e-07 -7.616726921632858e-08 6.308293858571872" Properties=species:S:1:pos:R:3:forces:R:3 energy=-36.06864547729492 free_energy=-36.06864547729492 stress="-8.399962825933471e-05 -2.024671985623172e-08 -1.8177278349185144e-08 -2.024671985623172e-08 -8.391026494791731e-05 -1.5914337625488884e-09 -1.8177278349185144e-08 -1.5914337625488884e-09 -8.391417941311374e-05" pbc="T T T"
Au       1.82104800       1.28767496       3.15414643       0.00000098       0.00000105      -0.00000210
Au       5.46314419       3.86302483       9.46244017       0.00000255      -0.00000018      -0.00000210
V        0.00000025       0.00000043      -0.00000017      -0.00000174      -0.00000236      -0.00000249
S        1.85307709       1.31032316       6.30829435       0.00107080       0.00075763      -0.00000039
S        5.43111415       3.84037663       6.30829409      -0.00106812      -0.00075644       0.00000040
S        4.53660467       1.31032304       4.75895938      -0.00053510       0.00075597       0.00092655
S        2.74758674       3.84037595       7.85762894       0.00053224      -0.00075442      -0.00092226
S        2.74758628       3.84037684       4.75895914       0.00053287      -0.00075495       0.00092584
S        4.53660442       1.31032366       7.85762874      -0.00053424       0.00075352      -0.00092340
