9
Lattice="5.5394624847951635 -1.9339686812534123e-07 3.1982108220152807 1.8464873772935886 5.222655055487949 3.1982107099547674 2.9066873791676708e-08 -1.1669221501252327e-07 6.396421593685161" Properties=species:S:1:pos:R:3:forces:R:3 energy=-33.68000411987305 free_energy=-33.68000411987305 stress="-2.875670907087624e-05 -2.0491022212354437e-08 -1.9460319578001872e-08 -2.0491022212354437e-08 -2.8707047022180632e-05 -3.6497473931973445e-09 -1.9460319578001872e-08 -3.6497473931973445e-09 -2.8767237381543964e-05" pbc="T T T"
Au       1.84648683       1.30566281       3.19821155      -0.00000099       0.00000011       0.00000015
Au       5.53946226       3.91699130       9.59463207      -0.00000089      -0.00000001      -0.00000017
V       -0.00000013       0.00000025       0.00000029       0.00000022      -0.00000027      -0.00000192
Se       2.03540133       1.43924642       6.39642126      -0.00897948      -0.00634856       0.00000095
Se       5.35054815       3.78340859       6.39642172       0.00898176       0.00635004       0.00000140
Se       4.52176193       1.43924619       4.96092059       0.00449117      -0.00635144      -0.00777803
Se       2.86418857       3.78340876       7.83192204      -0.00449098       0.00634946       0.00777997
Se       2.86418873       3.78340852       4.96092071      -0.00449121       0.00635063      -0.00777961
Se       4.52176200       1.43924606       7.83192243       0.00449037      -0.00634988       0.00777726
