9
Lattice="4.597811809654042 -2.47960015081528e-08 2.6545480171726323 1.5326038743528287 4.334858746498371 2.6545480844119655 -2.7956163545531627e-08 6.258304428395231e-08 5.309096082766776" Properties=species:S:1:pos:R:3:forces:R:3 energy=-42.120460510253906 free_energy=-42.120460510253906 stress="0.00010862743511097506 -1.3930126385730546e-08 -8.298316700461328e-09 -1.3930126385730546e-08 0.00010866787488339469 1.7834647536574266e-08 -8.298316700461328e-09 1.7834647536574266e-08 0.00010856935114134103" pbc="T T T"
Au       1.53260168       1.08371476       2.65455001      -0.00002273       0.00000075       0.00002315
Au       4.59781132       3.25114364       7.96364668      -0.00000894      -0.00000550       0.00002999
V        0.00000008      -0.00000002       0.00000026      -0.00000225      -0.00000231       0.00000877
O        1.53419926       1.08484230       5.30909523       0.00478458       0.00338089      -0.00000924
O        4.59621698       3.25001614       5.30909521      -0.00477803      -0.00338417      -0.00001212
O        3.83071300       1.08484344       3.98320242      -0.00237972       0.00338680       0.00413311
O        2.29970312       3.25001664       6.63498824       0.00239003      -0.00337601      -0.00414860
O        2.29970380       3.25001581       3.98320265       0.00239575      -0.00338018       0.00412846
O        3.83071352       1.08484210       6.63498810      -0.00237840       0.00337863      -0.00415397
