9
Lattice="5.760954937002884 2.207627630956147e-09 3.3260889528184556 1.9203183147430836 5.431480604167417 3.326088952251373 -7.928632516610432e-09 -6.3008225837332296e-09 6.652177919369731" Properties=species:S:1:pos:R:3:forces:R:3 energy=-37.662227630615234 free_energy=-37.662227630615234 stress="6.409692332454142e-07 -8.966080855543623e-08 8.21946866125245e-09 -8.966080855543623e-08 6.921555950611946e-07 -1.2836944840444175e-08 8.21946866125245e-09 -1.2836944840444175e-08 7.23434197880124e-07" pbc="T T T"
Au       1.92031849       1.35787005       3.32608882       0.00000001      -0.00000022       0.00000006
Au       5.76095468       4.07361062       9.97826673       0.00000041       0.00000007      -0.00000016
W       -0.00000008      -0.00000004      -0.00000010      -0.00000146       0.00000120       0.00000170
Se       1.95595137       1.38306655       6.65217790       0.00026612       0.00018893      -0.00000028
Se       5.72532181       4.04841401       6.65217778      -0.00026650      -0.00018819      -0.00000040
Se       4.78297893       1.38306675       5.01999333      -0.00012945       0.00018311       0.00022489
Se       2.89829445       4.04841365       8.28436290       0.00013072      -0.00018529      -0.00022621
Se       2.89829448       4.04841372       5.01999309       0.00012946      -0.00018336       0.00022457
Se       4.78297881       1.38306709       8.28436283      -0.00012948       0.00018375      -0.00022413
