9
Lattice="5.525192918956216 3.070577227906814e-07 3.189971629332281 1.8417312204392136 5.209202173790494 3.1899717021528806 7.52450020535209e-08 1.423929168375482e-07 6.379943128336402" Properties=species:S:1:pos:R:3:forces:R:3 energy=-40.40711212158203 free_energy=-40.40711212158203 stress="-0.00031514459988102317 1.0508284020716019e-07 -9.002163459115309e-09 1.0508284020716019e-07 -0.0003152719291392714 -4.179226920086876e-08 -9.002163459115309e-09 -4.179226920086876e-08 -0.0003153890138491988" pbc="T T T"
Au       1.84173106       1.30230055       3.18997197       0.00000054       0.00000104      -0.00000003
Au       5.52519279       3.90690279       9.56991390      -0.00000123       0.00000235      -0.00000270
W        0.00000018       0.00000010      -0.00000023      -0.00000391      -0.00000318       0.00000118
S        1.87348623       1.32475407       6.37994333       0.00702322       0.00496338       0.00000202
S        5.49343796       3.88444782       6.37994420      -0.00701699      -0.00496182       0.00000255
S        4.58845010       1.32475460       4.81245712      -0.00351445       0.00496949       0.00608701
S        2.77847406       3.88444833       7.94742918       0.00351375      -0.00497042      -0.00608793
S        2.77847384       3.88444758       4.81245711       0.00351350      -0.00496963       0.00608578
S        4.58845059       1.32475460       7.94742923      -0.00351442       0.00496891      -0.00608763
