9
Lattice="4.720152176968443 -8.855578293923128e-08 2.725181110475063 1.5733840075829109 4.450201873331023 2.725181054902912 1.0399869937141803e-07 5.476415195775547e-09 5.450362040819119" Properties=species:S:1:pos:R:3:forces:R:3 energy=-43.064056396484375 free_energy=-43.064056396484375 stress="-4.736690243589692e-05 -1.8091579079282383e-07 3.466026043952297e-08 -1.8091579079282383e-07 -4.735588299809024e-05 4.227607419693413e-08 3.466026043952297e-08 4.227607419693413e-08 -4.7256940888473764e-05" pbc="T T T"
Au       1.57338243       1.11255023       2.72518183      -0.00001792      -0.00000343       0.00000599
Au       4.72015346       3.33765180       8.17554206       0.00001080       0.00000673      -0.00001719
W       -0.00000006      -0.00000035       0.00000004       0.00000034       0.00000498      -0.00000098
O        1.58988622       1.12421874       5.45036219      -0.00097120      -0.00068778      -0.00000207
O        4.70365075       3.32598336       5.45036293       0.00096631       0.00068069       0.00000745
O        3.92520942       1.12421808       4.10206347       0.00049287      -0.00069547      -0.00083756
O        2.36832667       3.32598310       6.79866083      -0.00048989       0.00069463       0.00083959
O        2.36832636       3.32598280       4.10206253      -0.00048906       0.00068516      -0.00083840
O        3.92521007       1.12421942       6.79866138       0.00049746      -0.00068629       0.00084412
