9
Lattice="5.619921573044674 1.3679592821125344e-08 3.2446631986010845 1.8733071769139429 5.298512940070732 3.244663245363359 -7.850033718908033e-08 1.7637029583462242e-09 6.489326533168745" Properties=species:S:1:pos:R:3:forces:R:3 energy=-34.99730682373047 free_energy=-34.99730682373047 stress="0.00018121954053640366 8.379473115383007e-09 -3.136314985496824e-09 8.379473115383007e-09 0.0001811827823985368 2.3799396231538594e-08 -3.136314985496824e-09 2.3799396231538594e-08 0.00018119043670594692" pbc="T T T"
Au       1.87330719       1.32462798       3.24466332      -0.00000001      -0.00000146       0.00000001
Au       5.61992156       3.97388524       9.73399024       0.00000028       0.00000353       0.00000408
Zr       0.00000003       0.00000022       0.00000001      -0.00000057      -0.00000113      -0.00000103
S        2.05106411       1.45032095       6.48932674      -0.00379354      -0.00268394       0.00000246
S        5.44216447       3.84819191       6.48932667       0.00379416       0.00268428       0.00000029
S        4.59438939       1.45032109       5.02093633       0.00189567      -0.00268252      -0.00328594
S        2.89883865       3.84819180       7.95771614      -0.00189975       0.00268336       0.00328453
S        2.89883958       3.84819209       5.02093646      -0.00189447       0.00268210      -0.00328629
S        4.59438972       1.45032049       7.95771596       0.00189815      -0.00268406       0.00328210
