9
Lattice="5.627772471853697 1.0627138018060552e-07 3.2491960025702356 1.875924246911409 5.305915212267412 3.249196020872458 6.476036098891166e-08 6.820804068362389e-08 6.498391892972221" Properties=species:S:1:pos:R:3:forces:R:3 energy=-24.76953125 free_energy=-24.76953125 stress="7.615314098075032e-05 -2.1252759552226053e-08 -2.0199818706601036e-08 -2.1252759552226053e-08 7.614150672452524e-05 1.0581144849197699e-08 -2.0199818706601036e-08 1.0581144849197699e-08 7.61902701924555e-05" pbc="T T T"
Au       1.87592441       1.32647828       3.24919650      -0.00000042       0.00000014       0.00000015
Au       5.62777231       3.97943681       9.74758804       0.00000046       0.00000005       0.00000008
Zn       0.00000005      -0.00000018       0.00000019       0.00000047       0.00000103      -0.00000085
Se       2.16523647       1.53105364       6.49839179      -0.00336344      -0.00237877       0.00000012
Se       5.33846025       3.77486211       6.49839229       0.00336083       0.00237777       0.00000036
Se       4.54515412       1.53105396       5.12434635       0.00168239      -0.00237817      -0.00291169
Se       2.95854280       3.77486164       7.87243757      -0.00168041       0.00237797       0.00291173
Se       2.95854256       3.77486154       5.12434558      -0.00168136       0.00237810      -0.00291171
Se       4.54515421       1.53105375       7.87243733       0.00168150      -0.00237814       0.00291179
