9
Lattice="5.731188179882688 -1.1360825218275952e-07 3.308903006005926 1.910395894223473 5.403416323387089 3.3089031075499657 -1.7251289335641403e-07 2.380518274306416e-09 6.617806310812932" Properties=species:S:1:pos:R:3:forces:R:3 energy=-33.389076232910156 free_energy=-33.389076232910156 stress="-1.7185824390253401e-06 -5.748647424752562e-08 -6.836008736854637e-08 -5.748647424752562e-08 -1.8188810599895078e-06 4.1356184254937034e-08 -6.836008736854637e-08 4.1356184254937034e-08 -1.6766084627306554e-06" pbc="T T T"
Au       1.91039592       1.35085347       3.30890307      -0.00000017      -0.00000136      -0.00000036
Au       5.73118771       4.05256198       9.92670869      -0.00000014      -0.00000042      -0.00000021
Zr      -0.00000083      -0.00000149       0.00000015       0.00000399       0.00000743       0.00000060
Se       2.15713888       1.52532779       6.61780663       0.00116655       0.00082241       0.00000005
Se       5.48444561       3.87808965       6.61780644      -0.00116625      -0.00082402       0.00000067
Se       4.65261862       1.52532711       5.17704066      -0.00058214       0.00081841       0.00100882
Se       2.98896629       3.87808884       8.05857184       0.00058179      -0.00082276      -0.00100593
Se       2.98896515       3.87808955       5.17704028       0.00058119      -0.00082349       0.00100826
Se       4.65261827       1.52532789       8.05857199      -0.00058481       0.00082378      -0.00101191
