9
Lattice="5.4846950419472 2.990433751927607e-08 3.166590138970801 1.828231706460922 5.171020116536806 3.166590143096936 2.9967431114880972e-09 7.172485851430382e-09 6.333180272751084" Properties=species:S:1:pos:R:3:forces:R:3 energy=-24.01189422607422 free_energy=-24.01189422607422 stress="0.00021155932336114347 9.595126471140247e-09 2.7548843206659512e-08 9.595126471140247e-09 0.00021158592426218092 -5.527597490839753e-09 2.7548843206659512e-08 -5.527597490839753e-09 0.0002115496899932623" pbc="T T T"
Au       1.82823182       1.29275537       3.16659035      -0.00000060       0.00000171       0.00000249
Au       5.48469509       3.87826485       9.49976977      -0.00000060      -0.00000107      -0.00000173
Zn      -0.00000004       0.00000011       0.00000024       0.00000065       0.00000011      -0.00000500
S        1.94086570       1.37239961       6.33317993      -0.00210524      -0.00148842      -0.00000117
S        5.37206111       3.79862065       6.33318004       0.00210555       0.00148738      -0.00000019
S        4.51426207       1.37239914       4.84742901       0.00105166      -0.00148765      -0.00182187
S        2.79866468       3.79862062       7.81893194      -0.00105273       0.00148879       0.00182649
S        2.79866408       3.79862065       4.84742915      -0.00105274       0.00148728      -0.00182288
S        4.51426248       1.37239960       7.81893179       0.00105408      -0.00148807       0.00182395
