9
Lattice="4.777822118893145 2.065091727141819e-07 2.758477321346265 1.5926075163374964 4.5045744393063 2.75847741024481 -1.3757577758459935e-07 1.159728418379387e-08 5.516954880980787" Properties=species:S:1:pos:R:3:forces:R:3 energy=-43.72114181518555 free_energy=-43.72114181518555 stress="-0.00021757125796284527 -5.479802211993956e-08 1.0214034773525782e-07 -5.479802211993956e-08 -0.00021770843886770308 3.815054938627327e-08 1.0214034773525782e-07 3.815054938627327e-08 -0.00021783819829579443" pbc="T T T"
Au       1.59260548       1.12614396       2.75847912      -0.00003071       0.00000257       0.00002490
Au       4.77782217       3.37843170       8.27543073       0.00000258       0.00001177      -0.00001791
Zr      -0.00000006       0.00000007       0.00000026      -0.00000299       0.00000099      -0.00000012
O        1.71546358       1.21301592       5.51695406      -0.00259197      -0.00183603      -0.00001052
O        4.65496657       3.29155814       5.51695555       0.00260043       0.00182804       0.00000784
O        3.92009087       1.21301554       4.24411341       0.00130376      -0.00184309      -0.00224161
O        2.45033921       3.29155938       6.78979662      -0.00129223       0.00184196       0.00224417
O        2.45033864       3.29155796       4.24411245      -0.00130060       0.00183091      -0.00224715
O        3.92009148       1.21301609       6.78979642       0.00131211      -0.00183699       0.00224054
