9
Lattice="4.600564949391002 1.3613574579975059e-07 2.6561372972802997 1.533521724368222 4.337454410944091 2.6561373904279098 1.4580451895280525e-08 1.2439195110051057e-07 5.312274569306571" Properties=species:S:1:pos:R:3:forces:R:3 energy=-30.216670989990234 free_energy=-30.216670989990234 stress="-5.8457506384002045e-05 2.3377658919798705e-07 -9.010618384763802e-08 2.3377658919798705e-07 -5.8780668041436e-05 -7.179530570056158e-08 -9.010618384763802e-08 -7.179530570056158e-08 -5.8683301176643e-05" pbc="T T T"
Au       1.53352277       1.08436580       2.65613554       0.00000943       0.00002186      -0.00002281
Au       4.60056414       3.25309052       7.96841188      -0.00000930      -0.00000515       0.00000001
Zn      -0.00000005      -0.00000023      -0.00000040      -0.00000229       0.00000730       0.00000580
O        1.59229496       1.12592278       5.31227644      -0.00108722      -0.00076959       0.00001327
O        4.54179170       3.21153097       5.31227438       0.00109056       0.00076136      -0.00000233
O        3.80441797       1.12592205       4.03510427       0.00054124      -0.00076368      -0.00093713
O        2.32966854       3.21153133       6.58944538      -0.00054045       0.00074834       0.00094035
O        2.32966925       3.21153244       4.03510397      -0.00053446       0.00075725      -0.00093856
O        3.80441743       1.12592306       6.58944571       0.00053212      -0.00075758       0.00094151
