9
Lattice="5.1615341307650375 -2.849355516999402e-09 2.9800131597298365 1.7205113803784544 4.8663409416679215 2.980013149089646 -1.3885135284414412e-09 -1.4013377204706655e-08 5.9600263218646825" Properties=species:S:1:pos:R:3:forces:R:3 energy=-45.583614349365234 free_energy=-45.583614349365234 stress="8.210712258005515e-05 -4.450183777038319e-09 5.293286875485137e-08 -4.450183777038319e-09 8.20465647848323e-05 -4.897736971543054e-08 5.293286875485137e-08 -4.897736971543054e-08 8.207532664528117e-05" pbc="T T T"
Ba       1.72051142       1.21658536       2.98001309      -0.00000048      -0.00000088      -0.00000032
Ba       5.16153419       3.64975555       8.94003895       0.00000040       0.00000128       0.00000219
Au       0.00000003      -0.00000008      -0.00000012      -0.00000421      -0.00000392      -0.00000362
O        1.62905801       1.15191794       5.96002640      -0.00033352      -0.00023642      -0.00000015
O        5.25298743       3.71442297       5.96002645       0.00033775       0.00023887      -0.00000021
O        4.34700525       1.15191796       4.39081869       0.00016674      -0.00023565      -0.00028899
O        2.53504034       3.71442293       7.52923403      -0.00016764       0.00023720       0.00029075
O        2.53504027       3.71442304       4.39081886      -0.00016837       0.00023857      -0.00029218
O        4.34700503       1.15191810       7.52923399       0.00016950      -0.00023934       0.00029242
