9
Lattice="5.146068757388208 1.6963103478665584e-07 2.9710841553415 1.7153563622211525 4.851760490821448 2.971084242240696 -5.958411776186359e-09 1.0221608593205797e-07 5.942168321003258" Properties=species:S:1:pos:R:3:forces:R:3 energy=-43.48320388793945 free_energy=-43.48320388793945 stress="3.69513982150238e-05 3.50529738568639e-08 -6.352079395810506e-08 3.50529738568639e-08 3.6948327760910615e-05 9.163875347439898e-08 -6.352079395810506e-08 9.163875347439898e-08 3.690827725222334e-05" pbc="T T T"
Ba       1.71535671       1.21294018       2.97108427      -0.00000164       0.00000041       0.00000003
Ba       5.14606860       3.63882070       8.91325237       0.00000088       0.00000024      -0.00000063
Ag      -0.00000001       0.00000000       0.00000004       0.00000417       0.00000335       0.00000081
O        1.60572170       1.13541684       5.94216837       0.00079179       0.00056008       0.00000027
O        5.25570363       3.71634385       5.94216843      -0.00079596      -0.00056323      -0.00000044
O        4.34320793       1.13541668       4.36167986      -0.00039661       0.00056159       0.00068766
O        2.51821717       3.71634400       7.52265680       0.00039735      -0.00056246      -0.00068831
O        2.51821691       3.71634412       4.36167973       0.00040069      -0.00056621       0.00069314
O        4.34320791       1.13541691       7.52265678      -0.00040036       0.00056598      -0.00069302
