9
Lattice="5.9826562272667365 1.836845765625446e-07 3.454088150952553 1.9942189005690456 5.640502268721908 3.4540881769899126 -5.732111157660002e-08 -8.642976141930962e-09 6.908176401188079" Properties=species:S:1:pos:R:3:forces:R:3 energy=-34.70294189453125 free_energy=-34.70294189453125 stress="-8.734323637327179e-05 1.738129995487725e-08 2.039807434073282e-08 1.738129995487725e-08 -8.740519115235656e-05 -2.1539182881724628e-08 2.039807434073282e-08 -2.1539182881724628e-08 -8.742143836570904e-05" pbc="T T T"
Ba       1.99421886       1.41012562       3.45408815       0.00000019       0.00000035       0.00000085
Ba       5.98265631       4.23037682      10.36226464      -0.00000060      -0.00000058       0.00000017
Ag       0.00000004      -0.00000029      -0.00000115       0.00000019       0.00000266       0.00000828
Se       2.15487888       1.52372930       6.90817626       0.00301018       0.00212841      -0.00000032
Se       5.82199608       4.11677315       6.90817640      -0.00301018      -0.00212915       0.00000062
Se       4.90521701       1.52372922       5.32026764      -0.00150430       0.00212817       0.00260419
Se       3.07165756       4.11677386       8.49608573       0.00150597      -0.00213040      -0.00260952
Se       3.07165818       4.11677328       5.32026779       0.00150453      -0.00212821       0.00260422
Se       4.90521731       1.52372879       8.49608549      -0.00150599       0.00212874      -0.00260852
