9
Lattice="6.015099369531228 7.740496353370028e-08 3.4728190628241786 2.0050330795117253 5.671090399032674 3.472819264856487 -7.729411881043698e-08 1.9278286029464214e-07 6.945638259525758" Properties=species:S:1:pos:R:3:forces:R:3 energy=-35.595123291015625 free_energy=-35.595123291015625 stress="-1.4741411177965347e-05 4.777557904844798e-09 1.3483892224996907e-08 4.777557904844798e-09 -1.47625733006862e-05 3.266857673267509e-09 1.3483892224996907e-08 3.266857673267509e-09 -1.4690968782815617e-05" pbc="T T T"
Ba       2.00503315       1.41777254       3.47281916       0.00000039       0.00000069       0.00000088
Ba       6.01509916       4.25331799      10.41845732      -0.00000131      -0.00000092       0.00000125
Au       0.00000014       0.00000015       0.00000005      -0.00000091      -0.00000096       0.00000173
Se       2.13512530       1.50976200       6.94563822       0.00067973       0.00048044      -0.00000044
Se       5.88500697       4.16132863       6.94563832      -0.00067806      -0.00047988      -0.00000016
Se       4.94753668       1.50976197       5.32189210      -0.00033893       0.00048047       0.00058746
Se       3.07259564       4.16132876       8.56938433       0.00033940      -0.00048015      -0.00058851
Se       3.07259562       4.16132858       5.32189242       0.00033973      -0.00047979       0.00058705
Se       4.94753686       1.50976212       8.56938444      -0.00034006       0.00048023      -0.00058919
