9
Lattice="5.811050391001239 -1.1417432184210789e-07 3.3550115999452976 1.9370167064644026 5.478710950533015 3.3550115703123855 -5.160696331339327e-08 -7.27843800710461e-08 6.7100232892764105" Properties=species:S:1:pos:R:3:forces:R:3 energy=-37.206626892089844 free_energy=-37.206626892089844 stress="8.180446457117796e-05 4.678514464728778e-09 4.4253321007659e-09 4.678514464728778e-09 8.180503937182948e-05 2.7641955391288775e-09 4.4253321007659e-09 2.7641955391288775e-09 8.18505504867062e-05" pbc="T T T"
Ba       1.93701623       1.36967762       3.35501178       0.00000029      -0.00000092       0.00000052
Ba       5.81105057       4.10903290      10.06503453       0.00000025       0.00000067      -0.00000024
Au      -0.00000076      -0.00000061       0.00000039       0.00000918       0.00000602      -0.00000389
S        2.01115049       1.42209836       6.71002337      -0.00147921      -0.00104624      -0.00000032
S        5.73691642       4.05661283       6.71002339       0.00147396       0.00104266      -0.00000043
S        4.80547545       1.42209816       5.09671909       0.00073624      -0.00104237      -0.00127786
S        2.94259199       4.05661223       8.32332723      -0.00073850       0.00104442       0.00127918
S        2.94259240       4.05661324       5.09671888      -0.00073889       0.00104120      -0.00127774
S        4.80547532       1.42209841       8.32332723       0.00073662      -0.00104558       0.00128078
