9
Lattice="6.42026806524159 -3.612398288213233e-07 3.7067439755269342 2.1400890849602536 6.053086859427349 3.706743853486903 1.9125756930331655e-09 -1.4811556173393562e-07 7.413487947741231" Properties=species:S:1:pos:R:3:forces:R:3 energy=-33.53627395629883 free_energy=-33.53627395629883 stress="-1.2639826309168711e-05 -1.2102372437539088e-08 1.6706602323779407e-08 -1.2102372437539088e-08 -1.2683586646744516e-05 7.568328186380313e-09 1.6706602323779407e-08 7.568328186380313e-09 -1.2650833923544269e-05" pbc="T T T"
Ba       2.14008946       1.51327167       3.70674399       0.00000015      -0.00000047      -0.00000029
Ba       6.42026776       4.53981454      11.12023177       0.00000016       0.00000049       0.00000044
Be       0.00000015      -0.00000022       0.00000060       0.00000148       0.00000311      -0.00000386
Te       1.97578120       1.39708922       7.41348734      -0.00072251      -0.00050974      -0.00000008
Te       6.58457639       4.65599746       7.41348818       0.00072017       0.00050830      -0.00000041
Te       5.43237686       1.39708859       5.41782180       0.00036095      -0.00050977      -0.00062494
Te       3.12797974       4.65599747       9.40915415      -0.00036265       0.00051123       0.00062577
Te       3.12797980       4.65599748       5.41782119      -0.00036100       0.00050874      -0.00062323
Te       5.43237721       1.39708914       9.40915423       0.00036328      -0.00051185       0.00062662
