9
Lattice="5.806033238107815 4.036379008993567e-08 3.35211497809155 1.9353444509568578 5.473980674053525 3.3521149777470227 -7.767486320076939e-08 -5.534632906332435e-08 6.704230090719926" Properties=species:S:1:pos:R:3:forces:R:3 energy=-36.33510971069336 free_energy=-36.33510971069336 stress="8.252506086137146e-05 4.074812665066929e-08 1.1562578450252659e-08 4.074812665066929e-08 8.244261698564515e-05 1.3808548970928314e-08 1.1562578450252659e-08 1.3808548970928314e-08 8.244718628702685e-05" pbc="T T T"
Ba       1.93534431       1.36849496       3.35211507      -0.00000046       0.00000071       0.00000006
Ba       5.80603349       4.10548540      10.05634482      -0.00000169       0.00000143      -0.00000013
Be      -0.00000005      -0.00000031      -0.00000102       0.00000030      -0.00000128       0.00000464
Se       1.89890885       1.34273180       6.70423015       0.00406463       0.00287141       0.00000121
Se       5.84246838       4.13124958       6.70422990      -0.00406301      -0.00287421       0.00000195
Se       4.85657880       1.34273159       4.99661848      -0.00203171       0.00287336       0.00351878
Se       2.88479871       4.13124923       8.41184201       0.00203453      -0.00287737      -0.00352265
Se       2.88479908       4.13124920       4.99661854       0.00203172      -0.00287171       0.00351846
Se       4.85657885       1.34273116       8.41184229      -0.00203427       0.00287743      -0.00352211
