9
Lattice="5.651301451840486 -2.2531330162609144e-08 3.2627803271184854 1.883767166777606 5.3280977273329535 3.2627802623278668 2.8376221203296364e-08 -5.928691263000143e-08 6.525560605087794" Properties=species:S:1:pos:R:3:forces:R:3 energy=-37.73549270629883 free_energy=-37.73549270629883 stress="-5.345815225155093e-05 -3.886191368707159e-09 -6.724161227822378e-09 -3.886191368707159e-09 -5.3489977290155366e-05 9.104945242199847e-09 -6.724161227822378e-09 9.104945242199847e-09 -5.348828199203126e-05" pbc="T T T"
Ba       1.88376729       1.33202425       3.26278036      -0.00000178      -0.00000159       0.00000187
Ba       5.65130150       3.99607317       9.78834112       0.00000191       0.00000105      -0.00000269
Be       0.00000005       0.00000021       0.00000018       0.00000011       0.00000058      -0.00000061
S        1.88853762       1.33539760       6.52556067       0.00503688       0.00356121      -0.00000106
S        5.64653112       3.99270001       6.52556047      -0.00503759      -0.00356187       0.00000198
S        4.70703274       1.33539768       4.89830180      -0.00251889       0.00356086       0.00436316
S        2.82803595       3.99269969       8.15281940       0.00251886      -0.00355975      -0.00436266
S        2.82803584       3.99270014       4.89830168       0.00251859      -0.00356186       0.00436248
S        4.70703248       1.33539780       8.15281916      -0.00251803       0.00356139      -0.00436267
