9
Lattice="6.349261431742947 2.907915617878257e-07 3.6657475881439368 2.1164207542229425 5.98613989989215 3.6657475832693756 -8.399447388652882e-08 -6.536329262902018e-08 7.331495321770679" Properties=species:S:1:pos:R:3:forces:R:3 energy=-33.5661735534668 free_energy=-33.5661735534668 stress="-5.463521574711194e-06 -1.3062738446478761e-08 7.603397911282173e-09 -1.3062738446478761e-08 -5.4923148127272725e-06 2.4242756690995293e-09 7.603397911282173e-09 2.4242756690995293e-09 -5.444604539661668e-06" pbc="T T T"
Ba       2.11642017       1.49653559       3.66574789       0.00000009       0.00000041       0.00000026
Ba       6.34926148       4.48960458      10.99724289      -0.00000079      -0.00000073      -0.00000029
Cu       0.00000223      -0.00000003       0.00000237      -0.00000523       0.00000033      -0.00000779
Te       2.25626566       1.59541915       7.33149589      -0.00267752      -0.00189357      -0.00000078
Te       6.20941618       4.39072114       7.33149533       0.00267932       0.00189392      -0.00000059
Te       5.22112864       1.59541948       5.61973068       0.00133820      -0.00189146      -0.00231749
Te       3.24455371       4.39071916       9.04325772      -0.00133931       0.00189553       0.00232118
Te       3.24455285       4.39072121       5.61973117      -0.00133602       0.00189065      -0.00231659
Te       5.22112743       1.59542018       9.04325799       0.00134127      -0.00189508       0.00232203
