9
Lattice="5.901097138897196 1.379219849342754e-07 3.4070002164191138 1.9670325057558968 5.563608409949492 3.407000223192418 -1.3521697640635308e-07 -8.73171561299365e-08 6.814000667040835" Properties=species:S:1:pos:R:3:forces:R:3 energy=-33.98530960083008 free_energy=-33.98530960083008 stress="-9.476219565840438e-05 -2.157883205455846e-09 5.0130193329778194e-09 -2.157883205455846e-09 -9.478136780671775e-05 5.0275379415154475e-09 5.0130193329778194e-09 5.0275379415154475e-09 -9.468977805227041e-05" pbc="T T T"
Ba       1.96703234       1.39090228       3.40700044       0.00000151      -0.00000126      -0.00000197
Ba       5.90109737       4.17270625      10.22100034      -0.00000187       0.00000139       0.00000038
Cd       0.00000010       0.00000002      -0.00000002       0.00000074      -0.00000071      -0.00000063
S        2.13987196       1.51311773       6.81400066      -0.00173026      -0.00122395       0.00000183
S        5.72825762       4.05049093       6.81400051       0.00173020       0.00122410       0.00000049
S        4.83116088       1.51311800       5.26018385       0.00086600      -0.00122252      -0.00149798
S        3.03696859       4.05049015       8.36781729      -0.00086462       0.00122416       0.00149751
S        3.03696868       4.05049010       5.26018403      -0.00086465       0.00122300      -0.00149819
S        4.83116052       1.51311840       8.36781736       0.00086337      -0.00122404       0.00149804
