9
Lattice="6.037548122206452 -1.7542988149342522e-07 3.4857801355760403 2.0125158786461435 5.692254921531818 3.4857801298473046 6.13238657946491e-08 3.634619414082836e-08 6.97156016493604" Properties=species:S:1:pos:R:3:forces:R:3 energy=-37.34222412109375 free_energy=-37.34222412109375 stress="-8.338516636285931e-05 1.361625034945746e-08 2.5584217411278587e-08 1.361625034945746e-08 -8.336675091413781e-05 -7.092468834457577e-10 2.5584217411278587e-08 -7.092468834457577e-10 -8.341697684954852e-05" pbc="T T T"
Ba       2.01251655       1.42306324       3.48578007      -0.00000085       0.00000033       0.00000169
Ba       6.03754834       4.26919118      10.45734026      -0.00000069      -0.00000022      -0.00000040
Ca      -0.00000074      -0.00000055      -0.00000103       0.00000599       0.00000479       0.00000778
S        2.22137410       1.57074866       6.97156031      -0.00222491      -0.00157394      -0.00000063
S        5.82869050       4.12150657       6.97156048       0.00222021       0.00157027      -0.00000065
S        4.92686106       1.57074827       5.40954641       0.00111236      -0.00157395      -0.00192737
S        3.12320248       4.12150676       8.53357479      -0.00111070       0.00157133       0.00192320
S        3.12320280       4.12150643       5.40954616      -0.00111176       0.00157318      -0.00192723
S        4.92686115       1.57074857       8.53357428       0.00111043      -0.00157176       0.00192343
