9
Lattice="5.64115250294353 5.721786159480182e-07 3.256922313292448 1.8803842344258586 5.318532883621525 3.2569231319932346 -1.2574150453626259e-06 1.1357293844818972e-07 6.5138468044915365" Properties=species:S:1:pos:R:3:forces:R:3 energy=-39.883113861083984 free_energy=-39.883113861083984 stress="0.0003793708165176213 -1.735149979253947e-08 2.2212301331592244e-08 -1.735149979253947e-08 0.0003793079231400043 3.725934050180513e-08 2.2212301331592244e-08 3.725934050180513e-08 0.000379140954464674" pbc="T T T"
Ba       1.88038586       1.32963397       3.25692243      -0.00000288       0.00000530       0.00000180
Ba       5.64114978       3.98890017       9.77077073       0.00000556       0.00000227      -0.00000542
C       -0.00000257      -0.00000176      -0.00000828      -0.00003475       0.00000836      -0.00017342
S        1.66228144       1.17541225       6.51384395       0.00229520       0.00162345      -0.00000609
S        5.85925259       4.14312121       6.51384501      -0.00226462      -0.00161090       0.00000038
S        4.81000916       1.17541636       4.69650720      -0.00116110       0.00163290       0.00201863
S        2.71152478       4.14312191       8.33118822       0.00110924      -0.00157320      -0.00193572
S        2.71152705       4.14312012       4.69650952       0.00116178      -0.00165948       0.00203085
S        4.81001363       1.17540995       8.33119114      -0.00110891       0.00157166      -0.00193179
