9
Lattice="5.138556100973124 6.044912630961425e-08 2.9667467990977503 1.7128520765585102 4.8446772218981735 2.966746823504409 4.386998108882276e-08 6.091269120583475e-08 5.933493522210483" Properties=species:S:1:pos:R:3:forces:R:3 energy=-47.0423583984375 free_energy=-47.0423583984375 stress="4.3177402403671294e-05 -3.881799770510952e-09 -1.2431599749618272e-08 -3.881799770510952e-09 4.314531179261394e-05 2.8361268888943414e-08 -1.2431599749618272e-08 2.8361268888943414e-08 4.314217949286103e-05" pbc="T T T"
Ba       1.71285201       1.21116946       2.96674678      -0.00000082      -0.00000081      -0.00000068
Ba       5.13855617       3.63350801       8.90024026      -0.00000001      -0.00000019       0.00000028
Cu       0.00000006      -0.00000015      -0.00000016      -0.00000224       0.00000462       0.00000212
O        1.51706390       1.07272611       5.93349379       0.00062093       0.00043914       0.00000042
O        5.33434426       3.77195102       5.93349368      -0.00062084      -0.00043920       0.00000010
O        4.38002413       1.07272620       4.28056272      -0.00030893       0.00043707       0.00053515
O        2.47138402       3.77195135       7.58642454       0.00031123      -0.00043946      -0.00053814
O        2.47138423       3.77195134       4.28056249       0.00031068      -0.00043955       0.00053831
O        4.38002408       1.07272609       7.58642438      -0.00030985       0.00043842      -0.00053747
