9
Lattice="6.283577324784186 3.591447552531404e-07 3.627824769662576 2.0945259346665166 5.92421369388862 3.6278250794684896 -1.1346438900044838e-07 2.9920173376559827e-07 7.255649735851244" Properties=species:S:1:pos:R:3:forces:R:3 energy=-36.066619873046875 free_energy=-36.066619873046875 stress="-8.654233170091175e-06 1.7506893712493365e-08 7.691273395948883e-09 1.7506893712493365e-08 -8.710002475709189e-06 -1.1414490685979217e-08 7.691273395948883e-09 -1.1414490685979217e-08 -8.6754844232928e-06" pbc="T T T"
Ba       2.09452563       1.48105340       3.62782490       0.00000073       0.00000003       0.00000004
Ba       6.28357755       4.44316102      10.88347462       0.00000017       0.00000004       0.00000034
Ca       0.00000045      -0.00000054      -0.00000115      -0.00000392       0.00000275       0.00000571
Se       2.36336025       1.67114818       7.25565008      -0.00034470      -0.00024462       0.00000029
Se       6.01474263       4.25306620       7.25564987       0.00034630       0.00024431      -0.00000093
Se       5.10189677       1.67114828       5.67455473       0.00017301      -0.00024530      -0.00030007
Se       3.27620570       4.25306701       8.83674556      -0.00017161       0.00024237       0.00029742
Se       3.27620627       4.25306618       5.67455509      -0.00017227       0.00024395      -0.00029954
Se       5.10189732       1.67114770       8.83674461       0.00017225      -0.00024354       0.00029679
