9
Lattice="5.193502417695879 4.3742641714161924e-08 2.998470075633061 1.7311675264712252 4.896481091338362 2.9984700536967086 5.720518198612423e-09 -2.2821437905954276e-08 5.996940141357888" Properties=species:S:1:pos:R:3:forces:R:3 energy=-41.75639343261719 free_energy=-41.75639343261719 stress="-0.0005089016049169004 4.607269943335268e-08 -5.878896036648484e-09 4.607269943335268e-08 -0.0005089416517876089 5.650074630381141e-09 -5.878896036648484e-09 5.650074630381141e-09 -0.0005089021869935095" pbc="T T T"
Ba       1.73116755       1.22412036       2.99847002      -0.00000074      -0.00000048      -0.00000035
Ba       5.19350239       3.67236078       8.99541023       0.00000051       0.00000051       0.00000044
Cd      -0.00000001       0.00000049       0.00000005       0.00000167      -0.00000845       0.00000009
O        1.78778230       1.26415289       5.99694019      -0.00502485      -0.00355211       0.00000005
O        5.13688749       3.63232808       5.99694010       0.00502732       0.00355464       0.00000013
O        4.29961138       1.26415293       4.54673495       0.00251177      -0.00355241      -0.00435072
O        2.62505868       3.63232797       7.44714504      -0.00251357       0.00355515       0.00435466
O        2.62505858       3.63232813       4.54673505      -0.00251353       0.00355479      -0.00435463
O        4.29961143       1.26415285       7.44714540       0.00251131      -0.00355163       0.00435024
