9
Lattice="5.888145901482034 -3.9806090372247924e-07 3.3995224550123178 1.9627149065769813 5.551397190735637 3.3995224872657777 -3.007355296856229e-08 1.8237122340397176e-08 6.799044962113613" Properties=species:S:1:pos:R:3:forces:R:3 energy=-40.20756912231445 free_energy=-40.20756912231445 stress="-4.545710908132605e-06 -2.5881972121055696e-08 9.663599698228609e-09 -2.5881972121055696e-08 -4.56498628409463e-06 -1.5199093539308706e-08 9.663599698228609e-09 -1.5199093539308706e-08 -4.593906396621605e-06" pbc="T T T"
Ba       1.96271511       1.38784923       3.39952244       0.00000032      -0.00000083       0.00000023
Ba       5.88814565       4.16354762      10.19856737      -0.00000117      -0.00000032       0.00000096
Co       0.00000114       0.00000062      -0.00000048      -0.00000584      -0.00000293       0.00000163
Se       1.94047442       1.37212319       6.79904550       0.00060219       0.00042447      -0.00000153
Se       5.91038621       4.17927342       6.79904486      -0.00059913      -0.00042240      -0.00000090
Se       4.91790831       1.37212273       5.08002296      -0.00029863       0.00042290       0.00051871
Se       2.93295191       4.17927404       8.51806694       0.00030135      -0.00042365      -0.00051977
Se       2.93295222       4.17927408       5.08002313       0.00030008      -0.00042244       0.00051790
Se       4.91790814       1.37212246       8.51806679      -0.00029933       0.00042518      -0.00051734
