9
Lattice="4.6595945442407825 -2.31795681963237e-07 2.690217762840621 1.5531980922634907 4.393106898507552 2.6902175387323957 -2.7368383708098057e-08 -2.938277810817627e-07 5.3804355730847035" Properties=species:S:1:pos:R:3:forces:R:3 energy=-50.5949821472168 free_energy=-50.5949821472168 stress="1.8207740140496753e-05 3.240315038510744e-08 -1.3066171788977954e-07 3.240315038510744e-08 1.7810225472203456e-05 -6.392168927504827e-08 -1.3066171788977954e-07 -6.392168927504827e-08 1.772253745002672e-05" pbc="T T T"
Ba       1.55319797       1.09827651       2.69021809       0.00000134       0.00000121      -0.00000333
Ba       4.65959422       3.29482955       8.07065190       0.00000637       0.00000432       0.00001368
C        0.00000030      -0.00000114       0.00000427       0.00000695      -0.00001516       0.00007091
O        1.30743678       0.92449715       5.38043524       0.00318563       0.00225598       0.00000434
O        4.90535551       3.46860961       5.38043581      -0.00317323      -0.00225133      -0.00001646
O        4.00587661       0.92449631       3.82248991      -0.00158411       0.00224829       0.00275481
O        2.20691738       3.46860900       6.93837914       0.00158614      -0.00226712      -0.00277883
O        2.20691587       3.46861082       3.82248908       0.00158441      -0.00224084       0.00274771
O        4.00587583       0.92449759       6.93837966      -0.00161320       0.00226468      -0.00279391
