9
Lattice="6.733355164030287 -1.0542409630812614e-07 3.8875044114192434 2.2444515914767575 6.348268518051902 3.887504464198061 -7.85640920820548e-08 9.087407369072461e-09 7.775008958915475" Properties=species:S:1:pos:R:3:forces:R:3 energy=-33.85820007324219 free_energy=-33.85820007324219 stress="1.3240632142696995e-05 1.468324928310949e-08 3.716212670923369e-09 1.468324928310949e-08 1.3240105545264669e-05 -1.04469981276889e-10 3.716212670923369e-09 -1.04469981276889e-10 1.3227259842096828e-05" pbc="T T T"
Ba       2.24445170       1.58706691       3.88750454       0.00000042       0.00000027      -0.00000008
Ba       6.73335516       4.76120154      11.66251339       0.00000010       0.00000015       0.00000052
Ca      -0.00000006      -0.00000028       0.00000137       0.00000037       0.00000196      -0.00000453
Te       2.51085363       1.77544178       7.77500869       0.00417082       0.00294927       0.00000070
Te       6.46695297       4.57282670       7.77500865      -0.00417116      -0.00294963      -0.00000020
Te       5.47792810       1.77544131       6.06196721      -0.00208621       0.00294892       0.00361283
Te       3.49987844       4.57282687       9.48805023       0.00208470      -0.00294871      -0.00361120
Te       3.49987858       4.57282729       6.06196720       0.00208603      -0.00295087       0.00361306
Te       5.47792818       1.77544158       9.48805003      -0.00208506       0.00294858      -0.00361107
