9
Lattice="5.867039979855775 1.1965141522939186e-07 3.38733682684323 1.9556800691556855 5.531498505396543 3.38733689082159 -1.0024501486531323e-08 7.126879379090574e-08 6.774673671049323" Properties=species:S:1:pos:R:3:forces:R:3 energy=-36.070716857910156 free_energy=-36.070716857910156 stress="-0.000348937523085624 -2.853229652544087e-09 -4.889589622081303e-09 -2.853229652544087e-09 -0.0003489548689685762 -1.7107279148831367e-08 -4.889589622081303e-09 -1.7107279148831367e-08 -0.0003488908405415714" pbc="T T T"
Ba       1.95567999       1.38287449       3.38733688      -0.00000033       0.00000001       0.00000127
Ba       5.86704013       4.14862414      10.16201090       0.00000093      -0.00000049      -0.00000145
Cu       0.00000016       0.00000011       0.00000012      -0.00000127       0.00000005      -0.00000135
Se       2.02879856       1.43457674       6.77467458       0.00856532       0.00605650      -0.00000085
Se       5.79392151       4.09692159       6.77467479      -0.00856540      -0.00605623      -0.00000091
Se       4.85264134       1.43457701       5.14432731      -0.00428268       0.00605643       0.00741702
Se       2.97007922       4.09692105       8.40501910       0.00428265      -0.00605525      -0.00741550
Se       2.97007851       4.09692198       5.14432657       0.00428225      -0.00605662       0.00741801
Se       4.85264067       1.43457773       8.40501920      -0.00428133       0.00605562      -0.00741607
