9
Lattice="5.6657466247623 2.7003871847232803e-07 3.2711200314787003 1.8885825288098517 5.341716949809936 3.271119917231165 1.6816472335448853e-07 -2.1013655891392938e-08 6.542239771687532" Properties=species:S:1:pos:R:3:forces:R:3 energy=-37.72597885131836 free_energy=-37.72597885131836 stress="2.3198048438644037e-05 1.7111827510518651e-09 9.01128327512879e-09 1.7111827510518651e-09 2.3244529074872844e-05 6.479503156242572e-09 9.01128327512879e-09 6.479503156242572e-09 2.3230479200719856e-05" pbc="T T T"
Ba       1.88858254       1.33542952       3.27112000      -0.00000149       0.00000031       0.00000154
Ba       5.66574675       4.00628784       9.81335982       0.00000030      -0.00000085      -0.00000349
Cu       0.00000019       0.00000000      -0.00000018      -0.00000198       0.00000122      -0.00000090
S        1.91129487       1.35148925       6.54224018      -0.00043654      -0.00030726      -0.00000047
S        5.64303459       3.99022783       6.54224000       0.00043738       0.00030804       0.00000025
S        4.71009962       1.35148950       4.92634958       0.00021785      -0.00030911      -0.00037742
S        2.84422971       3.99022755       8.15812990      -0.00021723       0.00030860       0.00037789
S        2.84422969       3.99022787       4.92634957      -0.00021827       0.00030738      -0.00037658
S        4.71009937       1.35148958       8.15812984       0.00021997      -0.00030845       0.00037938
