9
Lattice="5.127033087053275 -3.372995408673439e-08 2.9600940859139193 1.7090110937079432 4.8338129262785445 2.9600939187864848 1.762546703661195e-07 -8.005767813037396e-08 5.9201878665458105" Properties=species:S:1:pos:R:3:forces:R:3 energy=-55.72563552856445 free_energy=-55.72563552856445 stress="7.24897618056275e-05 -5.496737287558062e-08 1.1762493201672442e-08 -5.496737287558062e-08 7.239338447107002e-05 -2.0890691398989247e-09 1.1762493201672442e-08 -2.0890691398989247e-09 7.251359056681395e-05" pbc="T T T"
Ba       1.70901100       1.20845306       2.96009387       0.00000030       0.00000030       0.00000029
Ba       5.12703330       3.62535946       8.88028216       0.00000088      -0.00000014      -0.00000077
Cr       0.00000012       0.00000112      -0.00000116      -0.00000096       0.00000698      -0.00000552
O        1.51290156       1.06978234       5.92018802       0.00199544       0.00141111       0.00000114
O        5.32314340       3.76403012       5.92018799      -0.00200063      -0.00141844       0.00000117
O        4.37058241       1.06978253       4.27030538      -0.00099641       0.00141269       0.00172955
O        2.46546189       3.76403001       7.57007081       0.00099790      -0.00141177      -0.00172535
O        2.46546182       3.76403006       4.27030543       0.00099927      -0.00141338       0.00172815
O        4.37058223       1.06978220       7.57007104      -0.00099578       0.00141326      -0.00172916
