9
Lattice="6.585512120327453 3.1391698847775927e-06 3.8021442358632447 2.195173669334028 6.208879385946451 3.802144230804852 -3.0006007883290403e-07 -2.1836979661275043e-07 7.604288991445813" Properties=species:S:1:pos:R:3:forces:R:3 energy=-30.86026382446289 free_energy=-30.86026382446289 stress="-2.805336862365948e-06 1.070765449640021e-07 -1.5598523361859407e-08 1.070765449640021e-07 -2.890296173063689e-06 2.495114559408762e-09 -1.5598523361859407e-08 2.495114559408762e-09 -3.002540552188293e-06" pbc="T T T"
Ba       2.19517216       1.55222147       3.80214439      -0.00000100      -0.00000045       0.00000019
Ba       6.58551499       4.65666137      11.40643370      -0.00000037      -0.00000006      -0.00000044
Cd       0.00000171      -0.00000024      -0.00000033      -0.00001091       0.00000114      -0.00000011
Te       2.40967050       1.70389521       7.60428940       0.00009331       0.00006762      -0.00000050
Te       6.37101196       4.50498567       7.60428936      -0.00008219      -0.00005904      -0.00000095
Te       5.38067814       1.70389415       5.88897489      -0.00004642       0.00006631       0.00008269
Te       3.40000677       4.50498879       9.31960254       0.00004621      -0.00006948      -0.00008588
Te       3.40000639       4.50498871       5.88897401       0.00004809      -0.00007077       0.00008668
Te       5.38067944       1.70389422       9.31960158      -0.00004669       0.00006469      -0.00008160
