9
Lattice="5.698121411089484 6.54040157972693e-07 3.289812339485266 1.8993741961433965 5.37224188686846 3.289812727790359 2.4785675239855253e-08 4.931007777324399e-07 6.5796246360406325" Properties=species:S:1:pos:R:3:forces:R:3 energy=-43.24006271362305 free_energy=-43.24006271362305 stress="-0.00010670469782780856 3.317573993300016e-09 3.6527776359207564e-09 3.317573993300016e-09 -0.00010667547758203 -1.870283483640378e-08 3.6527776359207564e-09 -1.870283483640378e-08 -0.00010663238208508119" pbc="T T T"
Ba       1.89937405       1.34306075       3.28981263       0.00000155       0.00000041      -0.00000217
Ba       5.69812158       4.02918188       9.86943737       0.00000009       0.00000050      -0.00000036
Co      -0.00000079       0.00000001      -0.00000022       0.00000259      -0.00000004      -0.00000013
S        1.81706498       1.28486001       6.57962468       0.00211591       0.00149554       0.00000029
S        5.78043113       4.08738312       6.57962510      -0.00211775      -0.00149530       0.00000016
S        4.78958940       1.28486004       4.86343707      -0.00105926       0.00149518       0.00183254
S        2.80790609       4.08738397       8.29581288       0.00105849      -0.00149724      -0.00183231
S        2.80790649       4.08738287       4.86343711       0.00105858      -0.00149569       0.00183401
S        4.78958986       1.28485940       8.29581264      -0.00106055       0.00149685      -0.00183213
