9
Lattice="5.156032784791784 -8.000697758746863e-08 2.976836788387991 1.7186775972006139 4.861154076294274 2.9768366538053015 2.7939555224357532e-08 -1.4507322047514853e-07 5.953673528383304" Properties=species:S:1:pos:R:3:forces:R:3 energy=-45.567893981933594 free_energy=-45.567893981933594 stress="4.779444134328514e-05 -2.8243627436808083e-09 -4.269677233992297e-08 -2.8243627436808083e-09 4.7795991122256964e-05 -5.947732972799713e-08 -4.269677233992297e-08 -5.947732972799713e-08 4.768446888192557e-05" pbc="T T T"
Ba       1.71867734       1.21528838       2.97683621       0.00000198       0.00000006       0.00000093
Ba       5.15603291       3.64586580       8.93051102      -0.00000089      -0.00000231      -0.00000791
Ca       0.00000041      -0.00000102      -0.00000337      -0.00000196       0.00000736       0.00002099
O        1.88431761       1.33241335       5.95367340      -0.00139448      -0.00098605      -0.00000007
O        4.99039311       3.52874096       5.95367369       0.00139126       0.00098373      -0.00000064
O        4.21387349       1.33241384       4.60870417       0.00069907      -0.00098735      -0.00120890
O        2.66083570       3.52874116       7.29864499      -0.00069347       0.00098132       0.00120166
O        2.66083652       3.52873994       4.60870383      -0.00069682       0.00098692      -0.00120831
O        4.21387450       1.33241300       7.29864395       0.00069501      -0.00098357       0.00120270
