9
Lattice="6.414493514315596 9.269388645657887e-07 3.7034086249585805 2.1381651977323104 6.047642236618421 3.70340893840088 -6.290997284720294e-08 3.394026700110531e-07 7.40681735888041" Properties=species:S:1:pos:R:3:forces:R:3 energy=-39.92182922363281 free_energy=-39.92182922363281 stress="-0.00025289872428402305 2.6539431985384e-08 -2.5055086894099077e-08 2.6539431985384e-08 -0.0002528869081288576 4.827406030472048e-08 -2.5055086894099077e-08 4.827406030472048e-08 -0.0002528918266762048" pbc="T T T"
Ba       2.13816467       1.51191085       3.70340891       0.00000073      -0.00000056       0.00000008
Ba       6.41449397       4.53573266      11.11022607      -0.00000116      -0.00000029       0.00000017
Cr      -0.00000032       0.00000096      -0.00000084       0.00000165      -0.00000397       0.00000339
Te       2.24140622       1.58491525       7.40681802       0.00094889       0.00066895      -0.00000079
Te       6.31125290       4.46272791       7.40681744      -0.00094996      -0.00066926      -0.00000006
Te       5.29379075       1.58491461       5.64452403      -0.00047564       0.00067106       0.00082093
Te       3.25886782       4.46272877       9.16911063       0.00047642      -0.00067008      -0.00082045
Te       3.25886737       4.46272969       5.64452376       0.00047737      -0.00067266       0.00082266
Te       5.29379119       1.58491338       9.16911172      -0.00047825       0.00067678      -0.00082591
