9
Lattice="5.9525728796403845 -5.330253059909862e-08 3.436719570328213 1.9841909270545839 5.612139554464406 3.436719540141099 -1.0434789108710006e-07 -1.107566913359827e-07 6.873439321392474" Properties=species:S:1:pos:R:3:forces:R:3 energy=-42.417816162109375 free_energy=-42.417816162109375 stress="-6.304411363089457e-05 5.1487393903926204e-08 2.297626089386995e-08 5.1487393903926204e-08 -6.310478784143925e-05 -2.2093599838513e-08 2.297626089386995e-08 -2.2093599838513e-08 -6.307761941570789e-05" pbc="T T T"
Ba       1.98419084       1.40303489       3.43671962      -0.00000076      -0.00000039      -0.00000049
Ba       5.95257286       4.20910457      10.31015890       0.00000006       0.00000025       0.00000092
Fe       0.00000017       0.00000002      -0.00000002      -0.00000077      -0.00000356       0.00000102
Se       1.88525177       1.33307422       6.87343919       0.00194758       0.00137675      -0.00000081
Se       6.05151193       4.27906518       6.87343911      -0.00194529      -0.00137642      -0.00000104
Se       5.00994702       1.33307401       5.06939522      -0.00097598       0.00138000       0.00168802
Se       2.92681666       4.27906514       8.67748314       0.00097582      -0.00137918      -0.00168797
Se       2.92681669       4.27906535       5.06939538       0.00097455      -0.00137629       0.00168757
Se       5.00994685       1.33307415       8.67748316      -0.00097513       0.00137883      -0.00168751
