9
Lattice="5.1374323871883485 -9.211884667532562e-08 2.96609772212804 1.7124773754364604 4.8436174793283815 2.966097722317145 1.8629725136568975e-08 1.3404791006848701e-08 5.93219541198842" Properties=species:S:1:pos:R:3:forces:R:3 energy=-51.76167297363281 free_energy=-51.76167297363281 stress="6.69188448227942e-05 3.511243917841966e-08 3.246122659561479e-08 3.511243917841966e-08 6.68851425871253e-05 8.675358031950964e-08 3.246122659561479e-08 8.675358031950964e-08 6.683039100607857e-05" pbc="T T T"
Ba       1.71247756       1.21090454       2.96609771       0.00000043      -0.00000045       0.00000073
Ba       5.13743244       3.63271309       8.89829363      -0.00000079      -0.00000016      -0.00000134
Fe      -0.00000017      -0.00000016      -0.00000024       0.00000167       0.00000043       0.00000021
O        1.49901458       1.05996315       5.93219538       0.00084054       0.00059521       0.00000014
O        5.35089547       3.78365427       5.93219532      -0.00084239      -0.00059593       0.00000007
O        4.38792520       1.05996316       4.26428237      -0.00042178       0.00059745       0.00073156
O        2.46198452       3.78365428       7.60010857       0.00042160      -0.00059631      -0.00073189
O        2.46198448       3.78365400       4.26428228       0.00042200      -0.00059742       0.00073105
O        4.38792515       1.05996307       7.60010841      -0.00042127       0.00059712      -0.00073072
