9
Lattice="6.451385840825448 3.4038668186427824e-07 3.7247092309606824 2.1504623526099262 6.082425285199142 3.7247090841720234 2.044126277716011e-07 -3.5237155574264806e-08 7.4494181078682935" Properties=species:S:1:pos:R:3:forces:R:3 energy=-38.66480255126953 free_energy=-38.66480255126953 stress="7.11620450601913e-05 6.172120947667281e-08 5.905056887911542e-09 6.172120947667281e-08 7.11232642061077e-05 -1.907330471340174e-08 5.905056887911542e-09 -1.907330471340174e-08 7.107880082912743e-05" pbc="T T T"
Ba       2.15046184       1.52060627       3.72470849       0.00000050      -0.00000000       0.00000045
Ba       6.45138623       4.56181869      11.17412873      -0.00000037       0.00000037      -0.00000196
Fe      -0.00000026       0.00000019       0.00000046       0.00000385       0.00000203      -0.00000813
Te       1.98005204       1.40010806       7.44941823      -0.00766264      -0.00541885      -0.00000007
Te       6.62179726       4.68231773       7.44941717       0.00765999       0.00541638       0.00000052
Te       5.46136076       1.40010837       5.43948328       0.00382473      -0.00540996      -0.00662539
Te       3.14048735       4.68231716       9.45935300      -0.00382751       0.00541306       0.00663072
Te       3.14048770       4.68231779       5.43948339      -0.00382717       0.00541192      -0.00662789
Te       5.46136062       1.40010800       9.45935291       0.00382869      -0.00541485       0.00663168
