9
Lattice="5.7323634231787945 4.382815921640981e-08 3.3095816848178363 1.9107878477195606 5.404524057315969 3.3095816871184054 5.0415249888267724e-08 3.846665176737376e-08 6.619163282313842" Properties=species:S:1:pos:R:3:forces:R:3 energy=-45.20633316040039 free_energy=-45.20633316040039 stress="-0.00011459786037448794 -9.581559545779328e-09 -2.228241413604337e-08 -9.581559545779328e-09 -0.00011460202222224325 4.132876263440721e-09 -2.228241413604337e-08 4.132876263440721e-09 -0.00011451909085735679" pbc="T T T"
Ba       1.91078818       1.35113113       3.30958165      -0.00000058       0.00000120      -0.00000157
Ba       5.73236323       4.05339337       9.92874461      -0.00000083      -0.00000191       0.00000253
Fe       0.00000053      -0.00000019       0.00000032      -0.00000449       0.00000515      -0.00000514
S        1.81556906       1.28380127       6.61916325       0.00107497       0.00075981       0.00000189
S        5.82758212       4.12072305       6.61916327      -0.00107372      -0.00076056       0.00000107
S        4.82457871       1.28380145       4.88191070      -0.00053358       0.00075650       0.00092584
S        2.81857208       4.12072270       8.35641578       0.00053731      -0.00075799      -0.00092757
S        2.81857241       4.12072278       4.88191086       0.00053796      -0.00076035       0.00093049
S        4.82457903       1.28380109       8.35641608      -0.00053740       0.00075871      -0.00092757
