9
Lattice="6.037292650436289 8.400158145314975e-08 3.4856324386841506 2.0124310200336626 5.692013812022717 3.4856323393381365 7.241144633829942e-08 -7.04708720942282e-08 6.9712647519479995" Properties=species:S:1:pos:R:3:forces:R:3 energy=-37.87909698486328 free_energy=-37.87909698486328 stress="0.0001354966952931136 9.379579779533742e-09 -9.991977911738559e-09 9.379579779533742e-09 0.00013549753930419683 1.4114891477845504e-08 -9.991977911738559e-09 1.4114891477845504e-08 0.000135482638143003" pbc="T T T"
Ba       2.01243102       1.42300343       3.48563231      -0.00000021       0.00000019      -0.00000046
Ba       6.03729264       4.26901043      10.45689713       0.00000063      -0.00000047       0.00000069
Ge      -0.00000040      -0.00000025      -0.00000014       0.00000512       0.00000300      -0.00000258
Se       2.04726506       1.44763470       6.97126466       0.00277078       0.00195917      -0.00000041
Se       6.00245913       4.24437937       6.97126493      -0.00277621      -0.00196321      -0.00000043
Se       5.01366047       1.44763464       5.25861522      -0.00138713       0.00196250       0.00240333
Se       3.03606316       4.24437928       8.68391445       0.00138623      -0.00196053      -0.00240131
Se       3.03606340       4.24437933       5.25861525       0.00138728      -0.00196199       0.00240338
Se       5.01366046       1.44763437       8.68391430      -0.00138640       0.00196128      -0.00240217
