9
Lattice="5.197248821826207 -8.399653535370713e-08 3.0006330684467493 1.7324162149013131 4.90001307729442 3.00063303354256 -3.112154456271467e-08 -6.475498453322223e-08 6.00126619079756" Properties=species:S:1:pos:R:3:forces:R:3 energy=-51.753944396972656 free_energy=-51.753944396972656 stress="3.68061191693414e-05 4.03721323039008e-08 -5.043861772691116e-09 4.03721323039008e-08 3.6758890928467736e-05 -1.339639155162331e-08 -5.043861772691116e-09 -1.339639155162331e-08 3.6784236726816744e-05" pbc="T T T"
Ba       1.73241641       1.22500336       3.00063281      -0.00000120      -0.00000045       0.00000085
Ba       5.19724865       3.67500965       9.00189946       0.00000100      -0.00000006      -0.00000218
Ge      -0.00000009       0.00000005      -0.00000006      -0.00000136      -0.00000110       0.00000891
O        1.52915217       1.08127370       6.00126616       0.00008404       0.00005984       0.00000010
O        5.40051284       3.81873920       6.00126620      -0.00008261      -0.00005740      -0.00000035
O        4.43267280       1.08127372       4.32491759      -0.00004250       0.00005996       0.00007331
O        2.49699216       3.81873940       7.67761450       0.00004423      -0.00006211      -0.00007677
O        2.49699224       3.81873920       4.32491763       0.00004238      -0.00005949       0.00007272
O        4.43267282       1.08127356       7.67761459      -0.00004458       0.00006217      -0.00007689
