9
Lattice="5.889696085430002 -4.799313666687918e-08 3.4004176252006784 1.9632319586583236 5.552858771195063 3.400417667757103 4.058944870713988e-08 8.082188212202137e-08 6.8008351800982405" Properties=species:S:1:pos:R:3:forces:R:3 energy=-40.826820373535156 free_energy=-40.826820373535156 stress="-7.2710004133114126e-06 -1.804821714301852e-08 2.9416213909172484e-09 -1.804821714301852e-08 -7.240249033202417e-06 1.280523864721772e-08 2.9416213909172484e-09 1.280523864721772e-08 -7.2782504503265955e-06" pbc="T T T"
Ba       1.96323188       1.38821474       3.40041767       0.00000010       0.00000018       0.00000043
Ba       5.88969633       4.16464402      10.20125288      -0.00000053       0.00000025      -0.00000199
Ge      -0.00000033      -0.00000003       0.00000013       0.00000255       0.00000178      -0.00000276
S        1.92636301       1.36214436       6.80083532       0.00038201       0.00027013       0.00000016
S        5.92656513       4.19071452       6.80083535      -0.00038534      -0.00027168      -0.00000052
S        4.92651451       1.36214448       5.06869704      -0.00019163       0.00027078       0.00033182
S        2.92641377       4.19071421       8.53297311       0.00018981      -0.00026846      -0.00032914
S        2.92641353       4.19071434       5.06869700       0.00019175      -0.00027019       0.00033033
S        4.92651436       1.36214465       8.53297312      -0.00018889       0.00026721      -0.00032848
