9
Lattice="6.520497358285356 1.4988293927819488e-07 3.7646108145917676 2.1734992468419025 6.147583765146422 3.7646108386629846 5.56536943002737e-08 6.883420032286648e-08 7.529221532788487" Properties=species:S:1:pos:R:3:forces:R:3 energy=-34.39607238769531 free_energy=-34.39607238769531 stress="8.11370337032713e-05 3.5800820086251406e-09 1.2943044414015503e-09 3.5800820086251406e-09 8.113535295706242e-05 -3.4648823810101703e-09 1.2943044414015503e-09 -3.4648823810101703e-09 8.114836236927658e-05" pbc="T T T"
Ba       2.17349926       1.53689588       3.76461073      -0.00000002       0.00000026      -0.00000019
Ba       6.52049732       4.61068814      11.29383233      -0.00000003      -0.00000023      -0.00000071
Ge      -0.00000006      -0.00000007       0.00000011       0.00000129       0.00000011       0.00000065
Te       2.33576224       1.65163267       7.52922146       0.00111228       0.00078665      -0.00000001
Te       6.35823403       4.49595096       7.52922154      -0.00111234      -0.00078715      -0.00000009
Te       5.35261674       1.65163331       5.78744066      -0.00055659       0.00078662       0.00096275
Te       3.34138010       4.49595096       9.27100264       0.00055672      -0.00078750      -0.00096318
Te       3.34138034       4.49595089       5.78744051       0.00055665      -0.00078672       0.00096318
Te       5.35261664       1.65163322       9.27100274      -0.00055788       0.00078784      -0.00096257
