9
Lattice="5.883868814462328 1.535731247212586e-07 3.3970534101220373 1.9612896539843145 5.54736495672918 3.397053575752143 6.577999987796926e-08 2.4936812612223384e-07 6.794106706309817" Properties=species:S:1:pos:R:3:forces:R:3 energy=-33.44185256958008 free_energy=-33.44185256958008 stress="6.934331759111956e-05 3.4426562933731475e-08 -2.6570372568812672e-08 3.4426562933731475e-08 6.929570372449234e-05 2.6647164474979945e-09 -2.6570372568812672e-08 2.6647164474979945e-09 6.931629468454048e-05" pbc="T T T"
Ba       1.96128949       1.38684117       3.39705345       0.00000205      -0.00000055       0.00000033
Ba       5.88386906       4.16052430      10.19116047      -0.00000001       0.00000033       0.00000025
Hg      -0.00000076      -0.00000082      -0.00000209       0.00000746       0.00000861       0.00001887
S        2.07528365       1.46744679       6.79410665       0.00675368       0.00477636      -0.00000127
S        5.76987563       4.07991850       6.79410672      -0.00676161      -0.00477991       0.00000012
S        4.84622710       1.46744711       5.19430185      -0.00337762       0.00477472       0.00584817
S        2.99893064       4.07991922       8.39391343       0.00338057      -0.00478339      -0.00585788
S        2.99893110       4.07991871       5.19430128       0.00337708      -0.00477645       0.00584823
S        4.84622827       1.46744653       8.39391306      -0.00338188       0.00478044      -0.00585645
