9
Lattice="6.591781832954003 3.735734113130305e-07 3.8057675849482595 2.1972609689876643 6.214791728748456 3.8057675749118545 2.3418285970029928e-07 1.533002226866552e-07 7.61153476427981" Properties=species:S:1:pos:R:3:forces:R:3 energy=-29.645994186401367 free_energy=-29.645994186401367 stress="1.111486471927492e-05 -8.906291704136038e-09 1.14520366523152e-08 -8.906291704136038e-09 1.104726288758684e-05 -1.8313047078777345e-08 1.14520366523152e-08 -1.8313047078777345e-08 1.1099746188847348e-05" pbc="T T T"
Ba       2.19725982       1.55369729       3.80576904       0.00000062       0.00000056      -0.00000126
Ba       6.59178244       4.66109631      11.41730244      -0.00000033      -0.00000167      -0.00000051
Hg      -0.00000145       0.00000025      -0.00000333       0.00000543      -0.00000119       0.00001136
Te       2.42308994       1.71338126       7.61153588      -0.00156072      -0.00110212       0.00000154
Te       6.36595466       4.50141066       7.61153496       0.00155476       0.00109854       0.00000224
Te       5.38023722       1.71338156       5.90422309       0.00078218      -0.00110286      -0.00135115
Te       3.40880548       4.50141256       9.31884668      -0.00077568       0.00109705       0.00134718
Te       3.40880647       4.50140929       5.90422481      -0.00078204       0.00110562      -0.00135392
Te       5.38023776       1.71337952       9.31884578       0.00077589      -0.00109380       0.00134444
