9
Lattice="5.2750213287704515 -5.662362074588696e-08 3.0455349603544652 1.7583403782075044 4.973337814948543 3.0455349799798124 1.9597044534454553e-08 3.789324357656152e-08 6.091069886765834" Properties=species:S:1:pos:R:3:forces:R:3 energy=-41.42045974731445 free_energy=-41.42045974731445 stress="8.250876271631569e-05 3.225078648583235e-09 -1.7055237222507458e-08 3.225078648583235e-09 8.250174869317561e-05 9.203958484249597e-09 -1.7055237222507458e-08 9.203958484249597e-09 8.247123332694173e-05" pbc="T T T"
Ba       1.75834035       1.24333428       3.04553506       0.00000048       0.00000005      -0.00000019
Ba       5.27502147       3.73000327       9.13660497      -0.00000076      -0.00000014       0.00000112
Hg       0.00000005       0.00000006      -0.00000013      -0.00000214       0.00000278       0.00000605
O        1.68408345       1.19082678       6.09106996       0.00072181       0.00051081      -0.00000024
O        5.34927829       3.78251104       6.09107000      -0.00072235      -0.00051016       0.00000026
O        4.43297980       1.19082679       4.50399403      -0.00035974       0.00050837       0.00062197
O        2.60038208       3.78251102       7.67814583       0.00036225      -0.00051230      -0.00062859
O        2.60038198       3.78251113       4.50399387       0.00036186      -0.00051057       0.00062639
O        4.43297941       1.19082684       7.67814580      -0.00036120       0.00051144      -0.00062615
