9
Lattice="6.179429256265973 -2.1502715725291697e-07 3.567695281479815 2.0598095678549084 5.826021728818102 3.5676952494440393 1.7312167872949502e-08 -2.6994011040458602e-08 7.13539053297402" Properties=species:S:1:pos:R:3:forces:R:3 energy=-35.86507034301758 free_energy=-35.86507034301758 stress="0.00012764560233335942 -9.660314326254138e-09 -8.570967935384033e-09 -9.660314326254138e-09 0.00012767669977620244 -8.499575265830117e-09 -8.570967935384033e-09 -8.499575265830117e-09 0.00012765875726472586" pbc="T T T"
Ba       2.05980972       1.45650539       3.56769524      -0.00000055      -0.00000032      -0.00000089
Ba       6.17942907       4.36951592      10.70308588      -0.00000040       0.00000061       0.00000005
In       0.00000012      -0.00000013       0.00000009      -0.00000083       0.00000105      -0.00000208
Se       2.24346995       1.58637253       7.13539054      -0.00530663      -0.00375199      -0.00000081
Se       5.99576897       4.23964902       7.13539050       0.00530711       0.00375211       0.00000041
Se       5.05769415       1.58637282       5.51059744       0.00265372      -0.00375289      -0.00459564
Se       3.18154464       4.23964865       8.76018361      -0.00265373       0.00375322       0.00459671
Se       3.18154461       4.23964879       5.51059719      -0.00265315       0.00375158      -0.00459436
Se       5.05769407       1.58637297       8.76018377       0.00265433      -0.00375345       0.00459653
