9
Lattice="6.621977301707714 1.1177535201215417e-07 3.8232000715569496 2.2073259679698825 6.243259558661903 3.8231999064038615 -1.3264121949270884e-08 -2.1164949728133487e-07 7.646400166088035" Properties=species:S:1:pos:R:3:forces:R:3 energy=-33.14152526855469 free_energy=-33.14152526855469 stress="4.9976850277744234e-05 7.360328346806e-09 -5.64770852307106e-09 7.360328346806e-09 4.9954756832448766e-05 2.797164722068146e-09 -5.64770852307106e-09 2.797164722068146e-09 4.9940208555199206e-05" pbc="T T T"
Ba       2.20732575       1.56081456       3.82320016       0.00000019       0.00000043      -0.00000037
Ba       6.62197725       4.68244455      11.46960050       0.00000047       0.00000004      -0.00000060
In      -0.00000023       0.00000038      -0.00000073      -0.00000027      -0.00000262       0.00000719
Te       2.38962801       1.68972303       7.64640036       0.00032678       0.00023153      -0.00000030
Te       6.43967519       4.55353652       7.64640010      -0.00032690      -0.00023010       0.00000186
Te       5.42716249       1.68972288       5.89267855      -0.00016147       0.00022927       0.00028300
Te       3.40214101       4.55353688       9.40012125       0.00016448      -0.00023188      -0.00028521
Te       3.40214109       4.55353649       5.89267862       0.00016102      -0.00022903       0.00028104
Te       5.42716245       1.68972251       9.40012177      -0.00016436       0.00023234      -0.00028670
