9
Lattice="5.283136722061759 1.5965977943584362e-07 3.0502203727479196 1.7610457306603522 4.980988791303753 3.0502203621631923 2.2125709482516318e-08 2.681640842398479e-09 6.100440707172935" Properties=species:S:1:pos:R:3:forces:R:3 energy=-45.807533264160156 free_energy=-45.807533264160156 stress="1.2802555829694029e-05 3.44508332972282e-09 -2.0873220929473746e-09 3.44508332972282e-09 1.2673523087869398e-05 -3.317499519539524e-08 -2.0873220929473746e-09 -3.317499519539524e-08 1.2662984772759955e-05" pbc="T T T"
Ba       1.76104556       1.24524750       3.05022026       0.00000015       0.00000012      -0.00000036
Ba       5.28313691       3.73574155       9.15066082       0.00000009       0.00000086       0.00000089
In      -0.00000021       0.00000001       0.00000014       0.00000110       0.00000057      -0.00000147
O        1.74294100       1.23244507       6.10044086       0.00002128       0.00001419      -0.00000008
O        5.30124184       3.74854390       6.10044088      -0.00002182      -0.00001597       0.00000104
O        4.41166644       1.23244486       4.55965101      -0.00001144       0.00001594       0.00001949
O        2.63251607       3.74854389       7.64123032       0.00001138      -0.00001583      -0.00001949
O        2.63251589       3.74854390       4.55965118       0.00001013      -0.00001538       0.00001878
O        4.41166647       1.23244512       7.64123036      -0.00001085       0.00001535      -0.00001860
