9
Lattice="5.960184988064566 1.1961606876185956e-07 3.44111454950041 1.9867284134547762 5.619316416123399 3.4411145991672534 -3.087886864087488e-08 3.89945994427437e-08 6.882229152484636" Properties=species:S:1:pos:R:3:forces:R:3 energy=-37.708953857421875 free_energy=-37.708953857421875 stress="-3.1197087082546204e-06 3.896015954296672e-08 4.362023986459462e-08 3.896015954296672e-08 -3.071824494327302e-06 -3.987743468769622e-09 4.362023986459462e-08 -3.987743468769622e-09 -2.975426468765363e-06" pbc="T T T"
Ba       1.98672833       1.40482905       3.44111451       0.00000121      -0.00000020       0.00000030
Ba       5.96018507       4.21448751      10.32334378      -0.00000043      -0.00000096      -0.00000156
In       0.00000016       0.00000019       0.00000025      -0.00000174      -0.00000311      -0.00000269
S        2.10953440       1.49166619       6.88222905      -0.00039417      -0.00027883       0.00000353
S        5.83737852       4.12765024       6.88222918       0.00039846       0.00028068       0.00000068
S        4.90541772       1.49166608       5.26802528       0.00019646      -0.00027698      -0.00034177
S        3.04149579       4.12765046       8.49643294      -0.00019839       0.00028107       0.00034261
S        3.04149581       4.12765018       5.26802521      -0.00019717       0.00027856      -0.00034356
S        4.90541771       1.49166646       8.49643305       0.00019577      -0.00028017       0.00034201
