9
Lattice="5.697510841752812 -1.271370824719586e-07 3.289459318515546 1.8991702453325134 5.371664212630938 3.2894591719594555 5.812696505263716e-08 -1.383919337125002e-07 6.5789185363521385" Properties=species:S:1:pos:R:3:forces:R:3 energy=-55.20112609863281 free_energy=-55.20112609863281 stress="1.0838711204996798e-05 2.4376251417379535e-07 -5.263269642341584e-08 2.4376251417379535e-07 1.1026752872567158e-05 1.0604460953800299e-07 -5.263269642341584e-08 1.0604460953800299e-07 1.1045833161915652e-05" pbc="T T T"
Ba       1.89917039       1.34291631       3.28945913       0.00000131      -0.00000229      -0.00000037
Ba       5.69750975       4.02874802       9.86837825       0.00000401       0.00000094      -0.00000220
Mn       0.00000015       0.00000005       0.00000020       0.00000027       0.00000443      -0.00000111
O        1.53295769       1.08396517       6.57891854      -0.00213605      -0.00152701      -0.00000331
O        6.06372321       4.28769913       6.57891884       0.00214952       0.00151569      -0.00000366
O        4.93103243       1.08396472       4.61703994       0.00105578      -0.00150874      -0.00186062
O        2.66564927       4.28769890       8.54079680      -0.00107214       0.00152341       0.00186318
O        2.66564944       4.28769910       4.61703930      -0.00106359       0.00150311      -0.00184548
O        4.93103235       1.08396453       8.54079752       0.00106081      -0.00150952       0.00185376
