9
Lattice="6.343276191484718 -1.7210713316245102e-07 3.6622920767973146 2.1144254446395077 5.980498000138999 3.6622917135135347 1.8030922023531174e-07 -3.174320378424486e-07 7.324583841289918" Properties=species:S:1:pos:R:3:forces:R:3 energy=-39.35380172729492 free_energy=-39.35380172729492 stress="-4.9772937927627936e-05 -9.39984534653604e-09 -9.4712715448253e-10 -9.39984534653604e-09 -4.976483978680335e-05 1.6542813785491717e-09 -9.4712715448253e-10 1.6542813785491717e-09 -4.980456651537679e-05" pbc="T T T"
Ba       2.11442520       1.49512394       3.66229170      -0.00000198      -0.00000162      -0.00000002
Ba       6.34327646       4.48537338      10.98687549       0.00000176       0.00000206       0.00000064
Mn      -0.00000004      -0.00000011      -0.00000023       0.00000185       0.00000017       0.00000142
Te       2.18885987       1.54775955       7.32458396       0.00106242       0.00074895       0.00000013
Te       6.26884223       4.43273873       7.32458368      -0.00106321      -0.00075099       0.00000041
Te       5.24884414       1.54775916       5.55789918      -0.00052983       0.00074960       0.00092219
Te       3.20885752       4.43273826       9.09126831       0.00053018      -0.00074956      -0.00092118
Te       3.20885736       4.43273789       5.55789913       0.00052925      -0.00074884       0.00092004
Te       5.24884461       1.54775924       9.09126925      -0.00053039       0.00075021      -0.00092374
