9
Lattice="6.564966184111509 1.509231087892457e-07 3.7902847302662477 2.188322154658855 6.189509482587739 3.790284815142604 -1.1755018197064314e-07 2.0831310340768593e-08 7.580569664135353" Properties=species:S:1:pos:R:3:forces:R:3 energy=-32.245201110839844 free_energy=-32.245201110839844 stress="-0.0002662033657543361 -2.1344416012425427e-08 1.0686254547920271e-08 -2.1344416012425427e-08 -0.00026619044365361333 -4.0394421141343173e-10 1.0686254547920271e-08 -4.0394421141343173e-10 -0.0002661835169419646" pbc="T T T"
Ba       2.18832246       1.54737732       3.79028469      -0.00000035       0.00000006       0.00000038
Ba       6.56496591       4.64213214      11.37085457       0.00000042      -0.00000014       0.00000015
Mg       0.00000002      -0.00000004       0.00000024      -0.00000044       0.00000058      -0.00000036
Te       2.39835386       1.69589202       7.58056986      -0.00504050      -0.00356325      -0.00000029
Te       6.35493428       4.49361774       7.58056938       0.00504085       0.00356397      -0.00000070
Te       5.36578895       1.69589336       5.86732105       0.00251976      -0.00356381      -0.00436488
Te       3.38749941       4.49361621       9.29381805      -0.00252082       0.00356495       0.00436471
Te       3.38749934       4.49361651       5.86732092      -0.00252007       0.00356328      -0.00436430
Te       5.36578866       1.69589329       9.29381807       0.00252119      -0.00356567       0.00436521
