9
Lattice="5.812963450309736 1.370491456106396e-07 3.3561160721815266 1.937654588735875 5.480514691253066 3.356116113597983 8.331425633557951e-08 1.0963676598923061e-07 6.712232000058493" Properties=species:S:1:pos:R:3:forces:R:3 energy=-46.60968780517578 free_energy=-46.60968780517578 stress="-7.905005077191163e-06 4.3549118089458716e-08 4.091770122727212e-08 4.3549118089458716e-08 -7.946202458697371e-06 -4.5692715389122895e-08 4.091770122727212e-08 -4.5692715389122895e-08 -7.922129043436144e-06" pbc="T T T"
Ba       1.93765453       1.37012873       3.35611622       0.00000129       0.00000131      -0.00000113
Ba       5.81296348       4.11038617      10.06834814       0.00000082      -0.00000070      -0.00000001
Mn      -0.00000020      -0.00000061       0.00000026      -0.00000236       0.00000466      -0.00000533
S        1.84311850       1.30328186       6.71223202       0.00045437       0.00032097      -0.00000026
S        5.90749893       4.17723295       6.71223213      -0.00045013      -0.00031874      -0.00000075
S        4.89140449       1.30328195       4.95230336      -0.00023136       0.00032470       0.00039816
S        2.85921415       4.17723316       8.47216034       0.00022659      -0.00032437      -0.00039458
S        2.85921415       4.17723305       4.95230378       0.00022697      -0.00032440       0.00039423
S        4.89140416       1.30328257       8.47216032      -0.00022647       0.00031692      -0.00039065
