9
Lattice="6.088369987504948 1.728121313071263e-07 3.51512085765263 2.0294571941050266 5.7401676005086175 3.5151202190897 7.75402848097136e-07 -2.337840222847023e-07 7.0302403722680555" Properties=species:S:1:pos:R:3:forces:R:3 energy=-34.25746536254883 free_energy=-34.25746536254883 stress="-5.672368570230901e-05 -7.098081766798714e-08 -3.9866762335805106e-08 -7.098081766798714e-08 -5.659184535034001e-05 5.394186874951856e-09 -3.9866762335805106e-08 5.394186874951856e-09 -5.6566281273262575e-05" pbc="T T T"
Ba       2.02945714       1.43504205       3.51512018      -0.00000107      -0.00000013       0.00000061
Ba       6.08837092       4.30512596      10.54536075      -0.00000072      -0.00000042       0.00000165
Mg      -0.00000014      -0.00000084       0.00000048       0.00000157       0.00000271      -0.00000263
Se       2.21074709       1.56323357       7.03024019      -0.00041211      -0.00029063      -0.00000089
Se       5.90708179       4.17693500       7.03024088       0.00040884       0.00028829      -0.00000067
Se       4.98299703       1.56323429       5.42968339       0.00020437      -0.00028703      -0.00035169
Se       3.13483182       4.17693245       8.63079843      -0.00020429       0.00028945       0.00035225
Se       3.13483008       4.17693395       5.42968225      -0.00020326       0.00028794      -0.00035244
Se       4.98299618       1.56323379       8.63079939       0.00020663      -0.00029020       0.00035381
