9
Lattice="5.82310463373462 -4.11094961609762e-07 3.361970768046563 1.9410345956045767 5.4900758743642575 3.3619705857012825 1.2813085177242137e-07 -1.3272428117583047e-07 6.7239413141640325" Properties=species:S:1:pos:R:3:forces:R:3 energy=-35.96993637084961 free_energy=-35.96993637084961 stress="-0.00014941133849788457 4.350289017907016e-09 -3.785706326198124e-08 4.350289017907016e-09 -0.00014948658645153046 1.4943097426112217e-08 -3.785706326198124e-08 1.4943097426112217e-08 -0.00014939346874598414" pbc="T T T"
Ba       1.94103535       1.37251933       3.36197058      -0.00000025      -0.00000071       0.00000020
Ba       5.82310434       4.11755593      10.08591145       0.00000052      -0.00000015       0.00000280
Mg       0.00000005       0.00000011       0.00000057       0.00000089       0.00000063      -0.00000132
S        2.04242733       1.44421410       6.72394129       0.00341117       0.00241148      -0.00000047
S        5.72171251       4.04586123       6.72394123      -0.00341037      -0.00241327      -0.00000017
S        4.80189078       1.44421353       5.13076487      -0.00170553       0.00241114       0.00295280
S        2.96224784       4.04586181       8.31711799       0.00170377      -0.00240880      -0.00295343
S        2.96224801       4.04586202       5.13076457       0.00170414      -0.00241078       0.00295349
S        4.80189127       1.44421329       8.31711817      -0.00170431       0.00241049      -0.00295381
