9
Lattice="5.982394202409516 3.4852907223697746e-07 3.4539369527187267 1.994131680336132 5.640255440771584 3.453937037698957 -3.319231641046198e-08 8.060853635448762e-08 6.907873962928239" Properties=species:S:1:pos:R:3:forces:R:3 energy=-43.31786346435547 free_energy=-43.31786346435547 stress="2.397623029537499e-05 1.7231741367140785e-08 -3.03309288796072e-09 1.7231741367140785e-08 2.3930775569169782e-05 6.829989018797278e-09 -3.03309288796072e-09 6.829989018797278e-09 2.3958713427418843e-05" pbc="T T T"
Ba       1.99413134       1.41006419       3.45393684      -0.00000002      -0.00000039       0.00000057
Ba       5.98239461       4.23019176      10.36181116      -0.00000053      -0.00000074      -0.00000140
Mn      -0.00000007       0.00000030       0.00000020       0.00000179      -0.00000372       0.00000020
Se       1.94196125       1.37317395       6.90787414      -0.00116500      -0.00082329      -0.00000090
Se       6.03456474       4.26708185       6.90787418       0.00116369       0.00082423      -0.00000009
Se       5.01141347       1.37317402       5.13572433       0.00058144      -0.00082296      -0.00100644
Se       2.96511219       4.26708162       8.68002332      -0.00058174       0.00082354       0.00100814
Se       2.96511255       4.26708196       5.13572435      -0.00058280       0.00082354      -0.00100747
Se       5.01141324       1.37317382       8.68002330       0.00058308      -0.00082046       0.00100726
