9
Lattice="6.087978685124542 -5.5676580893810806e-08 3.5148962955017935 2.029326232796953 5.73980122373387 3.514896196923116 4.593663737359279e-08 -8.825163749069022e-08 7.02979251143914" Properties=species:S:1:pos:R:3:forces:R:3 energy=-45.667388916015625 free_energy=-45.667388916015625 stress="-0.00022970669670030475 -4.7196820673889306e-08 6.584071510218337e-09 -4.7196820673889306e-08 -0.00022967102995608002 2.9457121186737822e-09 6.584071510218337e-09 2.9457121186737822e-09 -0.00022964073286857456" pbc="T T T"
Ba       2.02932629       1.43495013       3.51489608      -0.00000030       0.00000056       0.00000012
Ba       6.08797877       4.30485087      10.54468881       0.00000005      -0.00000040      -0.00000065
Nb       0.00000002      -0.00000076       0.00000020      -0.00000051       0.00000507      -0.00000022
Se       2.08998443       1.47784192       7.02979276       0.00418334       0.00295903      -0.00000038
Se       6.02732069       4.26195936       7.02979230      -0.00418541      -0.00296070       0.00000054
Se       5.04298609       1.47784240       5.32487622      -0.00208902       0.00295559       0.00362071
Se       3.07431880       4.26195907       8.73470895       0.00209067      -0.00295765      -0.00362222
Se       3.07431885       4.26195906       5.32487587       0.00208985      -0.00295714       0.00362165
Se       5.04298594       1.47784224       8.73470892      -0.00208873       0.00295552      -0.00361955
