9
Lattice="5.875333901456983 1.5966319417430989e-07 3.3921260537682247 1.9584447736888457 5.539318426049916 3.392126072235428 -1.2902920786152454e-07 -6.861987523060595e-08 6.784252331021601" Properties=species:S:1:pos:R:3:forces:R:3 energy=-38.82944869995117 free_energy=-38.82944869995117 stress="-0.00012400436389725655 6.152164111483671e-09 1.0451214116358187e-08 6.152164111483671e-09 -0.00012404544395394623 -1.0191373078782817e-08 1.0451214116358187e-08 -1.0191373078782817e-08 -0.00012400865671224892" pbc="T T T"
Ba       1.95844475       1.38482943       3.39212603      -0.00000144      -0.00000165       0.00000080
Ba       5.87533397       4.15448920      10.17637811       0.00000148      -0.00000018      -0.00000118
Ni       0.00000072      -0.00000009       0.00000113      -0.00000762       0.00000330      -0.00001106
Se       1.96232743       1.38757531       6.78425219       0.00410235       0.00290263       0.00000021
Se       5.87145094       4.15174320       6.78425182      -0.00409999      -0.00289921       0.00000020
Se       4.89417005       1.38757535       5.09155104      -0.00205180       0.00290097       0.00355527
Se       2.93960834       4.15174295       8.47695317       0.00205174      -0.00289986      -0.00355260
Se       2.93960852       4.15174351       5.09155130       0.00205322      -0.00290361       0.00355701
Se       4.89416956       1.38757522       8.47695282      -0.00204790       0.00289771      -0.00354871
