9
Lattice="6.291571152992421 7.070728195248332e-08 3.632440022448849 2.097190553965445 5.931750064060951 3.632439844097626 -1.6119037132904596e-07 -3.324136128370288e-07 7.264880324087721" Properties=species:S:1:pos:R:3:forces:R:3 energy=-35.79209518432617 free_energy=-35.79209518432617 stress="-7.453555008396506e-05 2.2942801436443006e-08 8.195462086746375e-09 2.2942801436443006e-08 -7.456840830855072e-05 -1.2991825393271483e-08 8.195462086746375e-09 -1.2991825393271483e-08 -7.457541505573317e-05" pbc="T T T"
Ba       2.09719073       1.48293743       3.63243993      -0.00000106      -0.00000015      -0.00000045
Ba       6.29157105       4.44881236      10.89732021       0.00000091       0.00000008       0.00000098
Ni      -0.00000061      -0.00000108       0.00000189       0.00000370       0.00000604      -0.00001101
Te       2.16138945       1.52833217       7.26487965      -0.00115688      -0.00081795       0.00000062
Te       6.22737252       4.40341819       7.26488009       0.00115281       0.00081459       0.00000082
Te       5.21087644       1.52833187       5.50425568       0.00057549      -0.00081394      -0.00099557
Te       3.17788531       4.40341792       9.02550374      -0.00057706       0.00081564       0.00099909
Te       3.17788452       4.40341733       5.50425638      -0.00057557       0.00081415      -0.00099532
Te       5.21087674       1.52833299       9.02550313       0.00057767      -0.00081842       0.00100078
