9
Lattice="6.53799798165221 -4.817177378571683e-07 3.7747153386079617 2.179332271144827 6.1640837772797745 3.7747152264369594 4.608069623900659e-08 -1.0479685869645972e-07 7.54943059740198" Properties=species:S:1:pos:R:3:forces:R:3 energy=-41.43904113769531 free_energy=-41.43904113769531 stress="-5.0557380745885894e-05 -7.978950122833339e-08 1.0557515750519997e-08 -7.978950122833339e-08 -5.051534026279114e-05 -1.880455080538468e-08 1.0557515750519997e-08 -1.880455080538468e-08 -5.046144360676408e-05" pbc="T T T"
Ba       2.17933259       1.54102068       3.77471539      -0.00000011       0.00000014       0.00000001
Ba       6.53799744       4.62306257      11.32414538       0.00000051      -0.00000071       0.00000026
Nb      -0.00000071      -0.00000027       0.00000077       0.00000348       0.00000167      -0.00000500
Te       2.28751629       1.61751756       7.54943037       0.00150190       0.00106336       0.00000006
Te       6.42981518       4.54656598       7.54943060      -0.00150843      -0.00106709       0.00000002
Te       5.39423942       1.61751810       5.75576316      -0.00074877       0.00106167       0.00129957
Te       3.32309104       4.54656473       9.34309776       0.00074845      -0.00105757      -0.00129685
Te       3.32309076       4.54656509       5.75576356       0.00074919      -0.00105928       0.00129676
Te       5.39423916       1.61751836       9.34309764      -0.00074618       0.00105773      -0.00129482
