9
Lattice="5.229842829491352 -1.2323116711984256e-07 3.0194509339226596 1.743280925522774 4.9307431797353924 3.0194507632421494 -4.931683607235429e-08 -2.4391236881536745e-07 6.038901953264587" Properties=species:S:1:pos:R:3:forces:R:3 energy=-61.19829177856445 free_energy=-61.19829177856445 stress="0.0002728273393586278 3.527999936636661e-08 -6.044582789854758e-08 3.527999936636661e-08 0.00027296048938296735 9.391271049707939e-08 -6.044582789854758e-08 9.391271049707939e-08 0.0002728744875639677" pbc="T T T"
Ba       1.74328105       1.23268582       3.01945087       0.00000041      -0.00000097      -0.00000044
Ba       5.22984287       3.69805682       9.05835271       0.00000041      -0.00000092       0.00000034
Nb       0.00000053      -0.00000035       0.00000019      -0.00000007       0.00000036      -0.00000558
O        1.62940010       1.15215984       6.03890189      -0.00349689      -0.00247121      -0.00000081
O        5.34372348       3.77858279       6.03890182       0.00349653       0.00247526      -0.00000073
O        4.41514268       1.15215992       4.43055274       0.00174743      -0.00247216      -0.00302899
O        2.55798104       3.77858291       7.64725035      -0.00174940       0.00247431       0.00302875
O        2.55798076       3.77858348       4.43055255      -0.00174630       0.00246847      -0.00302291
O        4.41514224       1.15215979       7.64725085       0.00174737      -0.00247383       0.00302982
