9
Lattice="5.66303437495695 -2.074737476973841e-07 3.2695544010731665 1.8876780254614052 5.339159450778734 3.2695542346510638 -7.140235318594131e-09 -2.0887342452044422e-07 6.539108814513502" Properties=species:S:1:pos:R:3:forces:R:3 energy=-41.133872985839844 free_energy=-41.133872985839844 stress="7.305127655854449e-05 1.7813267305655245e-08 8.678421536956193e-09 1.7813267305655245e-08 7.301131699932739e-05 -7.739778595805547e-09 8.678421536956193e-09 -7.739778595805547e-09 7.301234290935099e-05" pbc="T T T"
Ba       1.88767795       1.33478986       3.26955436       0.00000105      -0.00000068       0.00000172
Ba       5.66303420       4.00436926       9.80866320      -0.00000164       0.00000071      -0.00000119
Ni      -0.00000005      -0.00000020      -0.00000053       0.00000207      -0.00000275       0.00001121
S        1.83413140       1.29692674       6.53910879      -0.00235018      -0.00166389       0.00000005
S        5.71658144       4.04223271       6.53910873       0.00235105       0.00166228       0.00000093
S        4.74596871       1.29692604       4.85795821       0.00117494      -0.00166225      -0.00203547
S        2.80474364       4.04223266       8.22025892      -0.00117272       0.00166044       0.00203332
S        2.80474366       4.04223291       4.85795860      -0.00117767       0.00166449      -0.00204054
S        4.74596871       1.29692607       8.22025940       0.00117312      -0.00165841       0.00202996
