9
Lattice="5.775187259625037 -1.4031253037218568e-07 3.334305955634641 1.925062314153311 5.444898637227182 3.3343059096205865 -8.840463711458153e-09 -6.260659378796306e-08 6.66861192658136" Properties=species:S:1:pos:R:3:forces:R:3 energy=-40.577022552490234 free_energy=-40.577022552490234 stress="1.604928183951415e-05 -4.025650568451056e-08 7.163639015317358e-09 -4.025650568451056e-08 1.606567639100831e-05 8.552902386327332e-09 7.163639015317358e-09 8.552902386327332e-09 1.6087913536466658e-05" pbc="T T T"
Ba       1.92506240       1.36122455       3.33430592      -0.00000206       0.00000151       0.00000048
Ba       5.77518722       4.08367391      10.00291790       0.00000140      -0.00000045      -0.00000273
Pd       0.00000013      -0.00000021       0.00000094      -0.00000269       0.00000352      -0.00001694
S        1.94824976       1.37762060       6.66861194       0.00141352       0.00099975       0.00000105
S        5.75199985       4.06727780       6.66861185      -0.00141400      -0.00100100       0.00000145
S        4.80106214       1.37762076       5.02153995      -0.00070608       0.00099927       0.00122517
S        2.89918749       4.06727747       8.31568352       0.00070456      -0.00099599      -0.00121832
S        2.89918742       4.06727777       5.02153993       0.00070751      -0.00100172       0.00122696
S        4.80106180       1.37762101       8.31568324      -0.00070205       0.00099504      -0.00121689
