9
Lattice="5.962887775843754 1.006001971476145e-07 3.4426745851011633 1.9876293274360912 5.621864520334943 3.442674630178222 -1.320519275422426e-07 -3.81669256001372e-08 6.885349398922876" Properties=species:S:1:pos:R:3:forces:R:3 energy=-40.00895690917969 free_energy=-40.00895690917969 stress="-0.000289604882709682 3.6640496858808547e-08 -2.195235104807125e-08 3.6640496858808547e-08 -0.00028963142540305853 2.2535460164618826e-09 -2.195235104807125e-08 2.2535460164618826e-09 -0.0002896777878049761" pbc="T T T"
Ba       1.98762937       1.40546627       3.44267467      -0.00000057      -0.00000053      -0.00000039
Ba       5.96288752       4.21639826      10.32802400       0.00000131       0.00000061       0.00000036
Pt       0.00000031       0.00000040       0.00000074      -0.00000254      -0.00000408      -0.00000804
Se       2.03360001       1.43797269       6.88534934       0.00212330       0.00150182       0.00000001
Se       5.91691623       4.18389174       6.88534920      -0.00211953      -0.00149891       0.00000035
Se       4.94608793       1.43797244       5.20382393      -0.00106331       0.00150315       0.00184150
Se       3.00442939       4.18389176       8.56687407       0.00106052      -0.00149920      -0.00183716
Se       3.00442935       4.18389227       5.20382428       0.00106246      -0.00150328       0.00184108
Se       4.94608765       1.43797245       8.56687423      -0.00106158       0.00150040      -0.00183780
