9
Lattice="5.294541361968251 -3.641807802148561e-08 3.0568050007117757 1.7648470903261324 4.9917417245717255 3.056804993774335 6.083689889531187e-08 3.452155477738572e-08 6.113609896050953" Properties=species:S:1:pos:R:3:forces:R:3 energy=-47.20684814453125 free_energy=-47.20684814453125 stress="4.805735079571605e-05 -1.5870547542817803e-08 4.941678621861456e-09 -1.5870547542817803e-08 4.807757068192586e-05 1.0821601392763114e-08 4.941678621861456e-09 1.0821601392763114e-08 4.807094228453934e-05" pbc="T T T"
Ba       1.76484701       1.24793551       3.05680495       0.00000065      -0.00000074      -0.00000013
Ba       5.29454132       3.74380624       9.17041526       0.00000030      -0.00000029      -0.00000078
Pb      -0.00000042      -0.00000012       0.00000033       0.00000681       0.00000108      -0.00000616
O        1.72562766       1.22020314       6.11360995      -0.00134462      -0.00095028      -0.00000076
O        5.33376119       3.77153894       6.11360998       0.00133801       0.00094643      -0.00000063
O        4.43172780       1.22020295       4.55124231       0.00066975      -0.00094661      -0.00115943
O        2.62766101       3.77153826       7.67597729      -0.00067362       0.00095204       0.00116605
O        2.62766094       3.77153905       4.55124201      -0.00066924       0.00094742      -0.00116119
O        4.43172767       1.22020309       7.67597773       0.00067192      -0.00094932       0.00116283
