9
Lattice="6.2390046189753985 -9.181908769146821e-08 3.6020910727154547 2.079668167437562 5.882189437608968 3.602090990130691 7.065611818756684e-08 -5.118382798613965e-08 7.204182023050909" Properties=species:S:1:pos:R:3:forces:R:3 energy=-35.9390983581543 free_energy=-35.9390983581543 stress="-3.309034218546003e-05 1.5532410913010608e-08 -1.0031510733199411e-08 1.5532410913010608e-08 -3.3067834010580555e-05 1.0484729529025572e-08 -1.0031510733199411e-08 1.0484729529025572e-08 -3.308799205115065e-05" pbc="T T T"
Ba       2.07966824       1.47054775       3.60209094       0.00000001      -0.00000049       0.00000044
Ba       6.23900477       4.41164188      10.80627302       0.00000045      -0.00000026      -0.00000008
Pb       0.00000040       0.00000007       0.00000013      -0.00000304       0.00000026      -0.00000120
Se       2.31948990       1.64012753       7.20418204       0.00139034       0.00098233      -0.00000003
Se       5.99918253       4.24206140       7.20418191      -0.00138962      -0.00098176       0.00000036
Se       5.07925976       1.64012741       5.61082841      -0.00069474       0.00098254       0.00120300
Se       3.23941307       4.24206190       8.79753606       0.00069591      -0.00098264      -0.00120312
Se       3.23941293       4.24206203       5.61082817       0.00069585      -0.00098281       0.00120382
Se       5.07925983       1.64012722       8.79753570      -0.00069517       0.00098282      -0.00120322
