9
Lattice="5.937470831509974 -8.165028911832605e-08 3.4280004950801537 1.9791568813245504 5.597901219816153 3.428000470019895 5.670484492660714e-08 9.403911185190568e-09 6.856000891944694" Properties=species:S:1:pos:R:3:forces:R:3 energy=-38.234806060791016 free_energy=-38.234806060791016 stress="1.3213501006248407e-05 8.00837529624232e-09 2.7401492630474422e-08 8.00837529624232e-09 1.3188455341150984e-05 -2.9491621589272654e-08 2.7401492630474422e-08 -2.9491621589272654e-08 1.3158718502381817e-05" pbc="T T T"
Ba       1.97915736       1.39947531       3.42800076       0.00000132       0.00000116       0.00000127
Ba       5.93747112       4.19842594      10.28400134       0.00000130      -0.00000008       0.00000094
Pb       0.00000051       0.00000012       0.00000083      -0.00000867       0.00000005      -0.00001058
S        2.09447302       1.48101621       6.85600073      -0.00312188      -0.00220725      -0.00000089
S        5.82215401       4.11688462       6.85600082       0.00312573       0.00221071      -0.00000008
S        4.89023391       1.48101634       5.24186739       0.00156069      -0.00220883      -0.00270480
S        3.02639374       4.11688460       8.47013442      -0.00156192       0.00221139       0.00270700
S        3.02639366       4.11688490       5.24186710      -0.00156038       0.00220668      -0.00270253
S        4.89023374       1.48101655       8.47013402       0.00156386      -0.00221372       0.00270948
