9
Lattice="5.976269083224007 -8.940759751238754e-08 3.4504004609987295 1.9920895559149905 5.634480519526498 3.450400554873659 -7.626224746162096e-08 6.104727862276922e-08 6.900801054087454" Properties=species:S:1:pos:R:3:forces:R:3 energy=-38.642513275146484 free_energy=-38.642513275146484 stress="-0.0001325119228567928 -4.718453627816643e-09 8.489545955114863e-09 -4.718453627816643e-09 -0.0001325111516052857 1.0988093990249581e-08 8.489545955114863e-09 1.0988093990249581e-08 -0.0001325501361861825" pbc="T T T"
Ba       1.99208974       1.40861984       3.45040042      -0.00000150       0.00000053       0.00000089
Ba       5.97626899       4.22586074      10.35120167       0.00000068      -0.00000139      -0.00000152
Pd       0.00000014       0.00000100      -0.00000001      -0.00000510      -0.00001097      -0.00000212
Se       2.05981297       1.45650723       6.90080118       0.00586566       0.00414826      -0.00000008
Se       5.90854491       4.17797262       6.90080093      -0.00585797      -0.00414285       0.00000044
Se       4.94636267       1.45650738       5.23425069      -0.00293149       0.00414786       0.00507881
Se       3.02199604       4.17797291       8.56735104       0.00293049      -0.00414357      -0.00507496
Se       3.02199602       4.17797304       5.23425091       0.00293058      -0.00414596       0.00507663
Se       4.94636272       1.45650714       8.56735149      -0.00293157       0.00414804      -0.00507854
