9
Lattice="5.18193272478759 3.4831612910005664e-08 2.991790161734455 1.727310935253176 4.885573102496959 2.9917901718650604 -1.3468715793834186e-08 2.8835968869961278e-09 5.9835803467973925" Properties=species:S:1:pos:R:3:forces:R:3 energy=-49.286373138427734 free_energy=-49.286373138427734 stress="8.952664938988164e-05 3.080669230826061e-08 -2.132613019512064e-08 3.080669230826061e-08 8.953630458563566e-05 -2.1501627145426028e-09 -2.132613019512064e-08 -2.1501627145426028e-09 8.9487228251528e-05" pbc="T T T"
Ba       1.72731092       1.22139343       2.99179029       0.00000056      -0.00000092      -0.00000085
Ba       5.18193281       3.66417959       8.97536991      -0.00000047       0.00000057       0.00000177
Pd      -0.00000007       0.00000003       0.00000014      -0.00000211       0.00000154       0.00000242
O        1.58964852       1.12405142       5.98358025       0.00305906       0.00216359       0.00000006
O        5.31959500       3.76152162       5.98358039      -0.00305766      -0.00216198       0.00000011
O        4.38710836       1.12405143       4.36846611      -0.00153008       0.00216332       0.00265115
O        2.52213534       3.76152186       7.59869483       0.00153090      -0.00216660      -0.00265399
O        2.52213528       3.76152181       4.36846596       0.00153048      -0.00216511       0.00265244
O        4.38710847       1.12405128       7.59869472      -0.00153053       0.00216541      -0.00265250
