9
Lattice="5.904562848472705 1.1607786797122802e-07 3.4090008454377245 1.9681877190096033 5.566875292457723 3.4090008568471313 1.3044253243075198e-07 1.0621041559553778e-07 6.818001464942337" Properties=species:S:1:pos:R:3:forces:R:3 energy=-39.33176040649414 free_energy=-39.33176040649414 stress="-4.713429734692909e-05 -3.33751657421999e-08 -3.414537630419545e-08 -3.33751657421999e-08 -4.711955625680275e-05 1.6140164760258813e-08 -3.414537630419545e-08 1.6140164760258813e-08 -4.7128796722972766e-05" pbc="T T T"
Ba       1.96818775       1.39171878       3.40900106      -0.00000066      -0.00000096      -0.00000190
Ba       5.90456296       4.17515672      10.22700243      -0.00000011      -0.00000148       0.00000048
Se      -0.00000030      -0.00000018       0.00000014       0.00000877       0.00000627       0.00000077
S        1.87772336       1.32775088       6.81800144       0.00176188       0.00124589       0.00000058
S        5.99502782       4.23912483       6.81800167      -0.00176951      -0.00125140      -0.00000080
S        4.96570129       1.32775085       5.03515685      -0.00088209       0.00124860       0.00152889
S        2.90704943       4.23912459       8.60084612       0.00088257      -0.00124800      -0.00152773
S        2.90704907       4.23912461       5.03515668       0.00088273      -0.00124827       0.00152892
S        4.96570143       1.32775102       8.60084615      -0.00088371       0.00124928      -0.00152922
