9
Lattice="6.841480772187697 3.6494487182465815e-08 3.9499306721744247 2.2804936042958968 6.450209667781831 3.949930708271492 -1.3155393621049082e-08 3.4907462634222475e-08 7.899861367134628" Properties=species:S:1:pos:R:3:forces:R:3 energy=-33.423316955566406 free_energy=-33.423316955566406 stress="1.310263201048656e-06 -1.3374937601895454e-08 5.5808349053165784e-09 -1.3374937601895454e-08 1.3212385283623007e-06 -5.216274523434095e-09 5.5808349053165784e-09 -5.216274523434095e-09 1.3304398862601374e-06" pbc="T T T"
Ba       2.28049370       1.61255258       3.94993085       0.00000043       0.00000024       0.00000004
Ba       6.84148092       4.83765701      11.84979160       0.00000009      -0.00000000       0.00000023
Sr       0.00000017      -0.00000006      -0.00000021       0.00000035       0.00000098      -0.00000056
Te       2.58719805       1.82942530       7.89986128      -0.00004484      -0.00003147       0.00000001
Te       6.53477639       4.62078462       7.89986147       0.00004411       0.00003048       0.00000050
Te       5.54788166       1.82942526       6.19051001       0.00002168      -0.00003255      -0.00003870
Te       3.57409256       4.62078454       9.60921295      -0.00002142       0.00003183       0.00003932
Te       3.57409216       4.62078419       6.19051032      -0.00002356       0.00003141      -0.00003853
Te       5.54788185       1.82942547       9.60921272       0.00002318      -0.00003101       0.00003763
