9
Lattice="6.11719875381773 3.478807669364814e-08 3.531766309735487 2.0390660693935336 5.767351167061817 3.5317666815678765 -2.6893298290505913e-07 2.652355330759854e-07 7.063533085276512" Properties=species:S:1:pos:R:3:forces:R:3 energy=-42.01386260986328 free_energy=-42.01386260986328 stress="-2.1560117602348328e-05 -3.026466544042705e-08 1.816253991648864e-08 -3.026466544042705e-08 -2.1476982510648668e-05 3.030909923040781e-08 1.816253991648864e-08 3.030909923040781e-08 -2.153643436031416e-05" pbc="T T T"
Ba       2.03906666       1.44183842       3.53176663      -0.00000119      -0.00000109       0.00000174
Ba       6.11719795       4.32551318      10.59529973      -0.00000012       0.00000218      -0.00000013
Sc       0.00000035       0.00000058       0.00000103      -0.00000320      -0.00000350      -0.00000605
Se       2.19276817       1.55052245       7.06353323      -0.00025883      -0.00018518       0.00000044
Se       5.96349608       4.21682882       7.06353226       0.00026060       0.00018627       0.00000016
Se       5.02081450       1.55052356       5.43075988       0.00013179      -0.00018808      -0.00022673
Se       3.13544993       4.21682706       8.69630590      -0.00013142       0.00019011       0.00022804
Se       3.13545029       4.21682825       5.43075969      -0.00013029       0.00018698      -0.00022500
Se       5.02081413       1.55052355       8.69630588       0.00013254      -0.00018769       0.00022763
