9
Lattice="6.567841532720269 -7.416796730274281e-09 3.7919450407126964 2.1892805187051705 6.192220189243879 3.7919450150935985 7.289414074386598e-08 2.016731764660777e-08 7.58388995516889" Properties=species:S:1:pos:R:3:forces:R:3 energy=-39.26240539550781 free_energy=-39.26240539550781 stress="2.1276571715134196e-05 -7.783565791896763e-09 -1.915634761928686e-09 -7.783565791896763e-09 2.1291893062880263e-05 3.1419442603208836e-09 -1.915634761928686e-09 3.1419442603208836e-09 2.130302891600877e-05" pbc="T T T"
Ba       2.18928027       1.54805508       3.79194509       0.00000055      -0.00000024       0.00000015
Ba       6.56784156       4.64416490      11.37583466       0.00000013       0.00000014       0.00000035
Sc       0.00000012       0.00000032      -0.00000040       0.00000090      -0.00000398       0.00000198
Te       2.35153666       1.66278735       7.58388998      -0.00421248      -0.00297918       0.00000010
Te       6.40558560       4.52943278       7.58388993       0.00421202       0.00298011       0.00000019
Te       5.39207344       1.66278729       5.82843553       0.00210561      -0.00297971      -0.00364942
Te       3.36504862       4.52943291       9.33934500      -0.00210553       0.00298036       0.00364828
Te       3.36504878       4.52943301       5.82843530      -0.00210695       0.00298012      -0.00364987
Te       5.39207346       1.66278715       9.33934499       0.00210572      -0.00297768       0.00364814
