9
Lattice="6.177539165156627 -5.103321426564378e-08 3.5666036992919925 2.0591796698563316 5.824239674848468 3.5666037057836535 -2.4633755406870485e-08 -9.468082233522415e-09 7.133207441250907" Properties=species:S:1:pos:R:3:forces:R:3 energy=-36.61864471435547 free_energy=-36.61864471435547 stress="-3.4409600630169734e-05 2.327030790283402e-09 -8.024531261696666e-09 2.327030790283402e-09 -3.4403859899612144e-05 -3.565893802459641e-09 -8.024531261696666e-09 -3.565893802459641e-09 -3.440162254264578e-05" pbc="T T T"
Ba       2.05917976       1.45605993       3.56660377      -0.00000094       0.00000031       0.00000014
Ba       6.17753912       4.36817966      10.69981103      -0.00000034      -0.00000077      -0.00000033
Sr      -0.00000042       0.00000048      -0.00000042       0.00000181      -0.00000429       0.00000342
S        2.34068070       1.65511159       7.13320739      -0.00096558      -0.00068309       0.00000022
S        5.89603811       4.16912769       7.13320743       0.00096648       0.00068350      -0.00000037
S        5.00719854       1.65511142       5.59369293       0.00048326      -0.00068274      -0.00083661
S        3.22952048       4.16912823       8.67272201      -0.00048419       0.00068431       0.00083743
S        3.22952022       4.16912805       5.59369326      -0.00048381       0.00068546      -0.00083858
S        5.00719874       1.65511138       8.67272196       0.00048335      -0.00068270       0.00083470
