9
Lattice="5.237981329262968 4.416000219060504e-08 3.024149834756497 1.7459938202348733 4.9384163792959965 3.024149830981601 3.735151279983146e-08 2.178822572172042e-08 6.048299604818249" Properties=species:S:1:pos:R:3:forces:R:3 energy=-54.551231384277344 free_energy=-54.551231384277344 stress="0.00011421469389460981 4.8150767817389806e-09 2.096988360733576e-08 4.8150767817389806e-09 0.00011423120304243639 5.253317780784528e-09 2.096988360733576e-08 5.253317780784528e-09 0.00011422652460169047" pbc="T T T"
Ba       1.74599376       1.23460411       3.02414989      -0.00000073      -0.00000046      -0.00000055
Ba       5.23798156       3.70381238       9.07244914      -0.00000085       0.00000053       0.00000179
Sc      -0.00000016      -0.00000005      -0.00000022      -0.00000007       0.00000123      -0.00000176
O        1.65975609       1.17362486       6.04829984      -0.00127608      -0.00090250      -0.00000045
O        5.32421938       3.76479169       6.04829968       0.00127506       0.00090197       0.00000052
O        4.40810319       1.17362496       4.46154063       0.00063816      -0.00090230      -0.00110489
O        2.57587180       3.76479144       7.63505866      -0.00063697       0.00090197       0.00110474
O        2.57587189       3.76479158       4.46154066      -0.00063807       0.00090244      -0.00110552
O        4.40810312       1.17362478       7.63505863       0.00063965      -0.00090274       0.00110626
