9
Lattice="5.1243029595582374 -3.658464056912547e-07 2.95851758924023 1.7081008201069066 4.83123782597415 2.9585172800505313 5.48695562686282e-08 -3.398799354884595e-07 5.91703508344361" Properties=species:S:1:pos:R:3:forces:R:3 energy=-50.16939926147461 free_energy=-50.16939926147461 stress="2.7534990294952877e-05 -1.8499514808922868e-08 3.0524291982914065e-09 -1.8499514808922868e-08 2.741418757068459e-05 4.290350741342763e-09 3.0524291982914065e-09 4.290350741342763e-09 2.7597154257819057e-05" pbc="T T T"
Ba       1.70810072       1.20780927       2.95851767      -0.00000315      -0.00000158       0.00000008
Ba       5.12430242       3.62342768       8.87555245      -0.00000157       0.00000143       0.00000146
Se      -0.00000427      -0.00000023       0.00000067      -0.00005672      -0.00000507       0.00000469
O        1.50506071       1.06423702       5.91703524       0.00133681       0.00094271      -0.00000352
O        5.32734371       3.76699928       5.91703480      -0.00131989      -0.00094354      -0.00000278
O        4.37177383       1.06423739       4.26193791      -0.00065494       0.00094569       0.00115216
O        2.46063202       3.76699962       7.57213231       0.00067389      -0.00093782      -0.00115156
O        2.46063183       3.76700069       4.26193736       0.00067735      -0.00094390       0.00115311
O        4.37177392       1.06423768       7.57213192      -0.00065207       0.00094187      -0.00115514
