9
Lattice="5.895221106828489 6.276023527382891e-08 3.4036073580416457 1.9650736696308633 5.558068063390812 3.4036075170719466 -3.3736973972190384e-08 1.7091591919915268e-07 6.807214774517578" Properties=species:S:1:pos:R:3:forces:R:3 energy=-44.35458755493164 free_energy=-44.35458755493164 stress="2.592618329799734e-05 6.565093002564026e-08 -8.774940774003426e-09 6.565093002564026e-08 2.5987421395257115e-05 -1.117238035419632e-08 -8.774940774003426e-09 -1.117238035419632e-08 2.595626392576378e-05" pbc="T T T"
Ba       1.96507388       1.38951699       3.40360743       0.00000078       0.00000076       0.00000051
Ba       5.89522092       4.16855131      10.21082262       0.00000228       0.00000033      -0.00000623
Sc       0.00000017       0.00000009       0.00000103      -0.00000212      -0.00000113      -0.00000984
S        2.05490610       1.45303867       6.80721488      -0.00295284      -0.00208879       0.00000009
S        5.80538847       4.10502962       6.80721460       0.00295165       0.00208995       0.00000085
S        4.86776817       1.45303812       5.18320773       0.00147243      -0.00208437      -0.00254866
S        2.99252660       4.10503029       8.43122117      -0.00147422       0.00208558       0.00255734
S        2.99252641       4.10503009       5.18320788      -0.00147343       0.00208437      -0.00255099
S        4.86776817       1.45303796       8.43122139       0.00147536      -0.00208674       0.00255695
