9
Lattice="5.059461718302112 -3.426149327625577e-08 2.921081995846467 1.686487150594015 4.770105862795891 2.9210820937730815 6.860718081860264e-08 1.6844777064048795e-07 5.842163872861799" Properties=species:S:1:pos:R:3:forces:R:3 energy=-52.839622497558594 free_energy=-52.839622497558594 stress="8.863627590471879e-05 -3.854402308434146e-08 1.0573459974239086e-07 -3.854402308434146e-08 8.871012687450275e-05 -7.25939628409833e-08 1.0573459974239086e-07 -7.25939628409833e-08 8.872679609339684e-05" pbc="T T T"
Ba       1.68648730       1.19252648       2.92108211      -0.00000049      -0.00000063       0.00000041
Ba       5.05946164       3.57757947       8.76324574       0.00000109       0.00000062       0.00000115
S       -0.00000007       0.00000041      -0.00000006      -0.00000066      -0.00000009      -0.00000373
O        1.39317509       0.98512341       5.84216392      -0.00018716      -0.00013030      -0.00000149
O        5.35277394       3.78498255       5.84216432       0.00018668       0.00013137      -0.00000269
O        4.36287437       0.98512294       4.12760687       0.00009036      -0.00012612      -0.00015688
O        2.38307483       3.78498276       7.55672174      -0.00009465       0.00013089       0.00015903
O        2.38307494       3.78498252       4.12760665      -0.00009346       0.00013065      -0.00016189
O        4.36287419       0.98512351       7.55672135       0.00009763      -0.00013673       0.00016642
