9
Lattice="6.6389181723334865 -8.93196377722879e-08 3.8329812445727995 2.2129725999074985 6.259232092006659 3.832981313841352 -1.5047484798305098e-07 -2.156528929434322e-08 7.665962749775615" Properties=species:S:1:pos:R:3:forces:R:3 energy=-34.23198318481445 free_energy=-34.23198318481445 stress="-0.00013542824308387935 -3.760262767826816e-09 3.6325416008509137e-09 -3.760262767826816e-09 -0.00013544528337661177 5.949675196958992e-10 3.6325416008509137e-09 5.949675196958992e-10 -0.0001354493579128757" pbc="T T T"
Ba       2.21297294       1.56480819       3.83298179      -0.00000009       0.00000015      -0.00000012
Ba       6.63891771       4.69442351      11.49894365      -0.00000004       0.00000027       0.00000049
Sn      -0.00000034       0.00000009      -0.00000061       0.00000217       0.00000023       0.00000377
Te       2.39171284       1.69119654       7.66596266      -0.00081009      -0.00057271       0.00000063
Te       6.46017771       4.56803574       7.66596279       0.00080922       0.00057089       0.00000004
Te       5.44306100       1.69119645       5.90426557       0.00040528      -0.00057365      -0.00070062
Te       3.40882930       4.56803614       9.42765988      -0.00040424       0.00057197       0.00069931
Te       3.40882941       4.56803540       5.90426575      -0.00040519       0.00057352      -0.00070250
Te       5.44306187       1.69119590       9.42765973       0.00040288      -0.00057077       0.00069898
