9
Lattice="5.250082215135115 -5.972630687468235e-09 3.031136071413139 1.750027382034842 4.949824830481848 3.031136101514665 -3.4762428405463026e-08 1.2285947493739333e-08 6.062272203036561" Properties=species:S:1:pos:R:3:forces:R:3 energy=-49.7616081237793 free_energy=-49.7616081237793 stress="0.00011051091860281304 -7.803280688278846e-09 6.799204310681262e-09 -7.803280688278846e-09 0.00011050473403884098 6.3929541660456835e-09 6.799204310681262e-09 6.3929541660456835e-09 0.00011041031393688172" pbc="T T T"
Ba       1.75002752       1.23745624       3.03113617      -0.00000070      -0.00000076      -0.00000164
Ba       5.25008212       3.71236857       9.09340805       0.00000058       0.00000046       0.00000259
Sn      -0.00000020      -0.00000006       0.00000008       0.00000353      -0.00000114      -0.00000212
O        1.66472705       1.17713991       6.06227224      -0.00319290      -0.00225794      -0.00000067
O        5.33538273       3.77268518       6.06227220       0.00319040       0.00225568       0.00000017
O        4.41771851       1.17713964       4.47283173       0.00159568      -0.00225651      -0.00276387
O        2.58239101       3.77268491       7.65171230      -0.00159681       0.00225860       0.00276685
O        2.58239088       3.77268520       4.47283210      -0.00159621       0.00225848      -0.00276482
O        4.41771860       1.17713975       7.65171264       0.00159615      -0.00225675       0.00276482
