9
Lattice="5.962324499299893 -4.010991015502088e-08 3.442349659944192 1.987441470961384 5.621333399777225 3.4423496443371167 1.6126564210169504e-08 -7.711487671215589e-09 6.884699291956281" Properties=species:S:1:pos:R:3:forces:R:3 energy=-40.44013977050781 free_energy=-40.44013977050781 stress="-3.252487658755854e-05 4.056736457869192e-08 9.725032334984007e-09 4.056736457869192e-08 -3.25130567944143e-05 3.272989346214672e-08 9.725032334984007e-09 3.272989346214672e-08 -3.249477595090866e-05" pbc="T T T"
Ba       1.98744159       1.40533340       3.44234958       0.00000202       0.00000301       0.00000189
Ba       5.96232436       4.21599989      10.32704883      -0.00000094       0.00000219      -0.00000115
Sn      -0.00000016      -0.00000010       0.00000114      -0.00000028      -0.00000124      -0.00001850
S        2.03646852       1.44000059       6.88469934      -0.00102127      -0.00072178       0.00000160
S        5.91329776       4.18133268       6.88469918       0.00101954       0.00072211       0.00000081
S        4.94409054       1.44000054       5.20598287       0.00050652      -0.00071856      -0.00087801
S        3.00567566       4.18133250       8.56341533      -0.00051206       0.00072524       0.00088739
S        3.00567559       4.18133283       5.20598293      -0.00050855       0.00071698      -0.00087950
S        4.94409010       1.44000107       8.56341511       0.00051486      -0.00072798       0.00088534
