9
Lattice="5.113200081233689 3.722330064745532e-07 2.9521069792942676 1.704400138343046 4.820771623065423 2.9521073944313767 -2.0332518011574964e-07 3.6466446817412683e-07 5.904214310758298" Properties=species:S:1:pos:R:3:forces:R:3 energy=-44.38640213012695 free_energy=-44.38640213012695 stress="9.672770829638466e-06 4.168557410366702e-08 -1.576566859284867e-07 4.168557410366702e-08 9.554045391269028e-06 1.5499487915349164e-07 -1.576566859284867e-07 1.5499487915349164e-07 9.474380931351334e-06" pbc="T T T"
Ba       1.70439907       1.20519436       2.95210720       0.00000278      -0.00000356      -0.00000503
Ba       5.11320071       3.61557903       8.85632169      -0.00000273       0.00000059      -0.00000487
Sr      -0.00000036       0.00000049      -0.00000526      -0.00000087      -0.00000175       0.00004853
O        1.97700689       1.39795613       5.90421431      -0.00190350      -0.00134584       0.00000017
O        4.84059262       3.42281490       5.90421559       0.00190604       0.00134847       0.00000038
O        4.12469553       1.39795661       4.66424738       0.00095885      -0.00135520      -0.00165999
O        2.69290402       3.42281675       7.14418376      -0.00094771       0.00133947       0.00164020
O        2.69290343       3.42281548       4.66424529      -0.00095493       0.00135091      -0.00165266
O        4.12469776       1.39795548       7.14418506       0.00094226      -0.00133324       0.00163323
