9
Lattice="6.480238800394988 3.3552209795490605e-07 3.7413676789498957 2.1600799007517586 6.109627875139879 3.7413677061658217 7.739746275513221e-09 3.8805423279610666e-08 7.482735344494093" Properties=species:S:1:pos:R:3:forces:R:3 energy=-40.00102996826172 free_energy=-40.00102996826172 stress="-0.00010375314013799652 3.178045204776936e-08 9.773486020492328e-09 3.178045204776936e-08 -0.00010378101433161646 -3.544775806219036e-09 9.773486020492328e-09 -3.544775806219036e-09 -0.00010377676517236978" pbc="T T T"
Ba       2.16007962       1.52740708       3.74136739       0.00000018       0.00000032       0.00000028
Ba       6.48023886       4.58222144      11.22410343      -0.00000012      -0.00000091      -0.00000015
Ti       0.00000027       0.00000005       0.00000010      -0.00000196       0.00000063       0.00000007
Te       2.26150785       1.59912752       7.48273531      -0.00024382      -0.00017196      -0.00000020
Te       6.37881081       4.51050043       7.48273506       0.00024420       0.00017285       0.00000046
Te       5.34948557       1.59912666       5.69989103       0.00012006      -0.00016989      -0.00021118
Te       3.29083309       4.51050135       9.26558003      -0.00011921       0.00016904       0.00020886
Te       3.29083317       4.51050156       5.69989097      -0.00012007       0.00016969      -0.00020994
Te       5.34948562       1.59912693       9.26557965       0.00012078      -0.00016982       0.00021170
