9
Lattice="5.14431232786268 -3.858136657455887e-08 2.970070225517339 1.7147707534788021 4.850104363679539 2.970070201442778 1.7816198827018683e-08 -1.6887220403773672e-08 5.940140420176036" Properties=species:S:1:pos:R:3:forces:R:3 energy=-58.87794876098633 free_energy=-58.87794876098633 stress="4.854745930060744e-05 9.243242615752933e-09 -1.4387847357966166e-08 9.243242615752933e-09 4.856600207858719e-05 -4.811985920838424e-09 -1.4387847357966166e-08 -4.811985920838424e-09 4.8485722800251096e-05" pbc="T T T"
Ba       1.71477088       1.21252604       2.97007022      -0.00000084      -0.00000001       0.00000057
Ba       5.14431229       3.63757832       8.91021092      -0.00000014       0.00000025      -0.00000150
Ti      -0.00000018       0.00000008      -0.00000046       0.00000210      -0.00000224       0.00000569
O        1.56958394       1.10986366       5.94014035       0.00395727       0.00279731       0.00000163
O        5.28949906       3.74024081       5.94014030      -0.00395763      -0.00279900       0.00000203
O        4.35952049       1.10986357       4.32937002      -0.00197738       0.00279677       0.00342536
O        2.49956273       3.74024076       7.55091099       0.00198060      -0.00280026      -0.00342745
O        2.49956273       3.74024069       4.32936987       0.00197649      -0.00279388       0.00342292
O        4.35952047       1.10986337       7.55091105      -0.00197992       0.00280026      -0.00342804
