9
Lattice="6.032895035767328 -1.420279673174741e-07 3.48309385004813 2.0109649380752126 5.687867461044562 3.4830937460246876 6.010232470980189e-08 -8.490344647139539e-08 6.966187595995963" Properties=species:S:1:pos:R:3:forces:R:3 energy=-43.83784866333008 free_energy=-43.83784866333008 stress="-0.00026289914967492223 -3.941681825381238e-08 1.129885074391268e-08 -3.941681825381238e-08 -0.000262871035374701 -7.074458796552108e-09 1.129885074391268e-08 -7.074458796552108e-09 -0.00026281338068656623" pbc="T T T"
Ba       2.01096520       1.42196685       3.48309392      -0.00000099      -0.00000007      -0.00000073
Ba       6.03289491       4.26590059      10.44928138      -0.00000085      -0.00000032      -0.00000105
Ti       0.00000015      -0.00000114      -0.00000045      -0.00000090       0.00000319       0.00000106
Se       2.05884131       1.45582076       6.96618757      -0.00371146      -0.00262586       0.00000023
Se       5.98501771       4.23204667       6.96618730       0.00371400       0.00262537       0.00000074
Se       5.00347446       1.45582104       5.26610316       0.00185811      -0.00262889      -0.00321785
Se       3.04038575       4.23204629       8.66627229      -0.00185740       0.00262760       0.00321684
Se       3.04038637       4.23204674       5.26610334      -0.00185929       0.00262802      -0.00321802
Se       5.00347426       1.45582112       8.66627219       0.00185872      -0.00262900       0.00321864
