9
Lattice="5.832247303373942 -1.5336289677722877e-07 3.367249698151718 1.944082136357975 5.498695919340392 3.3672499640354725 -1.2912929051878374e-07 2.343316048236371e-07 6.734499619961911" Properties=species:S:1:pos:R:3:forces:R:3 energy=-47.217803955078125 free_energy=-47.217803955078125 stress="-1.1165534488100093e-05 -6.493598192491845e-08 1.1749443196151788e-08 -6.493598192491845e-08 -1.113676444219891e-05 1.0489397794799515e-08 1.1749443196151788e-08 1.0489397794799515e-08 -1.1086433005402796e-05" pbc="T T T"
Ba       1.94408227       1.37467388       3.36724992       0.00000043      -0.00000014      -0.00000020
Ba       5.83224694       4.12402215      10.10174947       0.00000047      -0.00000024      -0.00000045
Ti      -0.00000097      -0.00000040      -0.00000009       0.00000346       0.00000148       0.00000007
S        1.92596585       1.36186399       6.73449971       0.00000635       0.00000444      -0.00000160
S        5.85036315       4.13683211       6.73449958      -0.00000700      -0.00000623       0.00000044
S        4.86926420       1.36186404       5.03518639      -0.00000215       0.00000268       0.00000185
S        2.90706589       4.13683195       8.43381276       0.00000064      -0.00000170      -0.00000158
S        2.90706582       4.13683198       5.03518597       0.00000007      -0.00000212       0.00000292
S        4.86926419       1.36186424       8.43381333      -0.00000224       0.00000215      -0.00000158
