9
Lattice="5.9879565726387085 4.160036347829813e-08 3.4571482695405873 1.9959855281036414 5.645499455002043 3.4571483307347624 -1.2540972794969614e-07 -1.3730741204113077e-08 6.9142967562971975" Properties=species:S:1:pos:R:3:forces:R:3 energy=-43.474605560302734 free_energy=-43.474605560302734 stress="-0.0002544859889894724 1.9006977325375374e-08 -8.916567040273549e-09 1.9006977325375374e-08 -0.0002545107854530215 -1.2842461538653538e-09 -8.916567040273549e-09 -1.2842461538653538e-09 -0.0002545169263612479" pbc="T T T"
Ba       1.99598541       1.41137489       3.45714832       0.00000003       0.00000068       0.00000070
Ba       5.98795657       4.23412483      10.37144509      -0.00000053      -0.00000017       0.00000065
V       -0.00000022      -0.00000019      -0.00000026       0.00000203      -0.00000012      -0.00000019
Se       2.00849029       1.42021699       6.91429694       0.00070974       0.00050256       0.00000015
Se       5.97545174       4.22528295       6.91429688      -0.00071242      -0.00050409      -0.00000136
Se       4.98371166       1.42021656       5.19655130      -0.00035700       0.00050543       0.00061795
Se       3.00023044       4.22528247       8.63204162       0.00035523      -0.00050505      -0.00061746
Se       3.00023035       4.22528274       5.19655166       0.00035762      -0.00050385       0.00061660
Se       4.98371168       1.42021673       8.63204210      -0.00035467       0.00050455      -0.00061691
