9
Lattice="6.413654371850801 -6.496326791360492e-07 3.7029256532148795 2.13788419031807 6.046851049862208 3.702925632117109 1.1071008483347203e-07 5.244453069182625e-08 7.4058511146744666" Properties=species:S:1:pos:R:3:forces:R:3 energy=-39.67173767089844 free_energy=-39.67173767089844 stress="-4.0462597098667175e-05 -5.2937856764856406e-08 6.673873453877377e-09 -5.2937856764856406e-08 -4.0449951484333724e-05 4.195975122911477e-09 6.673873453877377e-09 4.195975122911477e-09 -4.036392056150362e-05" pbc="T T T"
Ba       2.13788452       1.51171300       3.70292569       0.00000002       0.00000087      -0.00000013
Ba       6.41365412       4.53513757      11.10877658      -0.00000039      -0.00000031      -0.00000104
V       -0.00000044      -0.00000045       0.00000053       0.00000114       0.00000035      -0.00000051
Te       2.24635090       1.58840944       7.40585093       0.00081850       0.00057932       0.00000043
Te       6.30518729       4.45844137       7.40585062      -0.00081883      -0.00058089       0.00000123
Te       5.29047798       1.58841038       5.64832506      -0.00040628       0.00057507       0.00070431
Te       3.26106097       4.45844029       9.16337725       0.00040660      -0.00057599      -0.00070235
Te       3.26106147       4.45844015       5.64832547       0.00040577      -0.00057521       0.00070181
Te       5.29047785       1.58841020       9.16337751      -0.00040649       0.00057683      -0.00070377
