9
Lattice="5.14639591832914 5.242813259277312e-09 2.9712728892167273 1.7154652952161615 4.8520684869232635 2.971272916646392 -5.489061431434741e-09 2.9712992351594053e-08 5.942545787940814" Properties=species:S:1:pos:R:3:forces:R:3 energy=-57.320247650146484 free_energy=-57.320247650146484 stress="-0.0003104086790699512 4.022362176669958e-08 3.2367200475391655e-08 4.022362176669958e-08 -0.00031046956428326666 -5.260416457986139e-08 3.2367200475391655e-08 -5.260416457986139e-08 -0.00031044729985296726" pbc="T T T"
Ba       1.71546512       1.21301687       2.97127317       0.00000061      -0.00000031      -0.00000162
Ba       5.14639594       3.63905142       8.91381882      -0.00000083      -0.00000047       0.00000141
V        0.00000018      -0.00000054       0.00000027      -0.00000074       0.00000630      -0.00000332
O        1.52074139       1.07532605       5.94254596       0.00491583       0.00347936      -0.00000218
O        5.34112009       3.77674233       5.94254556      -0.00492215      -0.00347745       0.00000009
O        4.38602532       1.07532619       4.28827309      -0.00246322       0.00348336       0.00426412
O        2.47583591       3.77674252       7.59681875       0.00246334      -0.00348306      -0.00427032
O        2.47583602       3.77674269       4.28827260       0.00246400      -0.00348496       0.00426865
O        4.38602488       1.07532663       7.59681790      -0.00245649       0.00347656      -0.00425744
