9
Lattice="5.2661303820811165 -2.8866861579149098e-08 3.0404018837702393 1.7553767861678926 4.964955195787667 3.040401850243306 7.810924408181677e-08 1.4169656855093703e-08 6.080803632251285" Properties=species:S:1:pos:R:3:forces:R:3 energy=-53.62664794921875 free_energy=-53.62664794921875 stress="0.00012189797416795045 1.160463014571178e-08 6.533625196425419e-09 1.160463014571178e-08 0.0001218519828398712 4.91900919996624e-09 6.533625196425419e-09 4.91900919996624e-09 0.00012182092177681625" pbc="T T T"
Ba       1.75537650       1.24123911       3.04040164       0.00000101      -0.00000063      -0.00000061
Ba       5.26613097       3.72371633       9.12120503      -0.00000089       0.00000061      -0.00000072
Y       -0.00000018      -0.00000026      -0.00000155       0.00000011       0.00000043       0.00001547
O        1.79548396       1.26959880       6.08080380      -0.00049549      -0.00035009       0.00000081
O        5.22602322       3.69535667       6.08080382       0.00049502       0.00034901       0.00000121
O        4.36838810       1.26959913       4.59533690       0.00025091      -0.00035325      -0.00043154
O        2.65311835       3.69535681       7.56627140      -0.00024498       0.00034541       0.00042364
O        2.65311906       3.69535602       4.59533685      -0.00025010       0.00035408      -0.00043079
O        4.36838885       1.26959813       7.56627153       0.00024429      -0.00034541       0.00042310
