9
Lattice="6.272933441863521 2.0357016938267974e-08 3.6216799345566573 2.09097775621883 5.914178665393977 3.621680067800667 -5.7826797137137384e-08 1.2230020782797975e-07 7.243359969272219" Properties=species:S:1:pos:R:3:forces:R:3 energy=-42.044044494628906 free_energy=-42.044044494628906 stress="-0.0001094740437110886 8.668545881107548e-09 -5.086671528431452e-09 8.668545881107548e-09 -0.00010945279063889757 2.577071001041986e-09 -5.086671528431452e-09 2.577071001041986e-09 -0.00010945575195364654" pbc="T T T"
Ba       2.09097791       1.47854470       3.62167995       0.00000000      -0.00000025      -0.00000075
Ba       6.27293327       4.43563396      10.86503998       0.00000000      -0.00000016      -0.00000026
Y       -0.00000007       0.00000023      -0.00000063       0.00000158      -0.00000002       0.00000584
Se       2.30692576       1.63124321       7.24336010      -0.00482590      -0.00341223      -0.00000024
Se       6.05698569       4.28293581       7.24336012       0.00482272       0.00341179       0.00000004
Se       5.11947062       1.63124322       5.61953643       0.00241281      -0.00341230      -0.00417960
Se       3.24444044       4.28293592       8.86718364      -0.00241035       0.00341057       0.00417684
Se       3.24444023       4.28293541       5.61953648      -0.00241248       0.00341263      -0.00417878
Se       5.11947071       1.63124282       8.86718383       0.00241165      -0.00341009       0.00417691
