9
Lattice="5.128643335817818 -2.5657312027157758e-09 2.961023562576291 1.709547751119182 4.835331236634425 2.9610236059949147 -7.115312195399757e-08 2.8638890745862255e-09 5.922047248393486" Properties=species:S:1:pos:R:3:forces:R:3 energy=-43.665130615234375 free_energy=-43.665130615234375 stress="7.546251435996965e-05 3.8047581085720594e-08 -2.1252279935879415e-08 3.8047581085720594e-08 7.543672836618498e-05 -6.086420256679048e-09 -2.1252279935879415e-08 -6.086420256679048e-09 7.552443275926635e-05" pbc="T T T"
Ba       1.70954789       1.20883287       2.96102353      -0.00000052      -0.00000001      -0.00000000
Ba       5.12864346       3.62649837       8.88307098      -0.00000093      -0.00000033      -0.00000027
Zn       0.00000000       0.00000037      -0.00000014       0.00000011      -0.00000689       0.00000064
O        1.59906506       1.13071001       5.92204727       0.00671658       0.00474928      -0.00000015
O        5.23912594       3.70462133       5.92204729      -0.00671196      -0.00474735       0.00000008
O        4.32911072       1.13070964       4.34585441      -0.00335908       0.00474955       0.00581837
O        2.50908020       3.70462135       7.49823993       0.00335775      -0.00474712      -0.00581419
O        2.50908021       3.70462134       4.34585465       0.00335689      -0.00474684       0.00581291
O        4.32911066       1.13070977       7.49823979      -0.00335875       0.00474976      -0.00581735
