9
Lattice="5.954023665622985 2.9922911166060264e-08 3.4375571726320944 1.9846744780725072 5.61350746848754 3.43755735509797 -1.4190619404572526e-07 1.2313133138534565e-07 6.875114591052855" Properties=species:S:1:pos:R:3:forces:R:3 energy=-33.75394058227539 free_energy=-33.75394058227539 stress="-5.521084676729515e-05 -2.261681331106047e-08 -2.170189539185685e-08 -2.261681331106047e-08 -5.523001527762972e-05 2.666634735248863e-08 -2.170189539185685e-08 2.666634735248863e-08 -5.523317668121308e-05" pbc="T T T"
Ba       1.98467456       1.40337665       3.43755708      -0.00000058       0.00000274       0.00000035
Ba       5.95402344       4.21013074      10.31267197       0.00000034       0.00000056       0.00000007
Zn       0.00000038      -0.00000018       0.00000018      -0.00000256       0.00000017       0.00000145
Se       2.07845935       1.46969305       6.87511454      -0.00030811      -0.00021884       0.00000016
Se       5.86023811       4.14381451       6.87511457       0.00031161       0.00021854       0.00000063
Se       4.91479357       1.46969321       5.23755634       0.00015667      -0.00021897      -0.00026996
Se       3.02390441       4.14381477       8.51267269      -0.00015496       0.00021762       0.00026850
Se       3.02390431       4.14381472       5.23755615      -0.00015591       0.00021774      -0.00026667
Se       4.91479379       1.46969300       8.51267292       0.00015350      -0.00021940       0.00026551
