9
Lattice="6.435824214197394 1.7217042974580136e-08 3.7157245463730426 2.1452747763661684 6.0677531665663205 3.715724508150128 -5.650632489640142e-08 -8.676936001476534e-08 7.431449190617914" Properties=species:S:1:pos:R:3:forces:R:3 energy=-31.261356353759766 free_energy=-31.261356353759766 stress="2.259833308926318e-05 -1.2036839081019934e-08 -1.20519860757895e-09 -1.2036839081019934e-08 2.2657332010567188e-05 3.0847955301283037e-09 -1.20519860757895e-09 3.0847955301283037e-09 2.2581640223506838e-05" pbc="T T T"
Ba       2.14527477       1.51693807       3.71572454      -0.00000070      -0.00000109       0.00000011
Ba       6.43582416       4.55081465      11.14717382       0.00000029       0.00000135       0.00000020
Zn       0.00000008      -0.00000044      -0.00000118      -0.00000127       0.00000147       0.00000272
Te       2.28869823       1.61835584       7.43144913       0.00075907       0.00053512       0.00000065
Te       6.29240076       4.44939766       7.43144926      -0.00075965      -0.00053662      -0.00000012
Te       5.29147420       1.61835626       5.69779518      -0.00037889       0.00053477       0.00065714
Te       3.28962454       4.44939756       9.16510384       0.00038075      -0.00053702      -0.00065997
Te       3.28962473       4.44939676       5.69779489       0.00037984      -0.00053473       0.00065796
Te       5.29147428       1.61835599       9.16510352      -0.00037941       0.00053675      -0.00065877
