9
Lattice="5.73730282353737 -3.302676168904039e-08 3.31243332793869 1.9124342482700298 5.409180851929089 3.3124333194594837 1.7855134501389062e-09 -9.122332148810908e-09 6.62486665278488" Properties=species:S:1:pos:R:3:forces:R:3 energy=-35.434818267822266 free_energy=-35.434818267822266 stress="-6.318280793493614e-05 -1.3251560737614909e-08 -2.2963424495259233e-09 -1.3251560737614909e-08 -6.326034781523049e-05 -1.628461809843884e-08 -2.2963424495259233e-09 -1.628461809843884e-08 -6.322869739960879e-05" pbc="T T T"
Ba       1.91243446       1.35229530       3.31243334      -0.00000187       0.00000132       0.00000115
Ba       5.73730283       4.05688553       9.93729976       0.00000047      -0.00000296       0.00000150
Zn      -0.00000011      -0.00000028      -0.00000005       0.00000078       0.00000310       0.00000079
S        1.95642336       1.38340003       6.62486674       0.00245583       0.00173733      -0.00000227
S        5.69331408       4.02578084       6.62486680      -0.00245899      -0.00173849      -0.00000173
S        4.75909129       1.38339976       5.00674525      -0.00122827       0.00173885       0.00212818
S        2.89064538       4.02578095       8.24298794       0.00123110      -0.00173786      -0.00212944
S        2.89064570       4.02578107       5.00674529       0.00122951      -0.00173908       0.00212857
S        4.75909130       1.38340005       8.24298811      -0.00122854       0.00173786      -0.00212723
