9
Lattice="4.924403093765107 -2.2529774686432387e-07 2.8431051096653253 1.6414674846672093 4.642771339303896 2.8431051111233083 7.367956193619295e-08 5.388497779803543e-08 5.6862100917139164" Properties=species:S:1:pos:R:3:forces:R:3 energy=-30.799585342407227 free_energy=-30.799585342407227 stress="2.3356424208031967e-05 -7.655725653421541e-08 1.1416174672262969e-08 -7.655725653421541e-08 2.301837594131939e-05 3.514260882298004e-08 1.1416174672262969e-08 3.514260882298004e-08 2.2948455807636492e-05" pbc="T T T"
Be       1.64146763       1.16069336       2.84310641      -0.00000076       0.00000546       0.00001423
Be       4.92440370       3.48207801       8.52931541       0.00000675      -0.00000139      -0.00000102
C       -0.00000000       0.00000043      -0.00000012      -0.00000105      -0.00000147      -0.00000082
S        1.55795186       1.10163885       5.68621017       0.00009942       0.00007525       0.00000175
S        5.00791904       3.54113256       5.68621145      -0.00010204      -0.00007582       0.00001473
S        4.14542632       1.10163880       4.19233032      -0.00005713       0.00007528       0.00008070
S        2.42044295       3.54113325       7.18008861       0.00004897      -0.00006855      -0.00009501
S        2.42044390       3.54113214       4.19233047       0.00005376      -0.00007999       0.00008446
S        4.14542722       1.10163730       7.18008840      -0.00004816       0.00007075      -0.00009918
