9
Lattice="4.132624386034189 7.770127386829379e-08 2.385971484819021 1.3775415098575967 3.8962758504985846 2.3859715288326124 -1.9295881331469e-08 4.026117915517758e-08 4.77194300305948" Properties=species:S:1:pos:R:3:forces:R:3 energy=-48.23066711425781 free_energy=-48.23066711425781 stress="9.733504157338757e-06 -1.9369327475260434e-08 -1.3402684828633937e-07 -1.9369327475260434e-08 9.990589205699507e-06 9.94099593754072e-08 -1.3402684828633937e-07 9.94099593754072e-08 1.026250083668856e-05" pbc="T T T"
Be       1.37754160       0.97406968       2.38597162      -0.00000022      -0.00000011       0.00000029
Be       4.13262471       2.92220708       7.15791493      -0.00000123       0.00000197      -0.00000201
C       -0.00000014       0.00000003      -0.00000017       0.00000737      -0.00000780      -0.00000451
O        1.21901579       0.86197374       4.77194328      -0.00016731      -0.00012738       0.00000735
O        4.29114981       3.03430200       4.77194264       0.00017393       0.00012147      -0.00000141
O        3.52311632       0.86197446       3.44166962       0.00008461      -0.00011933      -0.00015074
O        1.98704934       3.03430138       6.10221587      -0.00009042       0.00012290       0.00016677
O        1.98704867       3.03430126       3.44167009      -0.00008872       0.00012398      -0.00016207
O        3.52311707       0.86197455       6.10221574       0.00008270      -0.00011677       0.00014728
