9
Lattice="4.711210699464359 6.351461427556589e-08 2.7200188318294463 1.5704036233148826 4.441772225148453 2.7200188371215357 -9.52615328676339e-08 -6.087860281577248e-08 5.440037828656743" Properties=species:S:1:pos:R:3:forces:R:3 energy=-32.305564880371094 free_energy=-32.305564880371094 stress="-3.919251867046114e-06 4.095583960861404e-08 4.676278919646393e-08 4.095583960861404e-08 -4.0433747017232236e-06 -7.069455243424727e-09 4.676278919646393e-08 -7.069455243424727e-09 -3.9980750443646684e-06" pbc="T T T"
Br       1.57040417       1.11044293       2.72001668       0.00001168      -0.00000391      -0.00002969
Br       4.71121072       3.33132938       8.16005437       0.00001285      -0.00000160      -0.00003017
C        0.00000535      -0.00000144      -0.00001133       0.00006939      -0.00001706      -0.00014342
O        1.30788957       0.92481755       5.44003902       0.00035369       0.00025630       0.00000879
O        4.97372145       3.51695275       5.44003872      -0.00039196      -0.00027156       0.00001196
O        4.05726330       0.92482118       3.85268995      -0.00022256       0.00030136       0.00037801
O        2.22434743       3.51695616       7.02739376       0.00015599      -0.00022781      -0.00026906
O        2.22434952       3.51695276       3.85268797       0.00019228      -0.00028455       0.00035954
O        4.05726564       0.92481728       7.02739174      -0.00017983       0.00024807      -0.00028658
