9
Lattice="4.984327646873329 -6.753485446527212e-08 2.8777029110516157 1.6614425207806107 4.699269143295716 2.8777028495719588 5.82808504737991e-08 -3.4086106747244246e-08 5.755405721157799" Properties=species:S:1:pos:R:3:forces:R:3 energy=-36.637168884277344 free_energy=-36.637168884277344 stress="-0.00011132330837426707 -2.4706990231493364e-08 -2.432673174013189e-09 -2.4706990231493364e-08 -0.00011128937330795452 1.1281581002720031e-08 -2.432673174013189e-09 1.1281581002720031e-08 -0.00011124871525680646" pbc="T T T"
Br       1.66144253       1.17481765       2.87770306      -0.00000068       0.00000254       0.00000094
Br       4.98432795       3.52445252       8.63310914      -0.00000047       0.00000253       0.00000226
Cr      -0.00000039       0.00000013       0.00000003       0.00000087       0.00000080      -0.00000064
O        1.51776200       1.07321996       5.75540537      -0.00153068      -0.00108358      -0.00000125
O        5.12800833       3.62604864       5.75540563       0.00153139       0.00108063      -0.00000097
O        4.22544677       1.07321963       4.19212364       0.00076516      -0.00108412      -0.00132641
O        2.42032376       3.62604880       7.31868780      -0.00076680       0.00108460       0.00132757
O        2.42032398       3.62604928       4.19212358      -0.00076498       0.00108251      -0.00132737
O        4.22544626       1.07321958       7.31868780       0.00076643      -0.00108585       0.00132579
