9
Lattice="4.891707198068251 7.070591148594883e-08 2.824228270345225 1.6305691540943859 4.611945342968775 2.8242282332630317 2.7184769284606754e-08 -2.6193821354029847e-08 5.648456493605223" Properties=species:S:1:pos:R:3:forces:R:3 energy=-32.470645904541016 free_energy=-32.470645904541016 stress="8.463968697469682e-05 2.529113629634594e-08 -4.523121432953303e-08 2.529113629634594e-08 8.464620623271912e-05 -2.3550422056928255e-08 -4.523121432953303e-08 -2.3550422056928255e-08 8.455600618617609e-05" pbc="T T T"
Br       1.63056889       1.15298596       2.82422740       0.00000062      -0.00000223       0.00000120
Br       4.89170773       3.45895909       8.47268559       0.00000154      -0.00000014       0.00000164
Fe       0.00000045      -0.00000056       0.00000084      -0.00000163       0.00000217      -0.00000327
O        1.55284993       1.09803068       5.64845626      -0.00549141      -0.00388271       0.00000078
O        4.96942655       3.51391513       5.64845658       0.00549099       0.00388288      -0.00000202
O        4.11528219       1.09803006       4.16903575       0.00274643      -0.00388274      -0.00475487
O        2.40699432       3.51391484       7.12787701      -0.00274809       0.00388394       0.00475454
O        2.40699390       3.51391517       4.16903542      -0.00274423       0.00388299      -0.00475433
O        4.11528186       1.09803107       7.12787736       0.00274575      -0.00388414       0.00475648
