9
Lattice="5.033302532388404 -4.681403916331941e-09 2.9059784986171135 1.6777674927370916 4.745442890870882 2.9059785222515546 -2.7368249583890275e-08 9.593900134572533e-09 5.811957044637323" Properties=species:S:1:pos:R:3:forces:R:3 energy=-32.191646575927734 free_energy=-32.191646575927734 stress="-0.00021430017659440637 9.863684624633606e-08 -2.9714497529198525e-09 9.863684624633606e-08 -0.0002143033198080957 5.106640799112938e-08 -2.9714497529198525e-09 5.106640799112938e-08 -0.00021449683117680252" pbc="T T T"
Br       1.67776749       1.18636021       2.90597851       0.00000004      -0.00000087      -0.00000051
Br       5.03330176       3.55908300       8.71793590      -0.00000308       0.00000302       0.00000086
Ge      -0.00000013       0.00000028      -0.00000012       0.00000032      -0.00000424       0.00000438
O        1.57480663       1.11355565       5.81195688       0.00324547       0.00229418       0.00000071
O        5.13626373       3.63188650       5.81195713      -0.00324285      -0.00229269       0.00000062
O        4.24589934       1.11355580       4.26980021      -0.00162286       0.00229537       0.00281304
O        2.46517046       3.63188713       7.35411414       0.00162506      -0.00229841      -0.00281477
O        2.46517119       3.63188744       4.26979978       0.00162578      -0.00229681       0.00281382
O        4.24589954       1.11355518       7.35411385      -0.00162780       0.00229996      -0.00281811
