9
Lattice="5.103066345593793 -3.745924584547548e-08 2.9462568102855053 1.701022019349819 4.811217809073946 2.946256915128624 -1.4927960485589835e-07 2.284946127842092e-08 5.892513879130868" Properties=species:S:1:pos:R:3:forces:R:3 energy=-43.11399841308594 free_energy=-43.11399841308594 stress="-9.972346560971346e-06 -1.4899086409059237e-08 3.723350516793289e-08 -1.4899086409059237e-08 -1.0058236512122676e-05 -6.469691449240145e-10 3.723350516793289e-08 -6.469691449240145e-10 -1.00679953902727e-05" pbc="T T T"
Br       1.70102127       1.20280642       2.94625653      -0.00000301       0.00000825      -0.00000109
Br       5.10306748       3.60841314       8.83876830       0.00000551      -0.00000085      -0.00000973
Hf      -0.00000008       0.00000000       0.00000001      -0.00000124       0.00000071       0.00000020
O        1.71774221       1.21462952       5.89251354       0.00042188       0.00030363       0.00000014
O        5.08634632       3.59658712       5.89251467      -0.00041935      -0.00030631       0.00000547
O        4.24419423       1.21462732       4.43386690      -0.00021365       0.00029600       0.00037020
O        2.55989388       3.59658997       7.35116133       0.00021383      -0.00030142      -0.00036690
O        2.55989363       3.59658952       4.43386699       0.00020960      -0.00029948       0.00036743
O        4.24419373       1.21462808       7.35116217      -0.00021361       0.00029939      -0.00036523
