9
Lattice="4.940337255218235 -7.821970618391334e-08 2.852305116681208 1.6467789948206228 4.657794560660474 2.8523051452702863 1.667824041343841e-07 1.5294725851280093e-07 5.7046099444868625" Properties=species:S:1:pos:R:3:forces:R:3 energy=-38.28886032104492 free_energy=-38.28886032104492 stress="-3.109236786258407e-05 6.692479459502465e-09 -2.2208379579780058e-09 6.692479459502465e-09 -3.103160997852683e-05 -2.439639157358897e-09 -2.2208379579780058e-09 -2.439639157358897e-09 -3.1105457310331985e-05" pbc="T T T"
Br       1.64677887       1.16444790       2.85230537       0.00000069      -0.00000155       0.00000114
Br       4.94033705       3.49334633       8.55691465       0.00000010      -0.00000171      -0.00000017
Ir       0.00000028      -0.00000059       0.00000044      -0.00001034       0.00001001      -0.00002196
O        1.52439302       1.07790848       5.70461010       0.00077814       0.00054935      -0.00000094
O        5.06272288       3.57988661       5.70460998      -0.00077373      -0.00054643      -0.00000096
O        4.17814132       1.07790844       4.17246819      -0.00038978       0.00055078       0.00067514
O        2.40897572       3.57988569       7.23675207       0.00038496      -0.00054520      -0.00066787
O        2.40897523       3.57988580       4.17246806       0.00039166      -0.00055656       0.00067976
O        4.17814107       1.07790940       7.23675237      -0.00038165       0.00054139      -0.00066370
