9
Lattice="5.009569677265707 1.2232534186697623e-07 2.892276238331136 1.6698565957712597 4.723068150525024 2.892276374551214 -2.0097648910322413e-07 2.472310767081489e-08 5.7845528247637805" Properties=species:S:1:pos:R:3:forces:R:3 energy=-37.73749542236328 free_energy=-37.73749542236328 stress="0.00016521707584615797 -2.0285382262841267e-08 2.650137354009985e-08 -2.0285382262841267e-08 0.00016523164231330156 -2.2948011491052966e-08 2.650137354009985e-08 -2.2948011491052966e-08 0.00016521381621714681" pbc="T T T"
Br       1.66985639       1.18076682       2.89227598       0.00000099      -0.00000294      -0.00000137
Br       5.00956961       3.54230057       8.67682841      -0.00000009      -0.00000285      -0.00000351
Mo      -0.00000004      -0.00000042      -0.00000030       0.00000075      -0.00000296      -0.00000184
O        1.60039015       1.13164765       5.78455270      -0.00242817      -0.00171363       0.00000073
O        5.07903542       3.59142153       5.78455294       0.00242579       0.00171697       0.00000196
O        4.20937424       1.13164700       4.27825550       0.00121406      -0.00171512      -0.00210041
O        2.47005222       3.59142101       7.29085060      -0.00121287       0.00171673       0.00210297
O        2.47005189       3.59142168       4.27825554      -0.00121361       0.00171858      -0.00210106
O        4.20937407       1.13164734       7.29085048       0.00121284      -0.00171459       0.00210321
