9
Lattice="4.736606494931995 -1.0217719308516895e-07 2.7346811627554954 1.5788686921697284 4.465715745426 2.7346812374773917 -9.844267984196064e-08 2.1905744066475045e-08 5.469362496018791" Properties=species:S:1:pos:R:3:forces:R:3 energy=-40.17864227294922 free_energy=-40.17864227294922 stress="-0.000675839139148593 1.864922438699068e-08 4.905974648750089e-08 1.864922438699068e-08 -0.0006749302265234292 4.652917766634346e-07 4.905974648750089e-08 4.652917766634346e-07 -0.0006758519448339939" pbc="T T T"
Br       1.57886934       1.11642977       2.73468180      -0.00002449      -0.00004132      -0.00008837
Br       4.73660602       3.34928615       8.20404409      -0.00003338      -0.00005180      -0.00008724
Mn       0.00000550       0.00000877       0.00001714      -0.00109172      -0.00166696      -0.00321130
O        1.56192892       1.10445123       5.46936588       0.00407362       0.00271297      -0.00066918
O        4.75353053       3.36125493       5.46936556      -0.00106788      -0.00093150      -0.00064688
O        3.95564612       1.10444839       4.08734992      -0.00281620       0.00330496       0.00381970
O        2.35984516       3.36125187       6.85135832      -0.00023425      -0.00032580      -0.00065303
O        2.35983396       3.36126773       4.08735380       0.00189149      -0.00334370       0.00303268
O        3.95563488       1.10446383       6.85136311      -0.00069737       0.00034356      -0.00149655
