9
Lattice="4.8829110707275705 -1.8185495313082892e-07 2.81914961351321 1.6276367623084624 4.603652890699366 2.8191497690738525 -3.2819169164693594e-07 -4.1544460594069455e-08 5.638299795471373" Properties=species:S:1:pos:R:3:forces:R:3 energy=-27.652297973632812 free_energy=-27.652297973632812 stress="0.00012297467037569731 -1.5043710277495848e-08 -9.761813579700629e-09 -1.5043710277495848e-08 0.00012306256394367665 -2.32986518966527e-09 -9.761813579700629e-09 -2.32986518966527e-09 0.0001229759509442374" pbc="T T T"
Br       1.62763718       1.15091487       2.81914952       0.00000230       0.00000558      -0.00000069
Br       4.88290963       3.45273752       8.45744901      -0.00000286      -0.00000595      -0.00000271
Ni      -0.00000007       0.00000001      -0.00000049      -0.00000098       0.00000209      -0.00000741
O        1.49382704       1.05629617       5.63830074      -0.00270631      -0.00191250      -0.00000065
O        5.01672058       3.54735684       5.63830079       0.00270573       0.00191148      -0.00000098
O        4.13599704       1.05629584       4.11284123       0.00135183      -0.00190897      -0.00234197
O        2.37455115       3.54735612       7.16375727      -0.00135432       0.00191446       0.00234711
O        2.37455024       3.54735631       4.11284125      -0.00135108       0.00190906      -0.00234157
O        4.13599699       1.05629689       7.16375704       0.00135558      -0.00191527       0.00234869
