9
Lattice="4.9414863710778105 -4.036941069952799e-08 2.8529685383975507 1.6471620597614753 4.658878312125559 2.8529685832065113 6.685743876407956e-08 1.0215489304201834e-07 5.705936960994636" Properties=species:S:1:pos:R:3:forces:R:3 energy=-42.94771957397461 free_energy=-42.94771957397461 stress="0.0006454098620451987 -7.919622646568314e-08 -1.6387708967613435e-08 -7.919622646568314e-08 0.0006453986279666424 -1.5099073991109435e-08 -1.6387708967613435e-08 -1.5099073991109435e-08 0.0006455517141148448" pbc="T T T"
Br       1.64716241       1.16471983       2.85296827      -0.00000048       0.00000053      -0.00000033
Br       4.94148593       3.49415851       8.55890538       0.00000011       0.00000040      -0.00000000
Os      -0.00000012       0.00000030      -0.00000011       0.00000238      -0.00000267       0.00000228
O        1.51994602       1.07476416       5.70593689       0.00557959       0.00394422       0.00000058
O        5.06870298       3.58411390       5.70593742      -0.00558287      -0.00394654       0.00000061
O        4.18151330       1.07476426       4.16928047      -0.00278658       0.00394076       0.00482750
O        2.40713512       3.58411413       7.24259369       0.00278780      -0.00394106      -0.00482810
O        2.40713521       3.58411417       4.16928067       0.00278869      -0.00393969       0.00482726
O        4.18151321       1.07476416       7.24259368      -0.00278905       0.00394368      -0.00483006
