9
Lattice="5.088728590451606 1.4374562927035052e-07 2.937978826985534 1.6962429794286136 4.797699906759668 2.9379788608989577 5.1677397445417e-08 7.807675297166869e-08 5.875957564463164" Properties=species:S:1:pos:R:3:forces:R:3 energy=-28.7192325592041 free_energy=-28.7192325592041 stress="-7.851814007153735e-05 -2.1285326834430407e-09 -1.2282133088348246e-09 -2.1285326834430407e-09 -7.85690572229214e-05 -3.758968247780103e-09 -1.2282133088348246e-09 -3.758968247780103e-09 -7.847489177947864e-05" pbc="T T T"
Br       1.69624269       1.19942580       2.93797708      -0.00000171       0.00000152      -0.00000542
Br       5.08872806       3.59827549       8.81393523      -0.00000256       0.00000129      -0.00000510
Pb      -0.00000073       0.00000027      -0.00000174       0.00000320       0.00000271       0.00000866
O        1.74274918       1.23230912       5.87595896      -0.00274113      -0.00193954       0.00000453
O        5.04222328       3.56539021       5.87595839       0.00273673       0.00193380       0.00000272
O        4.21735445       1.23230911       4.44724428       0.00137355      -0.00194019      -0.00237304
O        2.56761780       3.56539072       7.30467265      -0.00136481       0.00193214       0.00237043
O        2.56761716       3.56539000       4.44724350      -0.00137058       0.00194041      -0.00237371
O        4.21735470       1.23230987       7.30467246       0.00136741      -0.00193230       0.00237083
