9
Lattice="4.978074313444255 -5.133518617147387e-07 2.874092794247168 1.6593576637779035 4.6933733808975395 2.8740927192678196 1.5801075536668036e-07 1.9900007806600625e-08 5.748185314811691" Properties=species:S:1:pos:R:3:forces:R:3 energy=-32.52204132080078 free_energy=-32.52204132080078 stress="-0.00040225262637250125 6.9239036726287395e-09 5.237178513084473e-08 6.9239036726287395e-09 -0.00040218845242634416 3.950885130166171e-08 5.237178513084473e-08 3.950885130166171e-08 -0.00040220055961981416" pbc="T T T"
Br       1.65936037       1.17334189       2.87408908       0.00000922      -0.00000604      -0.00001280
Br       4.97807624       3.52003093       8.62228017       0.00000695       0.00000076       0.00000847
Pt       0.00000036      -0.00000173       0.00000073      -0.00000423       0.00004374      -0.00003314
O        1.55950966       1.10274044       5.74818731      -0.00141734      -0.00099787      -0.00000047
O        5.07792172       3.59063382       5.74818475       0.00139296       0.00099021      -0.00000201
O        4.19831988       1.10273894       4.22466892       0.00070325      -0.00099704      -0.00121897
O        2.43911054       3.59063263       7.27170169      -0.00070977       0.00099868       0.00121450
O        2.43911371       3.59063455       4.22466687      -0.00069177       0.00097948      -0.00119692
O        4.19831605       1.10273997       7.27170355       0.00071052      -0.00101218       0.00124115
