9
Lattice="4.9354735515216595 4.474188825747375e-07 2.84949679871898 1.6451580482498396 4.653211934915214 2.8494971868506753 -4.6119847147943916e-07 1.492459689541324e-07 5.698994396257086" Properties=species:S:1:pos:R:3:forces:R:3 energy=-36.91994094848633 free_energy=-36.91994094848633 stress="1.177838203147985e-05 1.857871190225069e-08 -5.9389908102502886e-08 1.857871190225069e-08 1.0309350727766287e-05 -5.911243405876121e-08 -5.9389908102502886e-08 -5.911243405876121e-08 1.181267998617841e-05" pbc="T T T"
Br       1.64515761       1.16329565       2.84950174       0.00000449      -0.00001996      -0.00000128
Br       4.93547474       3.48992129       8.54849443       0.00000656       0.00001973      -0.00000313
P        0.00000352      -0.00000400      -0.00000542       0.00000745       0.00000004       0.00000304
O        1.39868859       0.98901906       5.69899222      -0.00233722      -0.00164175       0.00001088
O        5.18194015       3.66419330       5.69899315       0.00232816       0.00164688       0.00001380
O        4.23612860       0.98902103       4.06079872       0.00117457      -0.00165522      -0.00203109
O        2.34449910       3.66419253       7.33719178      -0.00115752       0.00162542       0.00200748
O        2.34450312       3.66419096       4.06079571      -0.00117767       0.00165129      -0.00201845
O        4.23613051       0.98901817       7.33719097       0.00115132      -0.00162435       0.00201726
