9
Lattice="5.0261916272810705 -4.583303880163789e-08 2.901873340071248 1.6753972194731435 4.738738854482503 2.901873247248479 1.0140087936023936e-07 -4.198296142458868e-08 5.803746504511032" Properties=species:S:1:pos:R:3:forces:R:3 energy=-44.61658477783203 free_energy=-44.61658477783203 stress="0.0003361280541867018 3.7914236195035755e-09 -9.516706533929664e-09 3.7914236195035755e-09 0.00033615424763411283 -3.1827084967517294e-08 -9.516706533929664e-09 -3.1827084967517294e-08 0.0003362343704793602" pbc="T T T"
Br       1.67539679       1.18468481       2.90187295      -0.00000444       0.00000218      -0.00000413
Br       5.02619172       3.55405456       8.70561943      -0.00000322       0.00000271      -0.00000375
Re      -0.00000215       0.00000110      -0.00000232      -0.00003163       0.00002124      -0.00003584
O        1.57517398       1.11381580       5.80374686      -0.00638473      -0.00452185       0.00000524
O        5.12641574       3.62492315       5.80374647       0.00639749       0.00451875       0.00000460
O        4.23860539       1.11381557       4.26601416       0.00320017      -0.00452113      -0.00552797
O        2.46298422       3.62492311       7.34147957      -0.00318968       0.00451553       0.00553906
O        2.46298462       3.62492212       4.26601456      -0.00318617       0.00450909      -0.00552320
O        4.23860583       1.11381472       7.34148061       0.00320268      -0.00452721       0.00554562
