9
Lattice="5.098482782275481 2.2644893559014323e-08 2.9436107005871746 1.6994943138073009 4.806895782901361 2.943610645682949 1.1320113374382937e-07 1.2801610431096413e-08 5.887221205104213" Properties=species:S:1:pos:R:3:forces:R:3 energy=-39.66937255859375 free_energy=-39.66937255859375 stress="-0.0004266091273166239 -4.626436478361029e-08 -1.820916217809554e-08 -4.626436478361029e-08 -0.0004265362222213298 1.819750239384632e-09 -1.820916217809554e-08 1.819750239384632e-09 -0.0004265585448592901" pbc="T T T"
Br       1.69949405       1.20172433       2.94361092      -0.00000044       0.00000113       0.00000093
Br       5.09848295       3.60517186       8.83083233       0.00000029       0.00000101       0.00000101
Ru       0.00000001       0.00000011      -0.00000013       0.00000037       0.00000117       0.00000467
O        1.48187792       1.04784572       5.88722112       0.00171417       0.00121093      -0.00000086
O        5.31609967       3.75904961       5.88722092      -0.00171363      -0.00121325      -0.00000111
O        4.35754370       1.04784588       4.22695446      -0.00085545       0.00120902       0.00148046
O        2.44043318       3.75905000       7.54748794       0.00085533      -0.00121045      -0.00148261
O        2.44043323       3.75904986       4.22695442       0.00085625      -0.00121063       0.00148171
O        4.35754408       1.04784588       7.54748786      -0.00085643       0.00121081      -0.00148404
