9
Lattice="5.147214540125095 -2.0667492791592284e-06 2.9717327700959952 1.7157332600924766 4.852854427278565 2.9717379166956035 -1.806927409482753e-05 -6.47365410479069e-06 5.9434968372311285" Properties=species:S:1:pos:R:3:forces:R:3 energy=-36.98078918457031 free_energy=-36.98078918457031 stress="-9.308429434895515e-05 7.96388485468924e-06 -2.804795258271042e-07 7.96388485468924e-06 -9.103304182644933e-05 -2.1259056666167453e-06 -2.804795258271042e-07 -2.1259056666167453e-06 -6.904706970090047e-05" pbc="T T T"
Br       1.71546982       1.21305334       2.97179880      -0.00070681      -0.00034626       0.00008518
Br       5.14752434       3.63964369       8.91528053       0.00081611       0.00012772       0.00007134
Si       0.00000335       0.00002524      -0.00000488      -0.00010165      -0.00001094      -0.00004595
O        1.44419384       1.02124309       5.94342746       0.00311959       0.00224519       0.00005811
O        5.41875481       3.83163424       5.94345116      -0.00327134      -0.00229061      -0.00006313
O        4.42512372       1.02118194       4.22250756      -0.00158137       0.00243884       0.00270402
O        2.43776891       3.83170843       7.66443368       0.00167483      -0.00232989      -0.00272608
O        2.43776682       3.83171015       4.22254400       0.00167799      -0.00215298       0.00255179
O        4.42509794       1.02121200       7.66445808      -0.00162667       0.00231868      -0.00263560
