9
Lattice="4.741152299507232 -1.0084712271828215e-07 2.7373057285690336 1.5803840141475438 4.470001325042024 2.7373057123026614 3.373935336104927e-08 3.935197360894237e-09 5.474611398699793" Properties=species:S:1:pos:R:3:forces:R:3 energy=-29.071636199951172 free_energy=-29.071636199951172 stress="-6.603268957405817e-06 3.176126028847648e-08 8.140601970296757e-09 3.176126028847648e-08 -6.54645691611222e-06 4.292213873213768e-08 8.140601970296757e-09 4.292213873213768e-08 -6.6970865191251505e-06" pbc="T T T"
Br       1.58038413       1.11750080       2.73730561       0.00000102       0.00000303      -0.00000282
Br       4.74115239       3.35250145       8.21191670      -0.00000055       0.00000240      -0.00000198
Se       0.00000018       0.00000041      -0.00000036      -0.00000029       0.00000315      -0.00000242
O        1.54675938       1.09372381       5.47461155      -0.00031579      -0.00022519       0.00000175
O        4.77477679       3.37627692       5.47461146       0.00031614       0.00022292       0.00000152
O        3.96777249       1.09372395       4.07683897       0.00015789      -0.00022638      -0.00027251
O        2.35376379       3.37627681       6.87238434      -0.00015771       0.00022185       0.00027406
O        2.35376383       3.37627678       4.07683892      -0.00015843       0.00022149      -0.00027084
O        3.96777251       1.09372408       6.87238432       0.00015777      -0.00022435       0.00027347
