9
Lattice="5.095550074643214 1.5145952173502043e-08 2.941917221488621 1.6985167069802014 4.804130641847179 2.9419172194919896 -2.2086664123259503e-08 -1.80629474839157e-08 5.883834481232436" Properties=species:S:1:pos:R:3:forces:R:3 energy=-30.586475372314453 free_energy=-30.586475372314453 stress="0.00035130526521243155 2.8461663248435798e-08 -9.897183517182384e-09 2.8461663248435798e-08 0.00035126181319355965 -5.243934175780396e-09 -9.897183517182384e-09 -5.243934175780396e-09 0.00035124330315738916" pbc="T T T"
Br       1.69851789       1.20103202       2.94191732       0.00000387      -0.00000030      -0.00000013
Br       5.09555172       3.60309940       8.82575210       0.00000715       0.00000631       0.00000215
Sn       0.00000050       0.00000068      -0.00000017      -0.00000478      -0.00000716       0.00000183
O        1.71196659       1.21054271       5.88383472      -0.00366074      -0.00258985       0.00000014
O        5.08209927       3.59358795       5.88383479       0.00366819       0.00259700       0.00000000
O        4.23956671       1.21054302       4.42452398       0.00182980      -0.00259152      -0.00317192
O        2.55449908       3.59358747       7.34314443      -0.00183639       0.00259045       0.00317210
O        2.55449896       3.59358696       4.42452388      -0.00183493       0.00258905      -0.00317353
O        4.23956620       1.21054224       7.34314464       0.00182769      -0.00259373       0.00316966
