9
Lattice="5.038979570236795 8.571550244732274e-08 2.9092561645614388 1.679659940165767 4.750795431303674 2.909256160046288 -2.6597436349014208e-08 -2.4337176624268915e-08 5.8185123751910055" Properties=species:S:1:pos:R:3:forces:R:3 energy=-40.6124382019043 free_energy=-40.6124382019043 stress="-4.960387013852596e-05 -6.057602774944826e-08 3.111439328407073e-09 -6.057602774944826e-08 -4.964010076946579e-05 -3.2152353668379874e-08 3.111439328407073e-09 -3.2152353668379874e-08 -4.9580252380110323e-05" pbc="T T T"
Br       1.67966119       1.18770119       2.90925709       0.00000489       0.00000987       0.00000498
Br       5.03897900       3.56309976       8.72776888      -0.00000197       0.00001353       0.00000241
Ti       0.00000031       0.00000079       0.00000048      -0.00000110      -0.00000410      -0.00000378
O        1.58161937       1.11837267       5.81851214      -0.00063753      -0.00045389      -0.00000181
O        5.13702042       3.63242054       5.81851175       0.00064355       0.00044981      -0.00000172
O        4.24816896       1.11837219       4.27897887       0.00031757      -0.00045744      -0.00055537
O        2.47046939       3.63242107       7.35804596      -0.00032301       0.00045210       0.00055632
O        2.47047013       3.63242093       4.27897780      -0.00032216       0.00045004      -0.00055891
O        4.24816930       1.11837318       7.35804568       0.00031967      -0.00045970       0.00055760
