9
Lattice="5.213954623535011 -1.5377450130384745e-07 3.0102778234990977 1.7379846024530285 4.915764585331648 3.0102780436056658 -4.571768290368341e-07 -5.369834067300567e-08 6.020556438851669" Properties=species:S:1:pos:R:3:forces:R:3 energy=-44.57691955566406 free_energy=-44.57691955566406 stress="9.07724243006669e-05 -2.0248221233032382e-07 -1.0042798948006748e-07 -2.0248221233032382e-07 9.09438167582266e-05 1.114381404931919e-07 -1.0042798948006748e-07 1.114381404931919e-07 9.103369666263461e-05" pbc="T T T"
Br       1.73798206       1.22894259       3.01027884      -0.00000615       0.00000808       0.00000974
Br       5.21395080       3.68682331       9.03083314      -0.00000950       0.00000101       0.00000459
Ta       0.00000679       0.00000317       0.00001214      -0.00006544      -0.00005003      -0.00012139
O        1.61867716       1.14457809       6.02055305      -0.00324568      -0.00230123      -0.00001349
O        5.33326355       3.77118643       6.02055163       0.00334105       0.00235757      -0.00001270
O        4.40461303       1.14458013       4.41209241       0.00162461      -0.00230967      -0.00283656
O        2.54732252       3.77118608       7.62901698      -0.00168514       0.00237842       0.00290999
O        2.54732373       3.77118308       4.41209372      -0.00162998       0.00229521      -0.00283113
O        4.40461622       1.14457432       7.62901679       0.00167611      -0.00237930       0.00289097
