9
Lattice="4.970288824147523 -3.083716011397691e-08 2.869597606783006 1.6567628787094493 4.686033044670009 2.869597664979052 -1.2114329782572076e-07 -1.4385936989625705e-08 5.73919542339243" Properties=species:S:1:pos:R:3:forces:R:3 energy=-31.39325714111328 free_energy=-31.39325714111328 stress="0.0005419221706688404 -1.6222728049797297e-08 -9.557469482501801e-09 -1.6222728049797297e-08 0.0005419057561084628 -1.5568883071637174e-08 -9.557469482501801e-09 -1.5568883071637174e-08 0.0005419545923359692" pbc="T T T"
Br       1.65676271       1.17150831       2.86959744      -0.00000201       0.00000090      -0.00000082
Br       4.97028869       3.51452462       8.60879350      -0.00000012      -0.00000046       0.00000083
Te       0.00000011       0.00000003      -0.00000040       0.00000187      -0.00000177       0.00000430
O        1.59948424       1.13100668       5.73919555      -0.00468659      -0.00331247       0.00000061
O        5.02756717       3.55502637       5.73919504       0.00468716       0.00331184      -0.00000139
O        4.17054642       1.13100614       4.25479184       0.00234345      -0.00331512      -0.00405827
O        2.45650521       3.55502689       7.22359894      -0.00234270       0.00331432       0.00405821
O        2.45650519       3.55502697       4.25479197      -0.00234337       0.00331604      -0.00405934
O        4.17054648       1.13100600       7.22359890       0.00234224      -0.00331315       0.00405601
