9
Lattice="5.115113291156357 5.089408660147391e-07 2.953211661727042 1.7050381393072238 4.822575333957642 2.9532118422858153 2.1684208634547725e-08 2.3647141301866582e-07 5.906423285896006" Properties=species:S:1:pos:R:3:forces:R:3 energy=-38.22637939453125 free_energy=-38.22637939453125 stress="3.0551673262380064e-05 2.0014551793678947e-08 -5.182787177204773e-08 2.0014551793678947e-08 3.052642568945885e-05 5.063801111759858e-08 -5.182787177204773e-08 5.063801111759858e-08 3.044841650989838e-05" pbc="T T T"
Br       1.70503896       1.20564367       2.95321161       0.00000310      -0.00000196       0.00000070
Br       5.11511380       3.61693304       8.85963541       0.00000011      -0.00000138       0.00000130
V        0.00000023      -0.00000168       0.00000098      -0.00000157       0.00001908      -0.00000804
O        1.50991500       1.06767211       5.90642289      -0.00422052      -0.00298527      -0.00000009
O        5.31023497       3.75490503       5.90642359       0.00421271       0.00298119      -0.00000119
O        4.36015523       1.06767268       4.26083622       0.00210923      -0.00298411      -0.00365335
O        2.45999618       3.75490438       7.55200945      -0.00210875       0.00298175       0.00364870
O        2.45999548       3.75490351       4.26083653      -0.00210240       0.00297543      -0.00364020
O        4.36015577       1.06767184       7.55201004       0.00210787      -0.00298488       0.00365201
