9
Lattice="5.064394064550869 -2.0128382141047257e-07 2.9239292724877237 1.6881312455852826 4.774756290978465 2.923929133045226 -6.178269924841965e-08 -2.1446860730928298e-07 5.8478586519862406" Properties=species:S:1:pos:R:3:forces:R:3 energy=-39.33000946044922 free_energy=-39.33000946044922 stress="0.000499226909596473 2.741206799328211e-07 1.4299530448624864e-07 2.741206799328211e-07 0.0004991358146071434 -1.961715270226705e-07 1.4299530448624864e-07 -1.961715270226705e-07 0.0004989402368664742" pbc="T T T"
Br       1.68813025       1.19368964       2.92393107      -0.00000404       0.00000064       0.00000365
Br       5.06439273       3.58106688       8.77179047      -0.00000174      -0.00000060       0.00000449
W        0.00000085      -0.00000112      -0.00000390      -0.00001443       0.00000762       0.00003942
O        1.59246076       1.12603964       5.84785735       0.00177956       0.00125808       0.00000333
O        5.16006429       3.64871522       5.84785698      -0.00177151      -0.00125104       0.00000030
O        4.26816386       1.12603998       4.30304101      -0.00089034       0.00125876       0.00154078
O        2.48435991       3.64871929       7.39267857       0.00091350      -0.00129065      -0.00157833
O        2.48436216       3.64871533       4.30304043       0.00088716      -0.00125313       0.00153631
O        4.26816531       1.12603867       7.39267607      -0.00089824       0.00127003      -0.00154990
