9
Lattice="5.895999407510559 -3.006238788023942e-08 3.4040567531345864 1.965333159058825 5.558801356457855 3.404056663821299 5.3050424840242626e-08 -7.187373595845602e-08 6.808113414383137" Properties=species:S:1:pos:R:3:forces:R:3 energy=-32.945613861083984 free_energy=-32.945613861083984 stress="-3.5768284760706592e-06 1.961979201325903e-08 2.2423229939505518e-09 1.961979201325903e-08 -3.5595301142166136e-06 9.575513715276429e-09 2.2423229939505518e-09 9.575513715276429e-09 -3.5824007227347465e-06" pbc="T T T"
Ca       1.96533314       1.38970064       3.40405619      -0.00000096       0.00000073      -0.00000111
Ca       5.89599971       4.16910123      10.21217048       0.00000106       0.00000027       0.00000076
Au      -0.00000014       0.00000027       0.00000008      -0.00000026      -0.00000080      -0.00000076
Se       2.09378394       1.48052860       6.80811354       0.00123394       0.00087237       0.00000019
Se       5.76754898       4.07827231       6.80811326      -0.00123459      -0.00087270      -0.00000003
Se       4.84910752       1.48052840       5.21732657      -0.00061741       0.00087348       0.00106937
Se       3.01222485       4.07827245       8.39890040       0.00061728      -0.00087303      -0.00106961
Se       3.01222496       4.07827269       5.21732633       0.00061774      -0.00087270       0.00106984
Se       4.84910754       1.48052838       8.39890045      -0.00061679       0.00087234      -0.00106850
