9
Lattice="5.569335911196677 1.9320600076203114e-08 3.215457477584785 1.8564453392262685 5.250820091983781 3.215457447657666 1.241465046154174e-07 5.113178065987652e-08 6.430914740141568" Properties=species:S:1:pos:R:3:forces:R:3 energy=-34.06264114379883 free_energy=-34.06264114379883 stress="0.00025449864915572107 1.8360704956421614e-08 -7.250737787956041e-09 1.8360704956421614e-08 0.0002544972230680287 -9.059663241828275e-09 -7.250737787956041e-09 -9.059663241828275e-09 0.00025450967950746417" pbc="T T T"
Ca       1.85644565       1.31270496       3.21545746       0.00000025      -0.00000023       0.00000081
Ca       5.56933608       3.93811532       9.64637237      -0.00000020       0.00000005       0.00000053
Ag      -0.00000013      -0.00000030       0.00000122       0.00000395       0.00000408      -0.00001991
S        1.95874680       1.38504287       6.43091464       0.00484163       0.00342268       0.00000117
S        5.46703490       3.86577784       6.43091455      -0.00484610      -0.00342557       0.00000043
S        4.58996255       1.38504307       4.91178135      -0.00242481       0.00342768       0.00419927
S        2.83581838       3.86577721       7.95004783       0.00242016      -0.00342333      -0.00419074
S        2.83581846       3.86577693       4.91178136       0.00242472      -0.00342825       0.00419939
S        4.58996277       1.38504273       7.95004777      -0.00241986       0.00342298      -0.00419110
