9
Lattice="5.572668517623606 -6.63578443567773e-08 3.2173819232353513 1.857556079841061 5.253962518027582 3.2173819754348743 -3.429184318542212e-08 3.9683075153657024e-08 6.434763905866004" Properties=species:S:1:pos:R:3:forces:R:3 energy=-34.96208572387695 free_energy=-34.96208572387695 stress="-1.369033179798862e-05 2.206895466372316e-08 1.5647753315306545e-08 2.206895466372316e-08 -1.3653398127644323e-05 -3.7961389587337635e-09 1.5647753315306545e-08 -3.7961389587337635e-09 -1.3686345482710749e-05" pbc="T T T"
Ca       1.85755604       1.31349055       3.21738197       0.00000015       0.00000020      -0.00000028
Ca       5.57266841       3.94047204       9.65214591       0.00000021      -0.00000013       0.00000009
Au       0.00000003      -0.00000006       0.00000021       0.00000125       0.00000203       0.00000201
S        1.95990478       1.38586196       6.43476392       0.00012034       0.00008518      -0.00000020
S        5.47031972       3.86810044       6.43476371      -0.00012237      -0.00008643       0.00000021
S        4.59271628       1.38586212       4.91470954      -0.00005999       0.00008518       0.00010449
S        2.83750831       3.86810037       7.95481814       0.00006071      -0.00008667      -0.00010586
S        2.83750874       3.86810049       4.91470960       0.00006032      -0.00008518       0.00010425
S        4.59271593       1.38586194       7.95481818      -0.00006080       0.00008559      -0.00010478
