9
Lattice="4.689968707144913 1.7432243005299606e-07 2.7077545861233387 1.5633230052084224 4.421745379627172 2.707754692689517 -9.791736876683914e-08 6.127828986978003e-08 5.415509341844569" Properties=species:S:1:pos:R:3:forces:R:3 energy=-44.95103454589844 free_energy=-44.95103454589844 stress="-0.00018501949671190232 -1.0389057791826417e-07 -4.2004582923027556e-08 -1.0389057791826417e-07 -0.00018495286349207163 3.9962436915175203e-08 -4.2004582923027556e-08 3.9962436915175203e-08 -0.00018474545504432172" pbc="T T T"
Ca       1.56332291       1.10543643       2.70775464      -0.00000112       0.00000069       0.00000025
Ca       4.68996880       3.31630897       8.12326405       0.00000096      -0.00000043       0.00000056
Au       0.00000003       0.00000002      -0.00000010       0.00000538       0.00000393      -0.00000164
O        1.61981306       1.14538145       5.41550940       0.00074416       0.00052673       0.00000028
O        4.63347841       3.27636440       5.41550925      -0.00074983      -0.00053045      -0.00000014
O        3.88006193       1.14538163       4.11055401      -0.00036921       0.00052318       0.00064075
O        2.37322942       3.27636433       6.72046429       0.00037009      -0.00052339      -0.00064039
O        2.37322986       3.27636417       4.11055430       0.00037089      -0.00052455       0.00064248
O        3.88006203       1.14538104       6.72046446      -0.00037135       0.00052440      -0.00064275
