9
Lattice="4.717802618110563 -4.139459995614816e-08 2.7238246024477855 1.5726008232620323 4.447987014903797 2.723824620485882 -1.210964709541923e-07 -6.353606803901378e-08 5.447649414640869" Properties=species:S:1:pos:R:3:forces:R:3 energy=-43.08561706542969 free_energy=-43.08561706542969 stress="-7.301958976313472e-05 -9.533277989248745e-08 9.742075590679633e-09 -9.533277989248745e-08 -7.29747480363585e-05 3.5829643252327514e-08 9.742075590679633e-09 3.5829643252327514e-08 -7.28206432540901e-05" pbc="T T T"
Ca       1.57260068       1.11199692       2.72382456      -0.00000077      -0.00000078      -0.00000026
Ca       4.71780227       3.33599029       8.17147396       0.00000080       0.00000063      -0.00000027
Ag       0.00000015      -0.00000011      -0.00000008      -0.00000772       0.00000076      -0.00001047
O        1.59307611       1.12647501       5.44764956      -0.00141126      -0.00099844      -0.00000005
O        4.69732705       3.32151183       5.44764931       0.00141561       0.00100100       0.00000029
O        3.92126445       1.12647506       4.10346947       0.00070837      -0.00100264      -0.00122812
O        2.36913907       3.32151179       6.79182925      -0.00070921       0.00100473       0.00123188
O        2.36913911       3.32151205       4.10346923      -0.00070700       0.00099993      -0.00122610
O        3.92126437       1.12647483       6.79182921       0.00071138      -0.00100559       0.00123253
