9
Lattice="5.8542566647641605 9.237826076248561e-08 3.379956399838051 1.9514189545384177 5.519446034552396 3.379956435884422 -9.357540300834774e-08 -2.2020157065985417e-08 6.759912961753521" Properties=species:S:1:pos:R:3:forces:R:3 energy=-32.317012786865234 free_energy=-32.317012786865234 stress="-4.3794381781481206e-05 2.110298780166886e-08 1.6653490808593574e-09 2.110298780166886e-08 -4.3811083742184564e-05 6.5402696591831955e-09 1.6653490808593574e-09 6.5402696591831955e-09 -4.379085294203833e-05" pbc="T T T"
Ca       1.95141875       1.37986131       3.37995661      -0.00000033      -0.00000064      -0.00000007
Ca       5.85425666       4.13958456      10.13986968       0.00000027       0.00000040       0.00000076
Ag      -0.00000007       0.00000017       0.00000031       0.00000071       0.00000057      -0.00000379
Se       2.10230313       1.48655274       6.75991274       0.00063920       0.00045162      -0.00000003
Se       5.70337256       4.03289347       6.75991247      -0.00063998      -0.00045261       0.00000052
Se       4.80310535       1.48655294       5.20060385      -0.00032055       0.00045365       0.00055522
Se       3.00256997       4.03289362       8.31922171       0.00031973      -0.00045207      -0.00055391
Se       3.00257050       4.03289344       5.20060400       0.00032058      -0.00045350       0.00055525
Se       4.80310528       1.48655217       8.31922177      -0.00031962       0.00045270      -0.00055394
