9
Lattice="5.472526533944926 -4.684982548362496e-08 3.159564508335743 1.824175506089555 5.159547440496358 3.159564440880881 -1.4000460432617041e-08 -9.251477398403456e-08 6.319129040920885" Properties=species:S:1:pos:R:3:forces:R:3 energy=-34.96192169189453 free_energy=-34.96192169189453 stress="-0.00021096295677125454 1.2553847739127377e-08 4.297652900220328e-09 1.2553847739127377e-08 -0.0002109876077156514 -1.3809231980133063e-08 4.297652900220328e-09 -1.3809231980133063e-08 -0.00021098351862747222" pbc="T T T"
Ca       1.82417562       1.28988722       3.15956421       0.00000033       0.00000053       0.00000064
Ca       5.47252649       3.86966042       9.47869385      -0.00000046       0.00000023      -0.00000034
Be       0.00000004      -0.00000015      -0.00000061       0.00000017      -0.00000021       0.00000355
Se       1.76903701       1.25089797       6.31912894      -0.00240618      -0.00170183      -0.00000043
Se       5.52766472       3.90864910       6.31912895       0.00240594       0.00170183       0.00000062
Se       4.58800811       1.25089791       4.69159579       0.00120279      -0.00170156      -0.00208396
Se       2.70869410       3.90864914       7.94666260      -0.00120124       0.00170046       0.00208247
Se       2.70869422       3.90864947       4.69159594      -0.00120363       0.00170153      -0.00208503
Se       4.58800777       1.25089815       7.94666232       0.00120267      -0.00170061       0.00208277
