9
Lattice="5.157560341456398 -2.1240246085507777e-07 2.977718188742993 1.7191865957883254 4.862594131026941 2.9777181617960897 -1.5201261390345545e-07 -1.4049217436719308e-07 5.9554366407794825" Properties=species:S:1:pos:R:3:forces:R:3 energy=-37.00128936767578 free_energy=-37.00128936767578 stress="-3.3002837881213054e-05 9.612560347704857e-08 1.4698251504796644e-08 9.612560347704857e-08 -3.297239891253412e-05 -1.9089139158268154e-08 1.4698251504796644e-08 -1.9089139158268154e-08 -3.298067531432025e-05" pbc="T T T"
Ca       1.71918662       1.21564836       2.97771876      -0.00000026       0.00000126      -0.00000005
Ca       5.15756041       3.64694516       8.93315517      -0.00000160      -0.00000095      -0.00000256
Be      -0.00000016      -0.00000064       0.00000001      -0.00000048       0.00000187      -0.00000086
S        1.73162407       1.22444214       5.95543696       0.00069383       0.00049268      -0.00000312
S        5.14512323       3.63815188       5.95543584      -0.00069773      -0.00049469       0.00000068
S        4.29174931       1.22444202       4.47734720      -0.00035153       0.00049725       0.00060557
S        2.58499738       3.63815182       7.43352529       0.00035241      -0.00049393      -0.00060506
S        2.58499739       3.63815201       4.47734723       0.00035234      -0.00049749       0.00060765
S        4.29174860       1.22444224       7.43352497      -0.00034676       0.00049411      -0.00060229
