9
Lattice="6.14349075996219 -4.6851094366925836e-08 3.5469459495700155 2.047830243574954 5.792138714745536 3.546945889942746 3.447218025114291e-08 -4.865276952830729e-08 7.093891839432595" Properties=species:S:1:pos:R:3:forces:R:3 energy=-31.634708404541016 free_energy=-31.634708404541016 stress="-0.00010659716645022854 7.326228956827663e-09 8.237757698204007e-10 7.326228956827663e-09 -0.00010659127292456105 7.879275010225228e-09 8.237757698204007e-10 7.879275010225228e-09 -0.00010659464169293642" pbc="T T T"
Ca       2.04783011       1.44803463       3.54694580      -0.00000023       0.00000017      -0.00000016
Ca       6.14349015       4.34410369      10.64083774      -0.00000037      -0.00000028       0.00000010
Be       0.00000017       0.00000002      -0.00000006      -0.00000251      -0.00000018      -0.00000024
Te       1.95712242       1.38389415       7.09389187       0.00730143       0.00516365       0.00000039
Te       6.23419851       4.40824413       7.09389211      -0.00729963      -0.00516136      -0.00000001
Te       5.16492962       1.38389472       5.24186355      -0.00365037       0.00516257       0.00632158
Te       3.02639176       4.40824421       8.94592019       0.00365011      -0.00516289      -0.00632320
Te       3.02639165       4.40824418       5.24186341       0.00365116      -0.00516351       0.00632347
Te       5.16492969       1.38389471       8.94592009      -0.00364964       0.00516184      -0.00632179
