9
Lattice="4.5813446526728905 2.492070717672907e-07 2.6450406704539398 1.527115018996903 4.319334199277886 2.64504084397439 4.249711822717648e-08 2.425683012698728e-07 5.290081267300642" Properties=species:S:1:pos:R:3:forces:R:3 energy=-49.89783477783203 free_energy=-49.89783477783203 stress="-0.00029939610976725817 -6.651870165796936e-08 -1.3111243646335424e-08 -6.651870165796936e-08 -0.0002994797832798213 -3.431707185086452e-08 -1.3111243646335424e-08 -3.431707185086452e-08 -0.0002993478556163609" pbc="T T T"
Ca       1.52711467       1.07983346       2.64504102       0.00000010       0.00000055      -0.00000103
Ca       4.58134497       3.23950117       7.93512153       0.00000040      -0.00000064       0.00000020
Co       0.00000014      -0.00000031      -0.00000001      -0.00000053      -0.00000402       0.00000436
O        1.48116410       1.04734188       5.29008167       0.00125751       0.00088975       0.00000013
O        4.62729594       3.27199318       5.29008186      -0.00125626      -0.00088833      -0.00000021
O        3.84076342       1.04734088       3.92776648      -0.00062864       0.00088859       0.00108814
O        2.26769706       3.27199337       6.65239642       0.00062864      -0.00088854      -0.00108853
O        2.26769577       3.27199325       3.92776652       0.00062716      -0.00088800       0.00108650
O        3.84076292       1.04734180       6.65239605      -0.00062822       0.00089033      -0.00108951
