9
Lattice="4.887456057558294 5.1491560787190606e-08 2.821773701701377 1.629152021921325 4.607937220308868 2.821773781049126 -2.7959400543028605e-08 7.741049898031474e-08 5.643547451829868" Properties=species:S:1:pos:R:3:forces:R:3 energy=-40.543190002441406 free_energy=-40.543190002441406 stress="0.00025856553111225367 -4.081524309640372e-07 -2.0047964710556698e-07 -4.081524309640372e-07 0.0002586885530035943 2.479689555912046e-07 -2.0047964710556698e-07 2.479689555912046e-07 0.0002592066302895546" pbc="T T T"
Ca       1.62915198       1.15198436       2.82177349      -0.00000088      -0.00000129       0.00000197
Ca       4.88745616       3.45595284       8.46532100       0.00000046       0.00000264       0.00000314
Cd      -0.00000028       0.00000019       0.00000028       0.00002412      -0.00001000       0.00002378
O        1.56069552       1.10357832       5.64354697      -0.00545156      -0.00385201       0.00000706
O        4.95591274       3.50435969       5.64354718       0.00543296       0.00384045       0.00000586
O        4.10710759       1.10357863       4.17337692       0.00274736      -0.00387776      -0.00475073
O        2.40949951       3.50435983       7.11371833      -0.00272995       0.00386071       0.00473809
O        2.40950046       3.50435807       4.17337579      -0.00273842       0.00387406      -0.00474262
O        4.10710863       1.10357751       7.11371887       0.00271618      -0.00383651       0.00471449
