9
Lattice="5.263472548211867 -3.850930884024383e-07 3.0388665797483463 1.7544905890288671 4.962448558255695 3.0388664018768345 -1.5801719650435214e-07 -3.295822585765199e-07 6.077733433190522" Properties=species:S:1:pos:R:3:forces:R:3 energy=-39.16194152832031 free_energy=-39.16194152832031 stress="5.336601680028252e-05 2.7893737097883786e-08 5.875476105643429e-08 2.7893737097883786e-08 5.335571404430084e-05 1.1357395912625634e-08 5.875476105643429e-08 1.1357395912625634e-08 5.349550337996334e-05" pbc="T T T"
Ca       1.75449092       1.24061193       3.03886664      -0.00000178      -0.00000105      -0.00000230
Ca       5.26347245       3.72183568       9.11659975      -0.00000019       0.00000154      -0.00000022
C       -0.00000799       0.00000017       0.00000333      -0.00022544       0.00001301       0.00009286
S        1.63251671       1.15436403       6.07773271      -0.00101393      -0.00071335       0.00000151
S        5.38545187       3.80808892       6.07773299       0.00116992       0.00083250       0.00000483
S        4.44721618       1.15435931       4.45266196       0.00057885      -0.00082728      -0.00101274
S        2.57074958       3.80808419       7.70279956      -0.00051054       0.00071543       0.00088352
S        2.57074728       3.80808564       4.45266508      -0.00054526       0.00076070      -0.00093210
S        4.44721495       1.15436099       7.70280335       0.00054806      -0.00078151       0.00096470
