9
Lattice="5.686636588031746 -7.774047974346903e-08 3.2831814890876627 1.8955454050570946 5.361412338484165 3.2831815774090534 -8.852278103999261e-08 4.5576166492355156e-08 6.56636313150123" Properties=species:S:1:pos:R:3:forces:R:3 energy=-34.18804931640625 free_energy=-34.18804931640625 stress="-3.806254608207382e-05 4.057754132702485e-09 -7.3032815350870806e-09 4.057754132702485e-09 -3.8068446883698925e-05 4.264645081519802e-09 -7.3032815350870806e-09 4.264645081519802e-09 -3.810017369687557e-05" pbc="T T T"
Ca       1.89554547       1.34035293       3.28318173      -0.00000012      -0.00000012      -0.00000021
Ca       5.68663643       4.02105928       9.84954439       0.00000003       0.00000020       0.00000001
Cu       0.00000006       0.00000008       0.00000030      -0.00000046      -0.00000030      -0.00000116
Se       1.98480321       1.40346774       6.56636300      -0.00160655      -0.00113568       0.00000093
Se       5.59737875       3.95794414       6.56636301       0.00160888       0.00113836       0.00000014
Se       4.69423439       1.40346793       5.00207192       0.00080392      -0.00113821      -0.00139254
Se       2.88794717       3.95794453       8.13065416      -0.00080402       0.00113600       0.00139186
Se       2.88794723       3.95794440       5.00207191      -0.00080429       0.00113720      -0.00139204
Se       4.69423491       1.40346814       8.13065437       0.00080261      -0.00113752       0.00139314
