9
Lattice="5.5765507633604265 1.0222684748276064e-07 3.2196231986736796 1.8588500397702536 5.257623050961536 3.21962373745173 -1.9899896557649864e-08 6.457942464685605e-07 6.439246431814977" Properties=species:S:1:pos:R:3:forces:R:3 energy=-31.527664184570312 free_energy=-31.527664184570312 stress="5.77224709559232e-05 1.854369457987559e-08 -7.233216336999249e-08 1.854369457987559e-08 5.772514487034641e-05 -2.4958003663755335e-08 -7.233216336999249e-08 -2.4958003663755335e-08 5.778504419140518e-05" pbc="T T T"
Ca       1.85884954       1.31440554       3.21962330      -0.00000127      -0.00000038       0.00000089
Ca       5.57655133       3.94321673       9.65886916       0.00000150      -0.00000069      -0.00000098
Cd       0.00000023      -0.00000014       0.00000021       0.00000027      -0.00000274       0.00000051
S        1.99371841       1.40977363       6.43924741      -0.00048298      -0.00033993       0.00000337
S        5.44168127       3.84785134       6.43924953       0.00048447       0.00034350       0.00000709
S        4.57969182       1.40977361       4.94623448       0.00024304      -0.00034186      -0.00041974
S        2.85570919       3.84785230       7.93225689      -0.00024438       0.00034750       0.00041816
S        2.85570900       3.84784954       4.94623457      -0.00024340       0.00033796      -0.00042278
S        4.57969226       1.40977260       7.93225807       0.00024295      -0.00034353       0.00041369
