9
Lattice="5.681824961334726 2.9896621948840505e-08 3.2804032125938267 1.893941692375666 5.3568760902301955 3.2804031945621572 1.72077026751334e-08 -9.916590785267173e-09 6.560806395383079" Properties=species:S:1:pos:R:3:forces:R:3 energy=-38.56694793701172 free_energy=-38.56694793701172 stress="3.29265026266512e-06 -4.60934979074068e-09 3.450038699170932e-09 -4.60934979074068e-09 3.281817953393329e-06 -4.443767576134405e-09 3.450038699170932e-09 -4.443767576134405e-09 3.290757831564406e-06" pbc="T T T"
Ca       1.89394191       1.33921898       3.28040299       0.00000063      -0.00000009      -0.00000053
Ca       5.68182487       4.01765703       9.84120995      -0.00000047      -0.00000077       0.00000044
Co      -0.00000018      -0.00000027      -0.00000022       0.00000079       0.00000161       0.00000163
Se       1.90373864       1.34614666       6.56080633       0.00031923       0.00022572       0.00000094
Se       5.67202801       4.01072964       6.56080641      -0.00032012      -0.00022669       0.00000064
Se       4.72995576       1.34614688       4.92908913      -0.00015885       0.00022571       0.00027707
Se       2.84581100       4.01072945       8.19252359       0.00016027      -0.00022739      -0.00027803
Se       2.84581104       4.01072954       4.92908954       0.00015908      -0.00022493       0.00027615
Se       4.72995562       1.34614662       8.19252350      -0.00016042       0.00022674      -0.00027843
