9
Lattice="5.393366090581111 2.984783557997692e-07 3.1138614711410098 1.7977889248712444 5.084914915217977 3.1138615636277054 5.326848543462336e-08 1.5093921073833966e-07 6.227722850018154" Properties=species:S:1:pos:R:3:forces:R:3 energy=-44.809715270996094 free_energy=-44.809715270996094 stress="-4.0062157495412976e-05 2.33127543936007e-08 4.650892559965314e-09 2.33127543936007e-08 -4.017423270852305e-05 1.4729241826216821e-08 4.650892559965314e-09 1.4729241826216821e-08 -4.017006722278893e-05" pbc="T T T"
Ca       1.79778925       1.27122852       3.11386152      -0.00000037       0.00000043      -0.00000096
Ca       5.39336598       3.81368670       9.34158451       0.00000034      -0.00000079      -0.00000035
Cr      -0.00000006      -0.00000007      -0.00000005      -0.00000093       0.00000046       0.00000329
S        1.81948956       1.28657372       6.22772316       0.00123006       0.00087053       0.00000166
S        5.37166515       3.79834194       6.22772302      -0.00122947      -0.00086984       0.00000141
S        4.48362135       1.28657384       4.68958583      -0.00061494       0.00086999       0.00106558
S        2.70753330       3.79834221       7.76586024       0.00061700      -0.00087392      -0.00106838
S        2.70753384       3.79834137       4.68958519       0.00061521      -0.00087035       0.00106618
S        4.48362168       1.28657341       7.76586019      -0.00061721       0.00087333      -0.00106868
