9
Lattice="6.183750521105033 1.3327739193064534e-07 3.57018987913018 2.061250211349859 5.830095841418252 3.5701900315625594 -1.4946332728636992e-07 8.100429850687908e-08 7.14038001713848" Properties=species:S:1:pos:R:3:forces:R:3 energy=-31.562814712524414 free_energy=-31.562814712524414 stress="-2.1057046978967264e-05 1.0936759942126173e-08 -1.7320395118147758e-09 1.0936759942126173e-08 -2.1056543118902482e-05 5.22843057737532e-09 -1.7320395118147758e-09 5.22843057737532e-09 -2.1078090867376886e-05" pbc="T T T"
Ca       2.06125003       1.45752458       3.57018993       0.00000001      -0.00000021      -0.00000007
Ca       6.18375029       4.37257176      10.71056973      -0.00000008       0.00000021      -0.00000019
Cu      -0.00000015       0.00000095       0.00000069       0.00000010      -0.00000388      -0.00000061
Te       2.17664853       1.53912281       7.14037997      -0.00159238      -0.00112609       0.00000023
Te       6.06835229       4.29097259       7.14037982       0.00159334       0.00112695       0.00000007
Te       5.09542614       1.53912318       5.45522240       0.00079577      -0.00112553      -0.00137828
Te       3.14957456       4.29097267       8.82553733      -0.00079670       0.00112686       0.00137983
Te       3.14957431       4.29097252       5.45522249      -0.00079610       0.00112670      -0.00137909
Te       5.09542636       1.53912317       8.82553734       0.00079603      -0.00112507       0.00137801
