9
Lattice="5.867566904438322 7.734745707722493e-08 3.3876414780560604 1.9558556863071124 5.531995236445185 3.3876415151730837 1.334211248073148e-07 1.3980189938980144e-07 6.775282725019968" Properties=species:S:1:pos:R:3:forces:R:3 energy=-30.192386627197266 free_energy=-30.192386627197266 stress="-1.737439197313506e-05 1.8584172423175005e-08 -3.165591166975901e-08 1.8584172423175005e-08 -1.7401756849722005e-05 -2.6466247859957548e-08 -3.165591166975901e-08 -2.6466247859957548e-08 -1.7389111235388555e-05" pbc="T T T"
Ca       1.95585551       1.38299919       3.38764215      -0.00000007       0.00000043       0.00000179
Ca       5.86756769       4.14899672      10.16292372       0.00000088      -0.00000025      -0.00000135
Cd       0.00000021       0.00000019       0.00000014      -0.00000217      -0.00000126       0.00000049
Se       2.16449508       1.53052921       6.77528254      -0.00392306      -0.00277483      -0.00000062
Se       5.65892738       4.00146574       6.77528330       0.00392559       0.00277534       0.00000057
Se       4.78531929       1.53052869       5.26214903       0.00196159      -0.00277510      -0.00339806
Se       3.03810332       4.00146659       8.28841637      -0.00196284       0.00277561       0.00339779
Se       3.03810268       4.00146599       5.26214895      -0.00196259       0.00277451      -0.00339940
Se       4.78531981       1.53052939       8.28841654       0.00196287      -0.00277439       0.00339860
