9
Lattice="6.240132208328734 -1.6359204621761635e-07 3.602741972829633 2.0800439666601007 5.883252559583301 3.602741883710156 -1.619224149392797e-08 -1.2059832184725707e-07 7.205483973705077" Properties=species:S:1:pos:R:3:forces:R:3 energy=-37.88063049316406 free_energy=-37.88063049316406 stress="-3.907708560291212e-06 1.3933821207956498e-08 -4.49114212486279e-09 1.3933821207956498e-08 -3.923029908037279e-06 2.964147149953078e-09 -4.49114212486279e-09 2.964147149953078e-09 -3.926524641428841e-06" pbc="T T T"
Ca       2.08004427       1.47081311       3.60274162       0.00000029       0.00000047      -0.00000023
Ca       6.24013198       4.41243918      10.80822571      -0.00000032      -0.00000021      -0.00000019
Cr       0.00000009      -0.00000011      -0.00000030      -0.00000010       0.00000175       0.00000453
Te       2.16371026       1.52997385       7.20548386       0.00033150       0.00023543       0.00000045
Te       6.15646584       4.35327856       7.20548418      -0.00033354      -0.00023636      -0.00000003
Te       5.15827713       1.52997377       5.47656991      -0.00016498       0.00023480       0.00028828
Te       3.16189890       4.35327843       8.93439825       0.00016785      -0.00023859      -0.00029173
Te       3.16189911       4.35327864       5.47656975       0.00016660      -0.00023514       0.00028968
Te       5.15827700       1.52997364       8.93439828      -0.00016735       0.00023786      -0.00029078
