9
Lattice="5.744812898101937 -2.308483841268116e-08 3.316769270441958 1.9149376386871364 5.416261304494886 3.316769222375623 3.45880480528585e-08 -3.441152618680667e-08 6.633538480975674" Properties=species:S:1:pos:R:3:forces:R:3 energy=-41.25425720214844 free_energy=-41.25425720214844 stress="-1.818494638428092e-05 1.2431093487919043e-08 3.8738985352893e-09 1.2431093487919043e-08 -1.820072066038847e-05 -1.929354098706426e-08 3.8738985352893e-09 -1.929354098706426e-08 -1.8202734281658195e-05" pbc="T T T"
Ca       1.91493783       1.35406525       3.31676954       0.00000051       0.00000053       0.00000033
Ca       5.74481285       4.06219608       9.95030756      -0.00000007      -0.00000036      -0.00000010
Cr       0.00000006      -0.00000002       0.00000041       0.00000139      -0.00000019       0.00000087
Se       1.97651516       1.39760683       6.63353836       0.00554043       0.00391732       0.00000088
Se       5.68323542       4.01865422       6.63353837      -0.00554105      -0.00391822       0.00000045
Se       4.75655519       1.39760727       5.02848112      -0.00276958       0.00391721       0.00479989
Se       2.90319501       4.01865431       8.23859573       0.00277108      -0.00391950      -0.00480026
Se       2.90319508       4.01865400       5.02848128       0.00276841      -0.00391562       0.00479813
Se       4.75655571       1.39760708       8.23859551      -0.00277108       0.00391875      -0.00480031
