9
Lattice="4.562876493627561 -6.884921856471515e-08 2.634378233041975 1.5209587571515855 4.3019213435919985 2.634378248883297 2.724664097930994e-08 3.866783132868737e-08 5.268756418891433" Properties=species:S:1:pos:R:3:forces:R:3 energy=-46.89120101928711 free_energy=-46.89120101928711 stress="-0.000632774957921356 -6.875722391441741e-08 -5.262979030362658e-08 -6.875722391441741e-08 -0.0006327801966108382 1.88206605855612e-08 -5.262979030362658e-08 1.88206605855612e-08 -0.0006326697184704244" pbc="T T T"
Ca       1.52095852       1.07547996       2.63437843       0.00000153      -0.00000092      -0.00000002
Ca       4.56287650       3.22644095       7.90313441      -0.00000020       0.00000067       0.00000150
Cu      -0.00000022      -0.00000001       0.00000066       0.00000425      -0.00000205      -0.00001441
O        1.53379797       1.08455880       5.26875664      -0.00605667      -0.00428315      -0.00000193
O        4.55003725       3.21736280       5.26875652       0.00605515       0.00428139      -0.00000039
O        3.79597776       1.08455892       3.96268638       0.00302507      -0.00427933      -0.00524116
O        2.28785819       3.21736200       6.57482590      -0.00303241       0.00428836       0.00525180
O        2.28785771       3.21736285       3.96268655      -0.00302685       0.00427899      -0.00524241
O        3.79597737       1.08455905       6.57482620       0.00303010      -0.00428411       0.00524725
