9
Lattice="5.373812095511639 9.101386455956963e-08 3.102571997608061 1.791270706592012 5.0664793931878505 3.1025721322240774 -3.048195419867292e-09 1.6271487325405094e-07 6.205144000495797" Properties=species:S:1:pos:R:3:forces:R:3 energy=-36.48088073730469 free_energy=-36.48088073730469 stress="-8.732250717002898e-05 6.261530849371866e-09 -1.2010548111618391e-08 6.261530849371866e-09 -8.735289884498343e-05 -1.142550143384824e-08 -1.2010548111618391e-08 -1.142550143384824e-08 -8.73211829457432e-05" pbc="T T T"
Ca       1.79127098       1.26662009       3.10257220       0.00000011       0.00000031      -0.00000007
Ca       5.37381175       3.79985939       9.30771595       0.00000023      -0.00000022       0.00000010
Cu      -0.00000008       0.00000014      -0.00000024      -0.00000058       0.00000064       0.00000125
S        1.84838487       1.30700556       6.20514419       0.00218797       0.00154734      -0.00000054
S        5.31669810       3.75947380       6.20514473      -0.00218880      -0.00154734      -0.00000002
S        4.44961947       1.30700569       4.70332003      -0.00109488       0.00154775       0.00189424
S        2.71546301       3.75947379       7.70696779       0.00109443      -0.00154740      -0.00189584
S        2.71546327       3.75947394       4.70332016       0.00109515      -0.00154805       0.00189555
S        4.44961993       1.30700608       7.70696771      -0.00109348       0.00154704      -0.00189495
