9
Lattice="6.137907217606437 -4.825253227953483e-07 3.5437221951850395 2.045968737775104 5.786873564433266 3.5437219870464314 2.8260831843158112e-08 -2.3493328313992124e-07 7.08744434142081" Properties=species:S:1:pos:R:3:forces:R:3 energy=-35.39335250854492 free_energy=-35.39335250854492 stress="4.282087320461869e-05 4.791389951463998e-09 1.2851854691575681e-08 4.791389951463998e-09 4.286470357328653e-05 -1.5010154896799577e-08 1.2851854691575681e-08 -1.5010154896799577e-08 4.2839707020903006e-05" pbc="T T T"
Ca       2.04596926       1.44671783       3.54372225       0.00000026      -0.00000038       0.00000030
Ca       6.13790727       4.34015519      10.63116620      -0.00000011       0.00000051       0.00000009
Co       0.00000020       0.00000018       0.00000027      -0.00000393      -0.00000104      -0.00000158
Te       2.04251528       1.44427488       7.08744432      -0.00016222      -0.00011353      -0.00000001
Te       6.14136038       4.34259762       7.08744422       0.00016525       0.00011644       0.00000059
Te       5.11664923       1.44427559       5.31259191       0.00008185      -0.00011562      -0.00014129
Te       3.06722639       4.34259739       8.86229665      -0.00008142       0.00011495       0.00014109
Te       3.06722680       4.34259730       5.31259198      -0.00008209       0.00011587      -0.00014137
Te       5.11664912       1.44427539       8.86229637       0.00008241      -0.00011725       0.00014230
