9
Lattice="6.449006245452113 -7.656905064779486e-08 3.7233353781570018 2.1496686172693695 6.080181268835633 3.723335480390815 -6.759417333629828e-08 7.741405964652782e-08 7.44667087339047" Properties=species:S:1:pos:R:3:forces:R:3 energy=-28.0928955078125 free_energy=-28.0928955078125 stress="4.399063982418738e-05 -8.568509457518303e-09 -3.655806324331934e-09 -8.568509457518303e-09 4.399215686134994e-05 1.739452470950198e-09 -3.655806324331934e-09 1.739452470950198e-09 4.399266981636174e-05" pbc="T T T"
Ca       2.14966850       1.52004499       3.72333548      -0.00000046      -0.00000065       0.00000020
Ca       6.44900628       4.56013560      11.17000607      -0.00000010      -0.00000002      -0.00000095
Cd       0.00000020       0.00000003       0.00000066      -0.00000141      -0.00000037      -0.00000395
Te       2.34863538       1.66073610       7.44667082       0.00135744       0.00095984       0.00000040
Te       6.25003890       4.41944501       7.44667096      -0.00135514      -0.00095811      -0.00000013
Te       5.27468840       1.66073633       5.75731304      -0.00067854       0.00095901       0.00117514
Te       3.32398643       4.41944493       9.13602825       0.00067732      -0.00095806      -0.00117287
Te       3.32398644       4.41944545       5.75731345       0.00067870      -0.00095972       0.00117588
Te       5.27468867       1.66073664       9.13602816      -0.00067784       0.00095809      -0.00117382
