9
Lattice="6.155821089851754 -9.197004167822594e-09 3.5540649332289878 2.051940331415221 5.803763840726326 3.5540649734084737 -5.317258342806211e-08 1.1610956908096575e-08 7.1081299585555735" Properties=species:S:1:pos:R:3:forces:R:3 energy=-36.923011779785156 free_energy=-36.923011779785156 stress="-6.723411161146942e-07 -6.252883988366875e-09 -6.773299698892288e-09 -6.252883988366875e-09 -6.808488137721724e-07 6.860219503579401e-09 -6.773299698892288e-09 6.860219503579401e-09 -6.838058652647305e-07" pbc="T T T"
Ca       2.05194038       1.45094084       3.55406478      -0.00000043       0.00000005       0.00000014
Ca       6.15582102       4.35282296      10.66219495       0.00000039      -0.00000004       0.00000014
Fe       0.00000006       0.00000018       0.00000027      -0.00000380      -0.00000364      -0.00000999
Te       1.98007292       1.40012342       7.10812990       0.00010262       0.00007240       0.00000029
Te       6.22768818       4.40364034       7.10812992      -0.00009871      -0.00006944       0.00000001
Te       5.16578478       1.40012328       5.26885901      -0.00005156       0.00007269       0.00008877
Te       3.04197678       4.40364049       8.94740085       0.00004846      -0.00006842      -0.00008403
Te       3.04197696       4.40364069       5.26885894       0.00005209      -0.00007267       0.00008923
Te       5.16578436       1.40012320       8.94740082      -0.00004905       0.00006919      -0.00008447
