9
Lattice="5.408316122214661 -1.5685716986855382e-07 3.1224927656316313 1.8027718765279137 5.099009515171399 3.122492793905478 -2.211603919561333e-07 -1.217557008547837e-07 6.2449859143242925" Properties=species:S:1:pos:R:3:forces:R:3 energy=-43.889984130859375 free_energy=-43.889984130859375 stress="-7.97906905063428e-05 -4.980031675927421e-08 2.5981846007994136e-08 -4.980031675927421e-08 -7.971670129336417e-05 -1.4772740364321635e-08 2.5981846007994136e-08 -1.4772740364321635e-08 -7.971563172759488e-05" pbc="T T T"
Ca       1.80277197       1.27475286       3.12249245       0.00000018      -0.00000029       0.00000065
Ca       5.40831563       3.82425646       9.36747886      -0.00000014       0.00000007      -0.00000088
Fe      -0.00000016      -0.00000026       0.00000010      -0.00000048       0.00000306      -0.00000636
S        1.78065108       1.25911029       6.24498567       0.00385636       0.00272736       0.00000094
S        5.43043648       3.83989889       6.24498597      -0.00385541      -0.00272685      -0.00000089
S        4.51799023       1.25911009       4.66458230      -0.00192702       0.00272605       0.00333792
S        2.69309768       3.83989901       7.82538916       0.00192550      -0.00272575      -0.00333643
S        2.69309780       3.83989867       4.66458239       0.00192669      -0.00272506       0.00333738
S        4.51799044       1.25911084       7.82538881      -0.00192553       0.00272116      -0.00333196
