9
Lattice="5.739226493743097 6.52281318348486e-08 3.313543883188512 1.913075569323544 5.410994539763948 3.3135438660212992 2.1835360792364513e-08 -5.585500881540267e-09 6.627087728557039" Properties=species:S:1:pos:R:3:forces:R:3 energy=-40.72698211669922 free_energy=-40.72698211669922 stress="-1.9720815544133075e-05 8.234266601903073e-09 6.312171674238698e-09 8.234266601903073e-09 -1.9692544810823165e-05 -9.517033383588114e-09 6.312171674238698e-09 -9.517033383588114e-09 -1.9676046576933004e-05" pbc="T T T"
Ca       1.91307528       1.35274886       3.31354361      -0.00000010       0.00000043      -0.00000067
Ca       5.73922679       4.05824581       9.94063130       0.00000042       0.00000021      -0.00000097
Fe      -0.00000005      -0.00000004       0.00000014       0.00000401      -0.00000188      -0.00000204
Se       1.86769218       1.32065769       6.62708768       0.00063956       0.00045164      -0.00000044
Se       5.78460988       4.09033697       6.62708789      -0.00064060      -0.00045291       0.00000005
Se       4.80538072       1.32065764       4.93101286      -0.00032201       0.00045428       0.00055647
Se       2.84692178       4.09033648       8.32316275       0.00031866      -0.00045079      -0.00055218
Se       2.84692147       4.09033686       4.93101296       0.00031945      -0.00045249       0.00055343
Se       4.80538033       1.32065812       8.32316260      -0.00031941       0.00045125      -0.00055337
