9
Lattice="6.362402481447795 -1.6550528384955715e-07 3.6733347685710394 2.1208007140570304 5.998530584810104 3.6733346941835197 -5.124799754129759e-10 -9.146815308465564e-08 7.34666953802978" Properties=species:S:1:pos:R:3:forces:R:3 energy=-31.850858688354492 free_energy=-31.850858688354492 stress="-0.0001737646816764027 -6.519399686766292e-09 2.694132472669253e-09 -6.519399686766292e-09 -0.00017375248717144132 -4.1845833465004034e-09 2.694132472669253e-09 -4.1845833465004034e-09 -0.00017375347670167685" pbc="T T T"
Ca       2.12080155       1.49963268       3.67333505       0.00000165       0.00000058       0.00000051
Ca       6.36240143       4.49889737      11.02000349      -0.00000209      -0.00000037      -0.00000101
Ge      -0.00000005      -0.00000015       0.00000017       0.00000013       0.00000100      -0.00000005
Te       2.25863527       1.59709616       7.34666928      -0.00279209      -0.00197332      -0.00000065
Te       6.22456808       4.40143436       7.34666992       0.00279135       0.00197309       0.00000047
Te       5.23308432       1.59709637       5.62936983       0.00139597      -0.00197355      -0.00241761
Te       3.25011886       4.40143373       9.06396926      -0.00139533       0.00197355       0.00241742
Te       3.25011890       4.40143405       5.62936986      -0.00139609       0.00197381      -0.00241750
Te       5.23308443       1.59709668       9.06396906       0.00139648      -0.00197482       0.00241838
