9
Lattice="5.607059474540074 1.3022823136273173e-07 3.2372371627431744 1.8690199858729966 5.286386236437025 3.2372370964992383 5.992810256164672e-08 -3.8756357424798515e-08 6.474474221687782" Properties=species:S:1:pos:R:3:forces:R:3 energy=-38.55491638183594 free_energy=-38.55491638183594 stress="-9.172717545880005e-05 2.0585153137631096e-08 3.5846646539994254e-08 2.0585153137631096e-08 -9.168135875370353e-05 -2.63232138308922e-08 3.5846646539994254e-08 -2.63232138308922e-08 -9.179851622320712e-05" pbc="T T T"
Ca       1.86902009       1.32159681       3.23723714      -0.00000050       0.00000005      -0.00000032
Ca       5.60705944       3.96478969       9.71171165      -0.00000023       0.00000097       0.00000019
Ge       0.00000005       0.00000003      -0.00000090      -0.00000321       0.00000148       0.00001412
S        1.89586480       1.34057849       6.47447417       0.00478792       0.00338620       0.00000018
S        5.58021470       3.94580756       6.47447417      -0.00478679      -0.00338411       0.00000058
S        4.65912767       1.34057894       4.87910412      -0.00239140       0.00338376       0.00414330
S        2.81695161       3.94580779       8.06984481       0.00239828      -0.00339323      -0.00415421
S        2.81695227       3.94580747       4.87910401       0.00239110      -0.00338310       0.00414443
S        4.65912749       1.34057857       8.06984472      -0.00239474       0.00338811      -0.00414813
