9
Lattice="5.853350801519783 1.6954629522084416e-10 3.379433804858204 1.9511168785379418 5.518592155511274 3.379433900921009 -9.788694723058516e-09 1.1073072989099901e-07 6.758867626670843" Properties=species:S:1:pos:R:3:forces:R:3 energy=-35.57129669189453 free_energy=-35.57129669189453 stress="-3.0048183816688834e-06 9.358906538636802e-09 -1.3162400058774892e-09 9.358906538636802e-09 -3.024219950020779e-06 6.1051319555360806e-09 -1.3162400058774892e-09 6.1051319555360806e-09 -3.047627160412958e-06" pbc="T T T"
Ca       1.95111682       1.37964779       3.37943385       0.00000033      -0.00000027       0.00000027
Ca       5.85335083       4.13894427      10.13830151      -0.00000010      -0.00000030      -0.00000018
Ge      -0.00000006       0.00000005       0.00000010       0.00000052      -0.00000278      -0.00000066
Se       2.00416926       1.41716188       6.75886775       0.00048739       0.00034408       0.00000027
Se       5.80029843       4.10143052       6.75886776      -0.00048670      -0.00034380       0.00000001
Se       4.85126618       1.41716159       5.11509518      -0.00024414       0.00034611       0.00042377
Se       2.95320141       4.10143087       8.40263987       0.00024319      -0.00034374      -0.00042126
Se       2.95320133       4.10143055       5.11509533       0.00024393      -0.00034505       0.00042149
Se       4.85126645       1.41716159       8.40264003      -0.00024466       0.00034575      -0.00042371
