9
Lattice="4.696611945859361 2.2410532863303903e-07 2.711590035133429 1.5655374999757903 4.428008228226364 2.7115900812045 6.351580107337288e-08 1.0133784449625587e-07 5.42317996025422" Properties=species:S:1:pos:R:3:forces:R:3 energy=-40.45235061645508 free_energy=-40.45235061645508 stress="4.801657632924616e-05 3.8668943602715444e-08 3.178720575647276e-08 3.8668943602715444e-08 4.792339677806012e-05 -2.801862208912098e-08 3.178720575647276e-08 -2.801862208912098e-08 4.7924833779688925e-05" pbc="T T T"
Ca       1.56553726       1.10700205       2.71159021       0.00000090       0.00000092      -0.00000023
Ca       4.69661239       3.32100652       8.13476977       0.00000003      -0.00000047       0.00000157
Hg       0.00000017      -0.00000004       0.00000029      -0.00000086       0.00000418      -0.00001314
O        1.69764552       1.20041681       5.42318011       0.00061858       0.00043711      -0.00000006
O        4.56450421       3.22759156       5.42317960      -0.00062117      -0.00043961       0.00000142
O        3.84778963       1.20041655       4.18179330      -0.00031234       0.00044000       0.00054270
O        2.41435990       3.22759228       6.66456671       0.00031208      -0.00043911      -0.00053790
O        2.41435983       3.22759177       4.18179379       0.00031216      -0.00044152       0.00054246
O        3.84778930       1.20041656       6.66456649      -0.00030938       0.00043842      -0.00053668
