9
Lattice="6.450336147646446 -7.641817531699695e-12 3.7241032713619053 2.150112065223019 6.081435133206256 3.724103243623577 2.8329472948531357e-08 -1.3940459613252888e-08 7.448206493655797" Properties=species:S:1:pos:R:3:forces:R:3 energy=-26.95492172241211 free_energy=-26.95492172241211 stress="7.392341103695799e-06 -1.7676794472620827e-09 3.6104528255975765e-09 -1.7676794472620827e-09 7.382823696389096e-06 -4.580552825927953e-09 3.6104528255975765e-09 -4.580552825927953e-09 7.383560841844883e-06" pbc="T T T"
Ca       2.15011246       1.52035870       3.72410345       0.00000001      -0.00000027      -0.00000016
Ca       6.45033597       4.56107659      11.17230981       0.00000005      -0.00000001       0.00000015
Hg       0.00000007       0.00000017      -0.00000009      -0.00000034      -0.00000132      -0.00000002
Te       2.35966868       1.66853747       7.44820645       0.00003123       0.00002186       0.00000022
Te       6.24077917       4.41289743       7.44820634      -0.00002989      -0.00002071       0.00000054
Te       5.27050163       1.66853804       5.76763647      -0.00001538       0.00002135       0.00002721
Te       3.32994647       4.41289717       9.12877657       0.00001554      -0.00002223      -0.00002652
Te       3.32994689       4.41289716       5.76763651       0.00001465      -0.00002068       0.00002578
Te       5.27050158       1.66853777       9.12877656      -0.00001584       0.00002192      -0.00002709
