9
Lattice="5.939025446258225 -7.839599427637325e-08 3.428898220671402 1.9796750869609696 5.599367099093309 3.4288981996777554 5.394546293626097e-08 1.243335427281034e-08 6.857796347906424" Properties=species:S:1:pos:R:3:forces:R:3 energy=-29.197357177734375 free_energy=-29.197357177734375 stress="-0.0001294570101890713 1.835481810985584e-08 -3.914081503353373e-09 1.835481810985584e-08 -0.0001294950779993087 -9.261927225168165e-09 -3.914081503353373e-09 -9.261927225168165e-09 -0.00012952536053489894" pbc="T T T"
Ca       1.97967483       1.39984163       3.42889785      -0.00000115       0.00000026      -0.00000060
Ca       5.93902502       4.19952542      10.28669427      -0.00000138      -0.00000009      -0.00000036
Hg       0.00000012       0.00000036       0.00000071       0.00000174      -0.00000361      -0.00000505
Se       2.19882387       1.55480299       6.85779648      -0.00462720      -0.00327325       0.00000031
Se       5.71987655       4.04456358       6.85779664       0.00462845       0.00327206      -0.00000029
Se       4.83961418       1.55480245       5.33313487       0.00231326      -0.00327069      -0.00400633
Se       3.07908724       4.04456428       8.38245784      -0.00231558       0.00327581       0.00401181
Se       3.07908673       4.04456445       5.33313512      -0.00231336       0.00327271      -0.00400832
Se       4.83961373       1.55480305       8.38245726       0.00231521      -0.00327331       0.00400883
