9
Lattice="6.048644269090949 3.7706717567208006e-10 3.492186406729126 2.0162147123888916 5.702716571895489 3.4921864835114196 -1.1141706561435234e-07 1.5254961871701638e-08 6.984373006438167" Properties=species:S:1:pos:R:3:forces:R:3 energy=-32.887840270996094 free_energy=-32.887840270996094 stress="-6.862483132863417e-05 -1.708511909725985e-08 -9.806289114067113e-09 -1.708511909725985e-08 -6.8617046053987e-05 2.8861761869336533e-09 -9.806289114067113e-09 2.8861761869336533e-09 -6.861352449050173e-05" pbc="T T T"
Ca       2.01621484       1.42567871       3.49218643       0.00000012      -0.00000168       0.00000087
Ca       6.04864454       4.27703763      10.47655965       0.00000133       0.00000091       0.00000044
In       0.00000042       0.00000013      -0.00000067      -0.00000385       0.00000186       0.00000665
Se       2.19621576       1.55295952       6.98437284       0.00029144       0.00020665       0.00000039
Se       5.86864243       4.14975718       6.98437272      -0.00029069      -0.00020498       0.00000046
Se       4.95053596       1.55295952       5.39416589      -0.00014308       0.00020137       0.00024834
Se       3.11432258       4.14975756       8.57458043       0.00014699      -0.00020757      -0.00025362
Se       3.11432284       4.14975711       5.39416580       0.00014433      -0.00020358       0.00024980
Se       4.95053609       1.55295904       8.57458051      -0.00014672       0.00020707      -0.00025308
