9
Lattice="6.50262219045434 5.231382331431765e-09 3.7542906765943522 2.1675407324671685 6.130731063436515 3.7542906811261885 -3.220185166209589e-08 -1.721979484011952e-08 7.50858140896396" Properties=species:S:1:pos:R:3:forces:R:3 energy=-30.400861740112305 free_energy=-30.400861740112305 stress="0.00012509754742495716 -1.4205956411217358e-08 -2.813236033016864e-10 -1.4205956411217358e-08 0.00012511831300798804 -1.9916825966248553e-09 -2.813236033016864e-10 -1.9916825966248553e-09 0.000125105885672383" pbc="T T T"
Ca       2.16754067       1.53268332       3.75429058      -0.00000013       0.00000131       0.00000006
Ca       6.50262219       4.59804825      11.26287218       0.00000033      -0.00000064      -0.00000041
In       0.00000001       0.00000023      -0.00000021      -0.00000032      -0.00000114       0.00000086
Te       2.34717878       1.65970608       7.50858139      -0.00322205      -0.00227892       0.00000042
Te       6.32298410       4.47102478       7.50858139       0.00322279       0.00227943       0.00000062
Te       5.32903290       1.65970616       5.78700723       0.00161220      -0.00227995      -0.00279135
Te       3.34112984       4.47102460       9.23015561      -0.00161114       0.00227839       0.00279173
Te       3.34113014       4.47102471       5.78700733      -0.00161269       0.00227982      -0.00279313
Te       5.32903291       1.65970606       9.23015556       0.00161107      -0.00227833       0.00279123
