9
Lattice="4.709102032631771 -1.0927729192504995e-07 2.718801559689302 1.5697005974434282 4.439783982280154 2.7188015199783746 8.464213130727749e-08 1.121526501668385e-08 5.437602972774091" Properties=species:S:1:pos:R:3:forces:R:3 energy=-45.512840270996094 free_energy=-45.512840270996094 stress="0.0002622024330776185 2.6104109096536376e-08 3.253808600334196e-08 2.6104109096536376e-08 0.0002622210013214499 4.0629405617664816e-08 3.253808600334196e-08 4.0629405617664816e-08 0.00026221395819447935" pbc="T T T"
Ca       1.56970055       1.10994556       2.71880187      -0.00000023       0.00000099      -0.00000127
Ca       4.70910230       3.32983810       8.15640454       0.00000017       0.00000006       0.00000073
In      -0.00000006       0.00000066       0.00000020      -0.00000030      -0.00000617       0.00000175
O        1.74999089       1.23743084       5.43760295      -0.00118405      -0.00083995       0.00000057
O        4.52881159       3.20235335       5.43760270       0.00118738       0.00083894       0.00000188
O        3.83410680       1.23743043       4.23433832       0.00059250      -0.00083935      -0.00102556
O        2.44469563       3.20235346       6.64086728      -0.00059170       0.00083905       0.00102812
O        2.44469632       3.20235308       4.23433839      -0.00059533       0.00084192      -0.00103092
O        3.83410678       1.23743015       6.64086774       0.00059110      -0.00083607       0.00102443
