9
Lattice="5.855649577639709 3.269213088748841e-08 3.380761057243334 1.9518832631849463 5.5207596734224005 3.3807609882801684 6.382123669024278e-08 -3.9333907317053386e-08 6.761522003945055" Properties=species:S:1:pos:R:3:forces:R:3 energy=-31.64371109008789 free_energy=-31.64371109008789 stress="2.4676273824297823e-06 -2.097802820344441e-08 -2.3880984301172248e-08 -2.097802820344441e-08 2.4353664684895193e-06 3.2468825850173744e-08 -2.3880984301172248e-08 3.2468825850173744e-08 2.465758370817639e-06" pbc="T T T"
Ca       1.95188316       1.38018981       3.38076102      -0.00000007      -0.00000009      -0.00000025
Ca       5.85564970       4.14056998      10.14228323      -0.00000055       0.00000068       0.00000086
Mg      -0.00000030       0.00000051      -0.00000015       0.00000297      -0.00000240       0.00000176
Se       2.09496066       1.48136032       6.76152216      -0.00000871      -0.00000688       0.00000008
Se       5.71257242       4.03939895       6.76152201       0.00000811       0.00000621       0.00000004
Se       4.80816932       1.48136116       5.19505013       0.00000429      -0.00000655      -0.00000786
Se       2.99936380       4.03939874       8.32799368      -0.00000457       0.00000663       0.00000730
Se       2.99936356       4.03939862       5.19504989      -0.00000522       0.00000733      -0.00000818
Se       4.80816933       1.48136058       8.32799418       0.00000369      -0.00000492       0.00000619
