9
Lattice="6.160652062392517 7.520112193274267e-07 3.556853326530023 2.053551299506606 5.808319167503173 3.556853494470723 -1.8441958489785895e-07 7.528020578924813e-08 7.113706972484128" Properties=species:S:1:pos:R:3:forces:R:3 energy=-37.45644760131836 free_energy=-37.45644760131836 stress="-0.00011477038060547784 1.1224946527832458e-09 -6.654780726478293e-09 1.1224946527832458e-09 -0.00011477369116619229 9.667855849215812e-09 -6.654780726478293e-09 9.667855849215812e-09 -0.00011479173554107547" pbc="T T T"
Ca       2.05354991       1.45207932       3.55685282       0.00000036       0.00000103      -0.00000030
Ca       6.16064986       4.35623724      10.67055822      -0.00000178      -0.00000199      -0.00000070
Mn       0.00000028      -0.00000021       0.00000029      -0.00000043       0.00000392      -0.00000256
Te       2.08489614       1.47424837       7.11370668      -0.00171754      -0.00121562       0.00000034
Te       6.12930581       4.33407308       7.11370887       0.00171877       0.00121717      -0.00000069
Te       5.11820343       1.47424869       5.36242606       0.00085974      -0.00121754      -0.00148477
Te       3.09600202       4.33407276       8.86498805      -0.00086030       0.00121728       0.00148544
Te       3.09600200       4.33407230       5.36242539      -0.00085739       0.00121561      -0.00148332
Te       5.11820335       1.47424865       8.86498872       0.00085863      -0.00121987       0.00148657
