9
Lattice="5.472729399547024 2.958846115038471e-07 3.159681420217287 1.8242433218940948 5.15973826042358 3.159681576536499 3.5995890697084437e-08 2.1690407822608144e-07 6.319362778087859" Properties=species:S:1:pos:R:3:forces:R:3 energy=-33.87506866455078 free_energy=-33.87506866455078 stress="-2.5993704184656963e-06 -8.128295370113392e-09 -2.9477252638798745e-08 -8.128295370113392e-09 -2.537070258767926e-06 1.66011258073695e-08 -2.9477252638798745e-08 1.66011258073695e-08 -2.557669859015732e-06" pbc="T T T"
Ca       1.82424333       1.28993452       3.15968147       0.00000027      -0.00000031      -0.00000032
Ca       5.47272931       3.86980409       9.47904443      -0.00000067      -0.00000060       0.00000026
Mg      -0.00000020      -0.00000052      -0.00000026       0.00000226       0.00000878       0.00000549
S        1.92349863       1.36011880       6.31936290      -0.00259142      -0.00183215      -0.00000132
S        5.37347437       3.79961985       6.31936270       0.00258606       0.00182912      -0.00000128
S        4.51098014       1.36011886       4.82548006       0.00129545      -0.00183237      -0.00224397
S        2.78599264       3.79962001       7.81324597      -0.00129315       0.00182924       0.00223745
S        2.78599281       3.79962009       4.82547971      -0.00129279       0.00182796      -0.00223731
S        4.51097995       1.36011943       7.81324610       0.00129406      -0.00182965       0.00224108
