9
Lattice="5.80794661843156 -9.369031865369121e-08 3.353219548554168 1.935982126660587 5.475784659768902 3.3532195332275707 -2.872305592566873e-09 -2.0802214414546774e-08 6.706439102083304" Properties=species:S:1:pos:R:3:forces:R:3 energy=-41.445404052734375 free_energy=-41.445404052734375 stress="4.795445875060977e-06 1.1004086530874702e-08 -6.317307565950614e-09 1.1004086530874702e-08 4.802394414582523e-06 3.893200872795433e-09 -6.317307565950614e-09 3.893200872795433e-09 4.784608336194651e-06" pbc="T T T"
Ca       1.93598243       1.36894625       3.35321935       0.00000003      -0.00000011       0.00000002
Ca       5.80794637       4.10683827      10.05965898       0.00000000      -0.00000003      -0.00000050
Mn      -0.00000011      -0.00000026       0.00000029      -0.00000041       0.00000334      -0.00000277
Se       1.91960756       1.35736761       6.70643924       0.00058743       0.00041497       0.00000033
Se       5.82432116       4.11841727       6.70643899      -0.00059015      -0.00041756       0.00000032
Se       4.84814294       1.35736732       5.01564846      -0.00029448       0.00041768       0.00051153
Se       2.89578584       4.11841703       8.39722951       0.00029543      -0.00041693      -0.00051060
Se       2.89578611       4.11841696       5.01564843       0.00029606      -0.00041762       0.00051057
Se       4.84814264       1.35736771       8.39722941      -0.00029403       0.00041616      -0.00050884
