9
Lattice="6.404222839460675 -2.1530727216858047e-06 3.697484698365721 2.134736280771391 6.037973254510995 3.697489263662388 3.453449522644573e-07 5.835519483043993e-06 7.394968798570917" Properties=species:S:1:pos:R:3:forces:R:3 energy=-29.614931106567383 free_energy=-29.614931106567383 stress="-0.00013080262579023838 -1.9223712115490343e-06 -1.7906735649830807e-07 -1.9223712115490343e-06 -0.00012912554666399956 -8.332254708420805e-08 -1.7906735649830807e-07 -8.332254708420805e-08 -0.000127624865854159" pbc="T T T"
Ca       2.13475674       1.50947841       3.69747898       0.00000809      -0.00000917      -0.00000555
Ca       6.40423282       4.52846989      11.09243641       0.00002564      -0.00002584      -0.00002993
Mg      -0.00000180       0.00000356       0.00002084       0.00000701      -0.00001579      -0.00015705
Te       2.31934806       1.64006355       7.39497526      -0.00087705      -0.00062480      -0.00001122
Te       6.21960372       4.39792458       7.39497830       0.00088166       0.00061793      -0.00001178
Te       5.24451188       1.64007617       5.70615418       0.00043990      -0.00065292      -0.00080362
Te       3.29445079       4.39789316       9.08377206      -0.00053427       0.00078192       0.00094198
Te       3.29442656       4.39790442       5.70617556      -0.00047359       0.00067262      -0.00081886
Te       5.24451422       1.64009796       9.08377859       0.00052260      -0.00074393       0.00089601
