9
Lattice="4.519814453092367 -1.63420001834305e-07 2.6095159065862576 1.506604742409707 4.261321624954931 2.609515770124748 -6.184971784900475e-08 -2.1086483651859274e-07 5.21903192029927" Properties=species:S:1:pos:R:3:forces:R:3 energy=-46.081485748291016 free_energy=-46.081485748291016 stress="0.0002454504428897053 1.964662388331817e-08 -1.7476036617836144e-08 1.964662388331817e-08 0.00024550329544581473 4.1259180960651065e-08 -1.7476036617836144e-08 4.1259180960651065e-08 0.00024531412054784596" pbc="T T T"
Ca       1.50660476       1.06533047       2.60951583       0.00000089      -0.00000071       0.00000075
Ca       4.51981451       3.19599101       7.82854805      -0.00000074      -0.00000076      -0.00000163
Mg       0.00000037      -0.00000022      -0.00000004      -0.00000409       0.00000119      -0.00000021
O        1.61021088       1.13859080       5.21903158      -0.00182033      -0.00128736       0.00000094
O        4.41620790       3.12273019       5.21903190       0.00182378       0.00128931      -0.00000080
O        3.71470867       1.13859122       4.00399945       0.00091156      -0.00128840      -0.00157738
O        2.31171053       3.12273001       6.43406401      -0.00091161       0.00128773       0.00157711
O        2.31171015       3.12273032       4.00399914      -0.00091088       0.00128847      -0.00157604
O        3.71470870       1.13859126       6.43406420       0.00091147      -0.00128946       0.00157747
