9
Lattice="5.457053225636517 -1.728839454760046e-07 3.150631488448553 1.8190176394044542 5.144959244026814 3.1506313836210813 2.992740610233426e-08 -1.0722504845775881e-07 6.3012629250613585" Properties=species:S:1:pos:R:3:forces:R:3 energy=-45.03341293334961 free_energy=-45.03341293334961 stress="-0.00014418119098991156 -1.7557907128207262e-08 9.827646252347222e-09 -1.7557907128207262e-08 -0.00014418248611036688 1.1674716304810318e-08 9.827646252347222e-09 1.1674716304810318e-08 -0.00014415892655961215" pbc="T T T"
Ca       1.81901775       1.28623954       3.15063110      -0.00000015      -0.00000014      -0.00000065
Ca       5.45705237       3.85871945       9.45189424       0.00000151      -0.00000008       0.00000033
Mn       0.00000050      -0.00000019      -0.00000004      -0.00000474       0.00000296      -0.00000120
S        1.80572586       1.27684080       6.30126300       0.00780636       0.00552040      -0.00000117
S        5.47034521       3.86811820       6.30126312      -0.00780642      -0.00551856       0.00000029
S        4.55419026       1.27684087       4.71443617      -0.00390190       0.00551808       0.00675690
S        2.72188058       3.86811807       7.88808998       0.00390264      -0.00551856      -0.00675815
S        2.72188065       3.86811836       4.71443586       0.00390360      -0.00552022       0.00675976
S        4.55419034       1.27684071       7.88808974      -0.00390080       0.00551671      -0.00675648
