9
Lattice="4.49613853409963 -1.4218799094489247e-06 2.595847058502622 1.4987116796649806 4.239000606858167 2.5958467544824666 -2.3624776656416813e-07 -5.393995858606791e-07 5.191694526198518" Properties=species:S:1:pos:R:3:forces:R:3 energy=-56.54344177246094 free_energy=-56.54344177246094 stress="-0.0005459856474772096 -2.7581089057093777e-07 2.0135701106482884e-08 -2.7581089057093777e-07 -0.0005437624058686197 1.116410004442514e-07 2.0135701106482884e-08 1.116410004442514e-07 -0.0005451858160085976" pbc="T T T"
Ca       1.49871243       1.05974988       2.59584697       0.00000333       0.00000530       0.00000652
Ca       4.49613752       3.17924909       7.78754141      -0.00000366       0.00000144      -0.00000436
Mn      -0.00000038       0.00000050       0.00000022       0.00004077      -0.00004837      -0.00002558
O        1.49905808       1.05999447       5.19169479       0.00673151       0.00475073       0.00000751
O        4.49579179       3.17900435       5.19169390      -0.00674534      -0.00475359      -0.00000056
O        3.74660914       1.05999294       3.89406995      -0.00337410       0.00476933       0.00584316
O        2.24823964       3.17900535       6.48931788       0.00336099      -0.00474501      -0.00581837
O        2.24824163       3.17900662       3.89406947       0.00335526      -0.00474119       0.00582600
O        3.74660912       1.05999250       6.48931870      -0.00336623       0.00475836      -0.00583220
