9
Lattice="4.480244754572527 1.161133326478664e-07 2.586670897482673 1.493414954757746 4.224015366166216 2.5866710237590955 -8.48666660013884e-08 9.464657812285848e-08 5.173341941958584" Properties=species:S:1:pos:R:3:forces:R:3 energy=-46.052371978759766 free_energy=-46.052371978759766 stress="0.00018387899035587907 -1.65197882040502e-08 -4.847451862133312e-08 -1.65197882040502e-08 0.00018381229892838746 -9.832531233655573e-09 -4.847451862133312e-08 -9.832531233655573e-09 0.00018388463649898767" pbc="T T T"
Ca       1.49341494       1.05600357       2.58667072      -0.00000003       0.00000090       0.00000109
Ca       4.48024448       3.16801123       7.76001308      -0.00000024       0.00000061      -0.00000090
Ni       0.00000012      -0.00000027      -0.00000015       0.00000338       0.00000512       0.00000438
O        1.51799415       1.07338451       5.17334166       0.00060000       0.00042359       0.00000037
O        4.45566548       3.15063190       5.17334205      -0.00060497      -0.00042827      -0.00000148
O        3.72124725       1.07338443       3.90129254      -0.00029929       0.00042428       0.00051977
O        2.25241231       3.15063099       6.44539113       0.00030122      -0.00042655      -0.00052112
O        2.25241207       3.15063143       3.90129273       0.00030116      -0.00042428       0.00051995
O        3.72124763       1.07338437       6.44539147      -0.00030135       0.00042482      -0.00052242
