9
Lattice="5.692032316080973 -8.892171287159707e-08 3.2862964076218217 1.8973440232506695 5.366499519868994 3.286296404631358 -1.5834895251583127e-08 -1.4859512412379901e-08 6.572592842670519" Properties=species:S:1:pos:R:3:forces:R:3 energy=-37.012386322021484 free_energy=-37.012386322021484 stress="2.105479870806448e-05 2.0219403040755424e-08 -2.1642496683682566e-09 2.0219403040755424e-08 2.1015746824559756e-05 -2.4362283301826437e-09 -2.1642496683682566e-09 -2.4362283301826437e-09 2.1005367671023123e-05" pbc="T T T"
Ca       1.89734409       1.34162539       3.28629659       0.00000006      -0.00000025      -0.00000004
Ca       5.69203196       4.02487437       9.85888942       0.00000026      -0.00000048      -0.00000007
Ni       0.00000014      -0.00000004       0.00000024      -0.00000209      -0.00000290       0.00000100
Se       1.92863999       1.36375450       6.57259279      -0.00077558      -0.00054851      -0.00000049
Se       5.66073617       4.00274479       6.57259264       0.00077927       0.00055179       0.00000080
Se       4.72771261       1.36375466       4.95654762       0.00038807      -0.00054875      -0.00067136
Se       2.86166398       4.00274485       8.18863800      -0.00038856       0.00054920       0.00067234
Se       2.86166429       4.00274466       4.95654750      -0.00038901       0.00054878      -0.00067344
Se       4.72771207       1.36375451       8.18863789       0.00038767      -0.00054869       0.00067168
