9
Lattice="6.413014690938851 1.2700398884279251e-07 3.702555613928186 2.137671617649298 6.046248197189686 3.7025557277889147 -5.696800378981747e-08 9.916786484439829e-08 7.405111326527875" Properties=species:S:1:pos:R:3:forces:R:3 energy=-39.12771987915039 free_energy=-39.12771987915039 stress="-6.534532440127805e-05 4.4500758633603255e-09 5.590553797674147e-09 4.4500758633603255e-09 -6.53625393169932e-05 -8.073593349422481e-09 5.590553797674147e-09 -8.073593349422481e-09 -6.536699220305309e-05" pbc="T T T"
Ca       2.13767190       1.51156202       3.70255548       0.00000005      -0.00000039      -0.00000042
Ca       6.41301454       4.53468621      11.10766737      -0.00000039      -0.00000057       0.00000019
Nb      -0.00000007       0.00000020      -0.00000014      -0.00000099       0.00000017       0.00000049
Te       2.24913972       1.59038201       7.40511137      -0.00185715      -0.00131366       0.00000016
Te       6.30154656       4.45586649       7.40511133       0.00185756       0.00131422       0.00000026
Te       5.28844491       1.59038208       5.65036778       0.00092817      -0.00131255      -0.00160827
Te       3.26224122       4.45586629       9.15985474      -0.00092701       0.00131197       0.00160747
Te       3.26224129       4.45586636       5.65036773      -0.00092824       0.00131311      -0.00160846
Te       5.28844493       1.59038205       9.15985498       0.00092805      -0.00131226       0.00160854
