9
Lattice="5.954992551663552 -1.723064542982275e-08 3.438116498588238 1.9849975445568033 5.614420704379776 3.43811642310387 4.034307615550331e-08 -6.392219293851812e-08 6.8762329273002605" Properties=species:S:1:pos:R:3:forces:R:3 energy=-43.27511215209961 free_energy=-43.27511215209961 stress="-8.073668141150847e-05 -2.0700426262010296e-08 -3.4929212855416836e-09 -2.0700426262010296e-08 -8.071651973295957e-05 6.7710081985694615e-09 -3.4929212855416836e-09 6.7710081985694615e-09 -8.071201591519639e-05" pbc="T T T"
Ca       1.98499760       1.40360514       3.43811655       0.00000050       0.00000050       0.00000025
Ca       5.95499273       4.21081572      10.31434935      -0.00000002      -0.00000008      -0.00000027
Nb       0.00000015      -0.00000024      -0.00000007       0.00000164       0.00000167      -0.00000183
Se       2.04719328       1.44758441       6.87623292      -0.00075705      -0.00053549       0.00000018
Se       5.89279682       4.16683632       6.87623297       0.00075546       0.00053316      -0.00000003
Se       4.93139569       1.44758427       5.21103782       0.00037836      -0.00053607      -0.00065453
Se       3.00859416       4.16683644       8.54142805      -0.00037902       0.00053718       0.00065625
Se       3.00859430       4.16683618       5.21103773      -0.00037853       0.00053574      -0.00065585
Se       4.93139577       1.44758422       8.54142809       0.00037857      -0.00053654       0.00065577
