9
Lattice="5.598805639300273 2.309091615365361e-09 3.232471789668877 1.866268597211385 5.278604430403128 3.23247170548957 1.8439215490703838e-07 2.7286734408494383e-08 6.464943259961229" Properties=species:S:1:pos:R:3:forces:R:3 energy=-47.657901763916016 free_energy=-47.657901763916016 stress="-4.59770490124356e-05 -1.5103129413773786e-08 -1.0313181419974171e-08 -1.5103129413773786e-08 -4.596243525156751e-05 8.025931030886113e-09 -1.0313181419974171e-08 8.025931030886113e-09 -4.593425546772778e-05" pbc="T T T"
Ca       1.86626827       1.31965128       3.23247172      -0.00000040       0.00000026      -0.00000017
Ca       5.59880616       3.95895311       9.69741499       0.00000041      -0.00000045      -0.00000037
Nb       0.00000017      -0.00000008      -0.00000031      -0.00000392       0.00000121       0.00000068
S        1.92990632       1.36464959       6.46494352       0.00073299       0.00051785       0.00000090
S        5.53516777       3.91395439       6.46494381      -0.00072908      -0.00051412      -0.00000010
S        4.63385276       1.36465044       4.90381967      -0.00036289       0.00051340       0.00062871
S        2.83122155       3.91395492       8.02606725       0.00036280      -0.00051591      -0.00063169
S        2.83122155       3.91395434       4.90381925       0.00036418      -0.00051650       0.00063190
S        4.63385310       1.36464983       8.02606720      -0.00036421       0.00051412      -0.00062963
