9
Lattice="4.7070837171999145 1.1710674998063399e-07 2.7176362780654415 1.5690278517896996 4.437881523931544 2.7176365627330656 -1.3727635843200175e-07 2.5157616712300004e-07 5.435272793900548" Properties=species:S:1:pos:R:3:forces:R:3 energy=-60.21215057373047 free_energy=-60.21215057373047 stress="-0.0002646975626703352 -4.87594995490781e-08 1.7189483614288292e-08 -4.87594995490781e-08 -0.00026449214783497155 1.4221092214938835e-07 1.7189483614288292e-08 1.4221092214938835e-07 -0.00026439627981744707" pbc="T T T"
Ca       1.56902791       1.10947046       2.71763639      -0.00000039       0.00000086       0.00000044
Ca       4.70708376       3.32841171       8.15290923       0.00000052       0.00000053      -0.00000016
Nb      -0.00000002       0.00000060      -0.00000037       0.00000239      -0.00000086      -0.00000290
O        1.61688064       1.14330757       5.43527287       0.00126457       0.00088978      -0.00000014
O        4.65923043       3.29457453       5.43527296      -0.00126243      -0.00089395       0.00000130
O        3.89864354       1.14330768       4.11789657      -0.00063056       0.00088906       0.00109196
O        2.37746814       3.29457378       6.75264892       0.00062758      -0.00088739      -0.00108552
O        2.37746817       3.29457348       4.11789688       0.00062823      -0.00089014       0.00108731
O        3.89864322       1.14330788       6.75264917      -0.00063056       0.00089085      -0.00109363
