9
Lattice="6.158844199746531 -1.0628973649734523e-07 3.55581032594866 2.0529480301978413 5.806613847107668 3.555810215397821 8.924728104424754e-08 -7.228918805411062e-08 7.111620497316499" Properties=species:S:1:pos:R:3:forces:R:3 energy=-33.916236877441406 free_energy=-33.916236877441406 stress="-0.00013317291450221092 1.575794605912506e-08 -7.230623655374302e-09 1.575794605912506e-08 -0.00013319453864824027 5.253589119291746e-09 -7.230623655374302e-09 5.253589119291746e-09 -0.00013320583093445748" pbc="T T T"
Ca       2.05294786       1.45165353       3.55581040      -0.00000014       0.00000010       0.00000041
Ca       6.15884429       4.35496016      10.66743058       0.00000023      -0.00000037      -0.00000003
Ni       0.00000040       0.00000020      -0.00000023      -0.00000175      -0.00000139       0.00000167
Te       2.11429609       1.49503275       7.11162037       0.00685094       0.00484487       0.00000036
Te       6.09749620       4.31158072       7.11162035      -0.00684924      -0.00484259      -0.00000006
Te       5.10169618       1.49503300       5.38684424      -0.00342547       0.00484373       0.00593224
Te       3.11009597       4.31158095       8.83639722       0.00342575      -0.00484542      -0.00593379
Te       3.11009604       4.31158071       5.38684411       0.00342519      -0.00484435       0.00593315
Te       5.10169629       1.49503272       8.83639709      -0.00342558       0.00484536      -0.00593399
