9
Lattice="5.343969609159308 5.37715345373568e-08 3.085342289738246 1.7813233104251534 5.038342326328473 3.0853421915729293 1.297178246382098e-07 -2.8503126444559748e-08 6.1706843547986" Properties=species:S:1:pos:R:3:forces:R:3 energy=-40.036067962646484 free_energy=-40.036067962646484 stress="4.859748878516257e-05 4.6902385975045036e-08 -7.099148380262932e-09 4.6902385975045036e-08 4.858790271100588e-05 -1.7386715400746766e-09 -7.099148380262932e-09 -1.7386715400746766e-09 4.8557500122115016e-05" pbc="T T T"
Ca       1.78132328       1.25958548       3.08534224      -0.00000010      -0.00000104      -0.00000079
Ca       5.34396977       3.77875702       9.25602677      -0.00000054       0.00000028      -0.00000109
Ni       0.00000001       0.00000036      -0.00000005      -0.00000716      -0.00000648       0.00000182
S        1.79210477       1.26720932       6.17068425       0.00344378       0.00243595       0.00000057
S        5.33318827       3.77113291       6.17068437      -0.00343579      -0.00242922       0.00000096
S        4.44791739       1.26720945       4.63735053      -0.00172082       0.00243357       0.00297904
S        2.67737564       3.77113319       7.70401847       0.00172195      -0.00243551      -0.00298101
S        2.67737549       3.77113331       4.63734998       0.00172079      -0.00243345       0.00298071
S        4.44791752       1.26720849       7.70401864      -0.00172183       0.00243556      -0.00298017
