9
Lattice="4.695791999064225 9.797563108817622e-08 2.7111165995081015 1.5652640435474832 4.427235409717874 2.711116683534933 -3.020099456231481e-08 8.155615230360493e-08 5.42223325132585" Properties=species:S:1:pos:R:3:forces:R:3 energy=-48.31586456298828 free_energy=-48.31586456298828 stress="-0.0003652429149951786 8.673328721897633e-08 -8.844855869938328e-08 8.673328721897633e-08 -0.000365121552022174 1.1869696692201614e-07 -8.844855869938328e-08 1.1869696692201614e-07 -0.00036530938814394176" pbc="T T T"
Ca       1.56526398       1.10680896       2.71111641       0.00000042       0.00000029       0.00000079
Ca       4.69579186       3.32042621       8.13335022      -0.00000061      -0.00000072       0.00000037
Pd      -0.00000005      -0.00000022      -0.00000019       0.00000149       0.00000142       0.00000427
O        1.59953930       1.13104570       5.42223311       0.00223157       0.00157589       0.00000004
O        4.66151681       3.29619020       5.42223318      -0.00223255      -0.00157741       0.00000018
O        3.89602250       1.13104555       4.09635784      -0.00111628       0.00157800       0.00193432
O        2.36503333       3.29619037       6.74810875       0.00111808      -0.00157967      -0.00193685
O        2.36503361       3.29619025       4.09635792       0.00111926      -0.00158137       0.00193855
O        3.89602272       1.13104522       6.74810891      -0.00112107       0.00158334      -0.00194156
