9
Lattice="5.86192924075533 -1.1126658082502719e-07 3.38438649211927 1.9539763233077623 5.526679987641168 3.3843864667865176 -8.916461279073507e-09 -3.7331015577220416e-08 6.768772999682189" Properties=species:S:1:pos:R:3:forces:R:3 energy=-36.590415954589844 free_energy=-36.590415954589844 stress="-4.4380913095665164e-06 -4.308374101924528e-08 -8.235575776893711e-09 -4.308374101924528e-08 -4.412835096445633e-06 2.2718737113791576e-08 -8.235575776893711e-09 2.2718737113791576e-08 -4.370169790490763e-06" pbc="T T T"
Ca       1.95397667       1.38166985       3.38438633       0.00000029       0.00000007      -0.00000034
Ca       5.86192908       4.14500961      10.15315932      -0.00000041      -0.00000005       0.00000006
Pd       0.00000013      -0.00000003       0.00000003      -0.00000127       0.00000162      -0.00000481
Se       2.03644656       1.43998542       6.76877301       0.00002173       0.00001541       0.00000020
Se       5.77945880       4.08669451       6.76877305      -0.00002193      -0.00001571       0.00000004
Se       4.84370556       1.43998566       5.14800111      -0.00000976       0.00001356       0.00001633
Se       2.97220004       4.08669420       8.38954484       0.00000890      -0.00001219      -0.00001490
Se       2.97219974       4.08669434       5.14800138       0.00001083      -0.00001496       0.00001839
Se       4.84370564       1.43998568       8.38954474      -0.00000836       0.00001207      -0.00001484
