9
Lattice="5.53043388042667 -1.1189262109472492e-07 3.1929972267969755 1.8434778316394762 5.214143034460177 3.1929972666503637 6.186488553570543e-08 9.25552969300755e-08 6.385994346440794" Properties=species:S:1:pos:R:3:forces:R:3 energy=-38.727298736572266 free_energy=-38.727298736572266 stress="0.00010734199895523489 -7.17077019984913e-09 -2.785122132920037e-09 -7.17077019984913e-09 0.00010737620323197916 -4.641506734515133e-09 -2.785122132920037e-09 -4.641506734515133e-09 0.00010740979632828385" pbc="T T T"
Ca       1.84347813       1.30353567       3.19299744      -0.00000017      -0.00000050       0.00000028
Ca       5.53043367       3.91060724       9.57899168       0.00000047      -0.00000009       0.00000022
Pd      -0.00000039       0.00000020       0.00000015       0.00001068      -0.00000331      -0.00000082
S        1.90953940       1.35024791       6.38599417      -0.00024515      -0.00017244       0.00000024
S        5.46437261       3.86389524       6.38599438       0.00023973       0.00016940       0.00000048
S        4.57566398       1.35024808       4.84670656       0.00012115      -0.00017142      -0.00021040
S        2.79824793       3.86389506       7.92528223      -0.00012365       0.00017422       0.00021368
S        2.79824754       3.86389503       4.84670669      -0.00012380       0.00017470      -0.00021291
S        4.57566431       1.35024783       7.92528217       0.00012040      -0.00017071       0.00020927
