9
Lattice="5.72574893871485 1.7656918374820125e-07 3.3057625808705073 1.9085831408714822 5.398287804103089 3.305762589827251 1.5787009730931343e-09 1.2086023638212206e-08 6.6115251590066295" Properties=species:S:1:pos:R:3:forces:R:3 energy=-35.540218353271484 free_energy=-35.540218353271484 stress="0.0001618599781068042 7.366217857907031e-08 1.1973385838359718e-08 7.366217857907031e-08 0.0001617396919755265 8.137314821965447e-09 1.1973385838359718e-08 8.137314821965447e-09 0.0001617631351109594" pbc="T T T"
Ca       1.90858363       1.34957205       3.30576247       0.00000086       0.00000006      -0.00000123
Ca       5.72574919       4.04871614       9.91728759       0.00000001       0.00000035       0.00000064
Pb       0.00000022       0.00000017      -0.00000035      -0.00000636      -0.00000466       0.00000417
S        2.05106759       1.45032383       6.61152550      -0.00297984      -0.00210643      -0.00000115
S        5.58326384       3.94796376       6.61152522       0.00298771       0.00211123       0.00000040
S        4.70021517       1.45032372       5.08203874       0.00148937      -0.00210792      -0.00258172
S        2.93411652       3.94796460       8.14101155      -0.00148915       0.00210571       0.00257951
S        2.93411688       3.94796435       5.08203893      -0.00149146       0.00210702      -0.00258118
S        4.70021531       1.45032336       8.14101165       0.00148870      -0.00210536       0.00258076
