9
Lattice="5.507406068563705 1.5322504488617068e-07 3.17970215699292 1.8358020532726624 5.192432932840591 3.1797023545227003 -1.5052108940978817e-08 2.312801624194632e-07 6.359404340056854" Properties=species:S:1:pos:R:3:forces:R:3 energy=-40.771759033203125 free_energy=-40.771759033203125 stress="-5.9868747484870255e-05 2.786221564576863e-08 1.2615262612314382e-08 2.786221564576863e-08 -5.9892350691370666e-05 -9.077105289634346e-09 1.2615262612314382e-08 -9.077105289634346e-09 -5.990572026348673e-05" pbc="T T T"
Ca       1.83580198       1.29810807       3.17970224       0.00000125      -0.00000005       0.00000002
Ca       5.50740617       3.89432530       9.53910659      -0.00000016       0.00000050      -0.00000073
Pt      -0.00000007      -0.00000001      -0.00000007       0.00000035       0.00000134       0.00000366
S        1.88683843       1.33419656       6.35940438       0.00122380       0.00086516       0.00000027
S        5.45636972       3.85823679       6.35940450      -0.00122476      -0.00086612       0.00000062
S        4.56398690       1.33419645       4.81375194      -0.00061247       0.00086498       0.00106001
S        2.77922108       3.85823687       7.90505691       0.00061315      -0.00086740      -0.00106347
S        2.77922126       3.85823662       4.81375218       0.00061223      -0.00086668       0.00106198
S        4.56398700       1.33419662       7.90505672      -0.00061390       0.00086755      -0.00106293
