9
Lattice="5.818418993213989 -3.184746258463079e-07 3.3592658214571203 1.9394727039112327 5.485657803085317 3.359265810313091 6.970690149115394e-08 3.564166746921655e-08 6.718531522178307" Properties=species:S:1:pos:R:3:forces:R:3 energy=-38.097259521484375 free_energy=-38.097259521484375 stress="-9.383259566675406e-06 5.760950383404406e-09 2.6341245629168952e-08 5.760950383404406e-09 -9.367790880787652e-06 -1.7083236159010085e-08 2.6341245629168952e-08 -1.7083236159010085e-08 -9.363305252918508e-06" pbc="T T T"
Ca       1.93947231       1.37141463       3.35926581      -0.00000092       0.00000050       0.00000009
Ca       5.81841906       4.11424282      10.07779747       0.00000016      -0.00000009       0.00000004
Pt      -0.00000021       0.00000023       0.00000009       0.00000040       0.00000115       0.00000669
Se       2.00575147       1.41828052       6.71853125       0.00053884       0.00038043       0.00000121
Se       5.75214004       4.06737653       6.71853144      -0.00053762      -0.00038037      -0.00000020
Se       4.81554322       1.41828061       5.09629816      -0.00026708       0.00037858       0.00046344
Se       2.94234848       4.06737769       8.34076551       0.00027002      -0.00038414      -0.00046945
Se       2.94234892       4.06737680       5.09629756       0.00026681      -0.00037684       0.00046319
Se       4.81554382       1.41828021       8.34076531      -0.00027073       0.00038075      -0.00046518
