9
Lattice="4.7895387161621885 -1.5484210262911856e-10 2.765241401049372 1.5965128907163475 4.515620365893061 2.7652414262075093 1.4588597310495421e-08 4.112800388452425e-08 5.5304827768305715" Properties=species:S:1:pos:R:3:forces:R:3 energy=-50.37375259399414 free_energy=-50.37375259399414 stress="4.760316005558707e-05 1.5869835223725204e-08 1.6461852325733162e-08 1.5869835223725204e-08 4.7574194468325004e-05 3.393884995261942e-08 1.6461852325733162e-08 3.393884995261942e-08 4.743320096167736e-05" pbc="T T T"
Ca       1.59651258       1.12890508       2.76524160       0.00000128      -0.00000078       0.00000091
Ca       4.78953894       3.38671539       8.29572409      -0.00000092       0.00000026       0.00000027
Pt       0.00000028      -0.00000000       0.00000037      -0.00001444       0.00000304      -0.00001647
O        1.56993314       1.11011013       5.53048268      -0.00760123      -0.00537339      -0.00000064
O        4.81611841       3.40551049       5.53048266       0.00760815       0.00537983      -0.00000070
O        4.00457194       1.11011019       4.12484321       0.00380120      -0.00537464      -0.00658238
O        2.38147962       3.40550998       6.93612242      -0.00380270       0.00537735       0.00658566
O        2.38147948       3.40551008       4.12484327      -0.00379856       0.00537056      -0.00657752
O        4.00457223       1.11011034       6.93612212       0.00380653      -0.00538233       0.00659072
