9
Lattice="6.092860860544892 -1.1255530539824736e-07 3.5177149457314507 2.030953541412184 5.7444043064486685 3.5177148983619992 1.1143845484516986e-07 2.0783487618586128e-08 7.035429698445688" Properties=species:S:1:pos:R:3:forces:R:3 energy=-32.64910125732422 free_energy=-32.64910125732422 stress="3.1260169635061175e-05 8.940332918427885e-09 1.0161986807588619e-08 8.940332918427885e-09 3.1240517273545265e-05 -2.4008713239709323e-08 1.0161986807588619e-08 -2.4008713239709323e-08 3.125369767076336e-05" pbc="T T T"
Ca       2.03095361       1.43610075       3.51771508       0.00000000      -0.00000038       0.00000044
Ca       6.09286102       4.30830337      10.55314446       0.00000028       0.00000003      -0.00000012
Pb      -0.00000016      -0.00000006      -0.00000002       0.00000030       0.00000045      -0.00000008
Se       2.22946199       1.57646758       7.03542971      -0.00057389      -0.00040603      -0.00000003
Se       5.89435265       4.16793685       7.03542983       0.00057402       0.00040582      -0.00000014
Se       4.97812988       1.57646759       5.44848553       0.00028604      -0.00040461      -0.00049616
Se       3.14568466       4.16793664       8.62237392      -0.00028683       0.00040539       0.00049666
Se       3.14568437       4.16793647       5.44848569      -0.00028713       0.00040561      -0.00049742
Se       4.97812997       1.57646767       8.62237395       0.00028713      -0.00040616       0.00049701
