9
Lattice="6.6055441629473135 -1.8747583307872587e-08 3.8137126129364933 2.2018479876765316 6.227766744931577 3.813712697744304 -1.0078282061483921e-07 3.2603758152338605e-08 7.627425400433903" Properties=species:S:1:pos:R:3:forces:R:3 energy=-30.32740592956543 free_energy=-30.32740592956543 stress="5.199429142521694e-05 1.2104995228412463e-08 9.640516163145207e-11 1.2104995228412463e-08 5.198583676246926e-05 -5.9928431106470725e-09 9.640516163145207e-11 -5.9928431106470725e-09 5.197170321480371e-05" pbc="T T T"
Ca       2.20184783       1.55694206       3.81371296       0.00000015       0.00000060       0.00000081
Ca       6.60554455       4.67082468      11.44113762       0.00000098      -0.00000121      -0.00000161
Pb       0.00000010       0.00000018      -0.00000006      -0.00000127       0.00000017       0.00000111
Te       2.45961954       1.73921398       7.62742541       0.00210166       0.00148676      -0.00000016
Te       6.34777239       4.48855288       7.62742571      -0.00210115      -0.00148603       0.00000193
Te       5.37573420       1.73921386       5.94380581      -0.00105116       0.00148693       0.00182092
Te       3.43165766       4.48855290       9.31104492       0.00105159      -0.00148755      -0.00182174
Te       3.43165748       4.48855249       5.94380573       0.00105001      -0.00148587       0.00181958
Te       5.37573439       1.73921405       9.31104475      -0.00105090       0.00148626      -0.00182085
