9
Lattice="5.70863321140109 -1.81934140448565e-07 3.2958812910417508 1.9028775876978117 5.382151195103097 3.2958812527750583 -1.1990940623920632e-07 -1.316556840289212e-07 6.591762789772692" Properties=species:S:1:pos:R:3:forces:R:3 energy=-37.596954345703125 free_energy=-37.596954345703125 stress="-0.00039730180287733674 2.5167651074298192e-08 3.934562453622448e-09 2.5167651074298192e-08 -0.00039735622704029083 1.85080057946152e-08 3.934562453622448e-09 1.85080057946152e-08 -0.00039738300256431103" pbc="T T T"
Ca       1.90287771       1.34553776       3.29588122      -0.00000055      -0.00000089       0.00000035
Ca       5.70863372       4.03661347       9.88764343       0.00000123       0.00000120      -0.00000027
Sn      -0.00000067       0.00000021       0.00000027       0.00000796      -0.00001038      -0.00000491
S        2.00134053       1.41516069       6.59176313       0.00233889       0.00165147      -0.00000077
S        5.61017040       3.96698936       6.59176309      -0.00233507      -0.00165397       0.00000086
S        4.70796280       1.41516134       5.02909291      -0.00117311       0.00165778       0.00202939
S        2.90354758       3.96698955       8.15443172       0.00116479      -0.00164831      -0.00201914
S        2.90354762       3.96698998       5.02909355       0.00116691      -0.00165209       0.00202298
S        4.70796291       1.41516112       8.15443193      -0.00117087       0.00165501      -0.00202817
