9
Lattice="4.621241894372941 8.645439832681812e-08 2.6680751944255223 1.5404139210335857 4.356949347151101 2.6680754113949297 -1.9322205522756546e-07 1.291035004759089e-07 5.336150723521478" Properties=species:S:1:pos:R:3:forces:R:3 energy=-53.85340118408203 free_energy=-53.85340118408203 stress="-0.0003230928268749267 -1.486537115624742e-07 -5.973645045287412e-08 -1.486537115624742e-07 -0.0003229738213121891 2.4649891017247683e-08 -5.973645045287412e-08 2.4649891017247683e-08 -0.0003228374116588384" pbc="T T T"
Ca       1.54041448       1.08923785       2.66807541       0.00000007      -0.00000002       0.00000037
Ca       4.62124195       3.26771167       8.00422604       0.00000032      -0.00000121      -0.00000094
Sc      -0.00000022      -0.00000016       0.00000020       0.00000105       0.00000147       0.00000130
O        1.66532963       1.17756714       5.33615088       0.00571346       0.00403845       0.00000032
O        4.49632529       3.17938325       5.33615075      -0.00571394      -0.00403941       0.00000025
O        3.78857629       1.17756764       4.11029405      -0.00285265       0.00403422       0.00494188
O        2.37307939       3.17938218       6.56200678       0.00285283      -0.00403428      -0.00494134
O        2.37307913       3.17938196       4.11029395       0.00285310      -0.00403535       0.00494325
O        3.78857664       1.17756702       6.56200686      -0.00285396       0.00403607      -0.00494462
