9
Lattice="4.681362055355639 6.084938616362855e-07 2.7027854104654745 1.5604543718925197 4.413631880407061 2.702785791954572 -1.1325620643887003e-07 3.8714253732838155e-07 5.405571017096588" Properties=species:S:1:pos:R:3:forces:R:3 energy=-48.66349411010742 free_energy=-48.66349411010742 stress="-0.00016508577391505241 1.3452631897337142e-08 -6.592042467445935e-08 1.3452631897337142e-08 -0.0001651839556870982 -5.8277894510183614e-08 -6.592042467445935e-08 -5.8277894510183614e-08 -0.00016516043979208916" pbc="T T T"
Ca       1.56045462       1.10340873       2.70278522       0.00000065       0.00000057       0.00000018
Ca       4.68136163       3.31022430       8.10835615       0.00000096      -0.00000022      -0.00000223
Sn       0.00000055       0.00000034      -0.00000049      -0.00000688      -0.00000212       0.00000637
O        1.68955931       1.19469928       5.40557093      -0.00322366      -0.00227958       0.00000035
O        4.55225706       3.21893293       5.40557197       0.00322688       0.00228107      -0.00000172
O        3.83658147       1.19469999       4.16598610       0.00161320      -0.00227988      -0.00279313
O        2.40523478       3.21893345       6.64515580      -0.00161147       0.00228053       0.00279170
O        2.40523387       3.21893279       4.16598734      -0.00161195       0.00228095      -0.00279105
O        3.83658193       1.19470016       6.64515559       0.00161260      -0.00228137       0.00279117
