9
Lattice="6.509882568832699 4.976613153027077e-08 3.758482528277524 2.169960873078772 6.137576186919869 3.7584825804447854 -5.441983107669813e-09 6.004351194827284e-08 7.516965065980831" Properties=species:S:1:pos:R:3:forces:R:3 energy=-31.388214111328125 free_energy=-31.388214111328125 stress="5.128739940118976e-05 2.2558981349618534e-09 -1.1246964248812219e-08 2.2558981349618534e-09 5.1296159654157236e-05 9.991460991898293e-09 -1.1246964248812219e-08 9.991460991898293e-09 5.129559576744214e-05" pbc="T T T"
Ca       2.16996082       1.53439412       3.75848258      -0.00000044      -0.00000015       0.00000068
Ca       6.50988261       4.60318183      11.27544757       0.00000033      -0.00000140      -0.00000012
Sn       0.00000001       0.00000005      -0.00000017      -0.00000112      -0.00000008      -0.00000006
Te       2.33780919       1.65308088       7.51696502      -0.00190932      -0.00135089       0.00000005
Te       6.34203415       4.48449560       7.51696523       0.00191104       0.00135081       0.00000007
Te       5.34097798       1.65308086       5.78308483       0.00095570      -0.00135045      -0.00165373
Te       3.33886528       4.48449549       9.25084529      -0.00095578       0.00135107       0.00165468
Te       3.33886547       4.48449544       5.78308482      -0.00095472       0.00135040      -0.00165516
Te       5.34097826       1.65308092       9.25084555       0.00095423      -0.00134929       0.00165367
