9
Lattice="6.289358828266989 1.1715798871228301e-07 3.63116293903741 2.0964529811099486 5.92966424586839 3.631163063924061 -6.958673256865899e-08 1.0374900122878147e-07 7.262325998602595" Properties=species:S:1:pos:R:3:forces:R:3 energy=-31.938941955566406 free_energy=-31.938941955566406 stress="-5.838667493662797e-05 2.0526604416204464e-08 -1.1893217077840745e-08 2.0526604416204464e-08 -5.837208664161153e-05 8.133919315866933e-09 -1.1893217077840745e-08 8.133919315866933e-09 -5.841515303472988e-05" pbc="T T T"
Ca       2.09645292       1.48241608       3.63116297       0.00000075       0.00000113      -0.00000017
Ca       6.28935881       4.44724853      10.89348933      -0.00000047       0.00000013       0.00000010
Sr      -0.00000018      -0.00000012      -0.00000002       0.00000096       0.00000299       0.00000092
Se       2.37453716       1.67905117       7.26232596       0.00105656       0.00074658       0.00000016
Se       6.01127508       4.25061311       7.26232569      -0.00105629      -0.00074794      -0.00000052
Se       5.10209041       1.67905137       5.68757225      -0.00052825       0.00074614       0.00091438
Se       3.28372122       4.25061338       8.83707988       0.00052877      -0.00074896      -0.00091550
Se       3.28372128       4.25061313       5.68757207       0.00052819      -0.00074844       0.00091604
Se       5.10209023       1.67905118       8.83707986      -0.00053023       0.00074837      -0.00091544
