9
Lattice="6.0791365069609835 9.300805538942093e-08 3.5097910554678653 2.026378980961123 5.731464707917723 3.5097909556694664 1.0122790940514213e-07 -5.064865884346188e-08 7.019581935603842" Properties=species:S:1:pos:R:3:forces:R:3 energy=-33.155242919921875 free_energy=-33.155242919921875 stress="-2.5249157260986976e-05 3.294364958605911e-08 -1.646064173854711e-09 3.294364958605911e-08 -2.524392584746238e-05 -5.549614989774909e-09 -1.646064173854711e-09 -5.549614989774909e-09 -2.5277930035372265e-05" pbc="T T T"
Ca       2.02637904       1.43286632       3.50979110      -0.00000051       0.00000149      -0.00000011
Ca       6.07913658       4.29859819      10.52937255      -0.00000027      -0.00000089      -0.00000115
Sr      -0.00000015       0.00000075      -0.00000107       0.00000316      -0.00001025       0.00001049
S        2.30160216       1.62747824       7.01958168      -0.00438365      -0.00310045      -0.00000141
S        5.80391336       4.10398596       7.01958208       0.00438766       0.00310105       0.00000046
S        4.92833543       1.62747875       5.50303667       0.00219059      -0.00309967      -0.00379828
S        3.17718005       4.10398643       8.53612768      -0.00219165       0.00309964       0.00379802
S        3.17718000       4.10398608       5.50303724      -0.00219592       0.00310439      -0.00380103
S        4.92833593       1.62747824       8.53612788       0.00219052      -0.00309517       0.00379289
