9
Lattice="4.614399286950802 -1.0508114353264296e-07 2.6641246582662665 1.5381330701436982 4.350496348891088 2.6641245308482016 -3.4308322495491684e-08 -1.8031430484913608e-07 5.328249375956267" Properties=species:S:1:pos:R:3:forces:R:3 energy=-49.946937561035156 free_energy=-49.946937561035156 stress="-0.00015319751400966197 -5.789303969550019e-08 -1.1173580283241336e-08 -5.789303969550019e-08 -0.00015337849617935717 -1.723581277701669e-08 -1.1173580283241336e-08 -1.723581277701669e-08 -0.00015281794185284525" pbc="T T T"
Ca       1.53813314       1.08762387       2.66412448       0.00000131      -0.00000203       0.00000088
Ca       4.61439930       3.26287212       7.99237400       0.00000003       0.00000019      -0.00000027
Se       0.00000056      -0.00000086      -0.00000010       0.00000389      -0.00000502       0.00000330
O        1.51484946       1.07115958       5.32824938       0.00307906       0.00218356      -0.00000106
O        4.63768210       3.27933659       5.32824934      -0.00307608      -0.00217760      -0.00000125
O        3.85697458       1.07116001       3.97602240      -0.00154060       0.00218177       0.00266540
O        2.29555726       3.27933651       6.68047591       0.00153774      -0.00217962      -0.00266528
O        2.29555778       3.27933687       3.97602265       0.00153625      -0.00218189       0.00266457
O        3.85697445       1.07115996       6.68047594      -0.00154096       0.00218093      -0.00266623
