9
Lattice="6.435613230776746 -3.489400648507998e-08 3.7156032025523924 2.145204321238833 6.067554509368768 3.7156032997580355 -3.888376230813666e-09 1.1630263412467441e-07 7.431206411839588" Properties=species:S:1:pos:R:3:forces:R:3 energy=-36.563785552978516 free_energy=-36.563785552978516 stress="7.950256076583173e-06 -3.151945904278364e-08 -4.675406284349037e-09 -3.151945904278364e-08 7.97130724095041e-06 1.0773517189477388e-08 -4.675406284349037e-09 1.0773517189477388e-08 8.000019079190679e-06" pbc="T T T"
Ca       2.14520449       1.51688874       3.71560338       0.00000010      -0.00000030       0.00000020
Ca       6.43561313       4.55066571      11.14680952      -0.00000007       0.00000024       0.00000011
Sc      -0.00000061      -0.00000015      -0.00000144       0.00000727       0.00000248       0.00001593
Te       2.30102104       1.62706765       7.43120652      -0.00123720      -0.00087351      -0.00000022
Te       6.27979707       4.44048732       7.43120659       0.00122977       0.00087018       0.00000005
Te       5.28510234       1.62706788       5.70834665       0.00062053      -0.00087674      -0.00107550
Te       3.29571483       4.44048688       9.15406692      -0.00061599       0.00087119       0.00106622
Te       3.29571526       4.44048689       5.70834638      -0.00062024       0.00087692      -0.00107361
Te       5.28510266       1.62706743       9.15406715       0.00061591      -0.00087043       0.00106677
