9
Lattice="4.862304963631241 7.769595343403859e-08 2.807253183550653 1.6207683682637177 4.5842252885670085 2.807253228928942 -1.9562850104369864e-08 4.1743797532569965e-08 5.614506400985143" Properties=species:S:1:pos:R:3:forces:R:3 energy=-43.75462341308594 free_energy=-43.75462341308594 stress="-8.716103911865503e-05 -1.71662968284636e-08 -4.8941934949198185e-09 -1.71662968284636e-08 -8.719378820387647e-05 4.267630693277624e-09 -4.8941934949198185e-09 4.267630693277624e-09 -8.717971650185063e-05" pbc="T T T"
Ca       1.62076807       1.14605624       2.80725324       0.00000062      -0.00000079       0.00000025
Ca       4.86230497       3.43816883       8.42175993      -0.00000064       0.00000115       0.00000001
Sr       0.00000013      -0.00000001       0.00000012      -0.00000063       0.00000159       0.00000041
O        1.86823873       1.32104434       5.61450640      -0.00085062      -0.00060138       0.00000083
O        4.61483455       3.26318114       5.61450641       0.00085008       0.00060037       0.00000024
O        3.92818557       1.32104436       4.42519534       0.00042613      -0.00060248      -0.00073689
O        2.55488770       3.26318131       6.80381736      -0.00042498       0.00060087       0.00073558
O        2.55488795       3.26318105       4.42519520      -0.00042546       0.00060174      -0.00073698
O        3.92818560       1.32104435       6.80381721       0.00042523      -0.00060138       0.00073683
