9
Lattice="6.713390038605783 -6.074891407517655e-08 3.875977541191004 2.237796604348204 6.3294447772479 3.875977572216183 -8.541071876327459e-08 -2.2396587332605853e-08 7.751955230317801" Properties=species:S:1:pos:R:3:forces:R:3 energy=-30.15608024597168 free_energy=-30.15608024597168 stress="1.0360493433836382e-05 -1.0874287248441306e-08 -2.5333470876631736e-09 -1.0874287248441306e-08 1.0358136023569386e-05 6.890799042480467e-09 -2.5333470876631736e-09 6.890799042480467e-09 1.0373279110353906e-05" pbc="T T T"
Ca       2.23779658       1.58236122       3.87597759      -0.00000028       0.00000026      -0.00000061
Ca       6.71339002       4.74708355      11.62793259      -0.00000005      -0.00000041      -0.00000009
Sr       0.00000010      -0.00000008       0.00000030       0.00000062      -0.00000014      -0.00000057
Te       2.52709018       1.78692263       7.75195507       0.00543274       0.00384060       0.00000035
Te       6.42409629       4.54252196       7.75195517      -0.00543171      -0.00384007      -0.00000031
Te       5.44984485       1.78692301       6.06450213      -0.00271546       0.00384010       0.00470442
Te       3.50134162       4.54252168       9.43940825       0.00271478      -0.00384090      -0.00470318
Te       3.50134182       4.54252201       6.06450214       0.00271552      -0.00383975       0.00470376
Te       5.44984481       1.78692279       9.43940809      -0.00271620       0.00384035      -0.00470383
