9
Lattice="5.602570811387941 -1.8344793159437591e-07 3.2346457431842035 1.8675235127760241 5.2821532581626265 3.234645601266172 1.4736618142840033e-07 -6.960974159363321e-08 6.46929123112273" Properties=species:S:1:pos:R:3:forces:R:3 energy=-41.78911209106445 free_energy=-41.78911209106445 stress="3.22292726195883e-05 -1.1996117876833523e-08 3.0242912174571757e-08 -1.1996117876833523e-08 3.241208833060227e-05 -6.376185268663903e-08 3.0242912174571757e-08 -6.376185268663903e-08 3.2228679629042745e-05" pbc="T T T"
Ca       1.86752399       1.32053888       3.23464554       0.00000045       0.00000101       0.00000062
Ca       5.60257063       3.96161426       9.70393639      -0.00000089      -0.00000135      -0.00000014
Sc      -0.00000035      -0.00000013      -0.00000074       0.00000285       0.00000160       0.00001270
S        1.97510081       1.39660841       6.46929096      -0.00173374      -0.00122355       0.00000032
S        5.49499158       3.88554763       6.46929134       0.00172852       0.00122742       0.00000029
S        4.61502102       1.39660720       4.94513473       0.00086937      -0.00122702      -0.00149779
S        2.85507426       3.88554416       7.99345016      -0.00086295       0.00121813       0.00149709
S        2.85507453       3.88554391       4.94513258      -0.00086921       0.00122659      -0.00150782
S        4.61502138       1.39660770       7.99344926       0.00086543      -0.00122300       0.00149487
