9
Lattice="5.625319944671443 -1.3279553082332204e-07 3.2477798214419784 1.875106486400438 5.303602422134462 3.247779884874085 -5.24230732506483e-08 4.061947028467114e-08 6.495559733683335" Properties=species:S:1:pos:R:3:forces:R:3 energy=-36.92981719970703 free_energy=-36.92981719970703 stress="-5.1332699513295665e-05 -1.6174603878482685e-09 -2.4286084254754314e-08 -1.6174603878482685e-09 -5.13008089910727e-05 2.7503251232019466e-08 -2.4286084254754314e-08 2.7503251232019466e-08 -5.130701174493879e-05" pbc="T T T"
Ca       1.87510659       1.32590102       3.24777967      -0.00000086      -0.00000028       0.00000035
Ca       5.62531967       3.97770157       9.74334002      -0.00000027      -0.00000008       0.00000017
Se       0.00000010       0.00000072      -0.00000026       0.00000366      -0.00001968       0.00000964
S        1.84641958       1.30561583       6.49555979       0.00042588       0.00030050       0.00000075
S        5.65400640       3.99798638       6.49555955      -0.00041589      -0.00029477      -0.00000010
S        4.70211005       1.30561584       4.84682600      -0.00020929       0.00029641       0.00036380
S        2.79831648       3.99798607       8.14429291       0.00020576      -0.00029394      -0.00035787
S        2.79831651       3.99798631       4.84682656       0.00020491      -0.00029022       0.00035453
S        4.70211006       1.30561565       8.14429349      -0.00021419       0.00030184      -0.00037092
