9
Lattice="6.343669751979065 7.823468609139913e-08 3.6625195002753923 2.114556659970845 5.980869156182024 3.662519496434645 1.1345203183089876e-08 3.318292931242554e-09 7.325038980900337" Properties=species:S:1:pos:R:3:forces:R:3 energy=-37.641578674316406 free_energy=-37.641578674316406 stress="-2.077660246868618e-05 -4.161366362609442e-09 4.194468772311666e-09 -4.161366362609442e-09 -2.0776091332663782e-05 -4.523672103573517e-09 4.194468772311666e-09 -4.523672103573517e-09 -2.0772697098436765e-05" pbc="T T T"
Ca       2.11455659       1.49521755       3.66251963       0.00000046       0.00000016       0.00000010
Ca       6.34366975       4.48565155      10.98755854       0.00000009      -0.00000024       0.00000040
Ti       0.00000002      -0.00000001      -0.00000027       0.00000049       0.00000022       0.00000311
Te       2.21637011       1.56721085       7.32503899       0.00048520       0.00034345      -0.00000009
Te       6.24185627       4.41365852       7.32503865      -0.00048520      -0.00034323      -0.00000037
Te       5.23548445       1.56721048       5.58195260      -0.00024247       0.00034210       0.00041900
Te       3.22274191       4.41365898       9.06812569       0.00024331      -0.00034362      -0.00042039
Te       3.22274181       4.41365873       5.58195258       0.00024151      -0.00034221       0.00041839
Te       5.23548480       1.56721032       9.06812548      -0.00024338       0.00034343      -0.00042015
