9
Lattice="4.6726257494413455 -1.796816333825721e-07 2.6977417560341808 1.5575417676426733 4.4053937223177915 2.6977417204099168 -1.5344543852914403e-07 -1.5213289489924712e-07 5.395483777843549" Properties=species:S:1:pos:R:3:forces:R:3 energy=-58.114990234375 free_energy=-58.114990234375 stress="1.4868655853206292e-05 6.090333926067615e-08 4.616460103079589e-08 6.090333926067615e-08 1.4653285688837059e-05 -4.013437404637443e-08 4.616460103079589e-08 -4.013437404637443e-08 1.4583057236450259e-05" pbc="T T T"
Ca       1.55754174       1.10134868       2.69774189       0.00000005      -0.00000070      -0.00000003
Ca       4.67262586       3.30404496       8.09322535       0.00000048       0.00000038      -0.00000115
Ti      -0.00000020      -0.00000018      -0.00000060       0.00000168       0.00000273       0.00000270
O        1.55494881       1.09951483       5.39548417      -0.00265455      -0.00187758      -0.00000081
O        4.67521928       3.30587849       5.39548406       0.00265002       0.00187418      -0.00000063
O        3.89515115       1.09951437       4.04436646       0.00132424      -0.00187248      -0.00229323
O        2.33501566       3.30587881       6.74660062      -0.00132391       0.00187293       0.00229293
O        2.33501601       3.30587922       4.04436683      -0.00132397       0.00187483      -0.00229514
O        3.89515114       1.09951452       6.74660050       0.00132561      -0.00187427       0.00229573
