9
Lattice="5.87752244534201 -7.074532499199092e-08 3.393389076432104 1.9591739825243146 5.541381754749583 3.3933892482925767 -9.786255081998569e-08 1.412859492543265e-07 6.7867783223671285" Properties=species:S:1:pos:R:3:forces:R:3 energy=-41.417938232421875 free_energy=-41.417938232421875 stress="-2.5339715648442507e-05 -1.6604314367896222e-08 -2.221989525708068e-08 -1.6604314367896222e-08 -2.536422289267648e-05 1.3450973668227562e-08 -2.221989525708068e-08 1.3450973668227562e-08 -2.5306108000222594e-05" pbc="T T T"
Ca       1.95917459       1.38534533       3.39338901       0.00000032      -0.00000044      -0.00000020
Ca       5.87752174       4.15603659      10.18016758      -0.00000013      -0.00000026       0.00000003
Ti      -0.00000011      -0.00000037       0.00000039      -0.00000001       0.00000082      -0.00000103
Se       2.01637944       1.42579588       6.78677829       0.00069336       0.00049035       0.00000014
Se       5.82031670       4.11558617       6.78677815      -0.00069532      -0.00049025      -0.00000006
Se       4.86933242       1.42579583       5.13962541      -0.00034699       0.00048850       0.00059906
Se       2.96736382       4.11558579       8.43393114       0.00034686      -0.00049017      -0.00059772
Se       2.96736413       4.11558590       5.13962551       0.00034805      -0.00049055       0.00060066
Se       4.86933258       1.42579613       8.43393112      -0.00034599       0.00049192      -0.00060094
