9
Lattice="6.250705415515815 -9.155797723396364e-08 3.608846358964005 2.0835684830833245 5.893221355929941 3.608846189973928 1.4425109479669664e-08 -1.967696165522052e-07 7.217692692942834" Properties=species:S:1:pos:R:3:forces:R:3 energy=-37.53069305419922 free_energy=-37.53069305419922 stress="2.8973814551136456e-05 2.3489890921268852e-08 -4.496512051588297e-09 2.3489890921268852e-08 2.896294063248206e-05 1.7717015410312342e-08 -4.496512051588297e-09 1.7717015410312342e-08 2.8933780413353816e-05" pbc="T T T"
Ca       2.08356861       1.47330539       3.60884631      -0.00000001      -0.00000020       0.00000003
Ca       6.25070528       4.41991533      10.82653932      -0.00000018      -0.00000034       0.00000054
V        0.00000022       0.00000059      -0.00000057       0.00000048      -0.00000165       0.00000153
Te       2.17899368       1.54078116       7.21769258       0.00176051       0.00124428      -0.00000032
Te       6.15528037       4.35244001       7.21769198      -0.00175957      -0.00124475      -0.00000051
Te       5.16120867       1.54078061       5.49590999      -0.00088113       0.00124548       0.00152666
Te       3.17306514       4.35244019       8.93947537       0.00088149      -0.00124547      -0.00152560
Te       3.17306527       4.35244014       5.49591015       0.00088051      -0.00124524       0.00152497
Te       5.16120843       1.54078089       8.93947587      -0.00088213       0.00124785      -0.00152722
