9
Lattice="5.8259628424704575 -9.21152983706015e-08 3.363621042083838 1.9419875856053583 5.492770034230241 3.363620941112712 5.146784110623474e-08 -8.727058640222566e-08 6.727241995022784" Properties=species:S:1:pos:R:3:forces:R:3 energy=-41.38189697265625 free_energy=-41.38189697265625 stress="-4.986650765204104e-06 -4.9070951746443825e-09 1.9880226631574516e-10 -4.9070951746443825e-09 -4.963176706951344e-06 7.070608099013498e-09 1.9880226631574516e-10 7.070608099013498e-09 -4.9972736633208115e-06" pbc="T T T"
Ca       1.94198730       1.37319220       3.36362120      -0.00000022      -0.00000014      -0.00000018
Ca       5.82596294       4.11957739      10.09086297       0.00000015       0.00000024       0.00000027
V        0.00000023       0.00000023       0.00000033       0.00000016      -0.00000016      -0.00000010
Se       1.96905143       1.39232925       6.72724193      -0.00117445      -0.00083108      -0.00000048
Se       5.79889898       4.10044052       6.72724177       0.00117575       0.00083120      -0.00000064
Se       4.84143716       1.39232942       5.06886961       0.00058722      -0.00083083      -0.00101794
Se       2.92651342       4.10044052       8.38561427      -0.00058841       0.00083175       0.00101924
Se       2.92651322       4.10044051       5.06886945      -0.00058779       0.00083081      -0.00101867
Se       4.84143725       1.39232937       8.38561439       0.00058774      -0.00083187       0.00101842
