9
Lattice="5.491154410179478 1.0427613428211249e-07 3.170319252129955 1.83038489356631 5.177109375063949 3.170319266227664 1.381967402389023e-07 1.1498597378466708e-07 6.340638264896126" Properties=species:S:1:pos:R:3:forces:R:3 energy=-45.596046447753906 free_energy=-45.596046447753906 stress="-2.8033913622493856e-05 8.212705182586433e-09 3.77180242594477e-09 8.212705182586433e-09 -2.808102362905629e-05 -3.9663522244381966e-08 3.77180242594477e-09 -3.9663522244381966e-08 -2.8074378860765137e-05" pbc="T T T"
Ca       1.83038431       1.29427741       3.17031928      -0.00000036      -0.00000010      -0.00000050
Ca       5.49115485       3.88283172       9.51095747      -0.00000012       0.00000118       0.00000048
V        0.00000002       0.00000002       0.00000006       0.00000317       0.00000638      -0.00000206
S        1.83479570       1.29739613       6.34063835       0.00008094       0.00005776       0.00000008
S        5.48674435       3.87971399       6.34063866      -0.00008935      -0.00006300       0.00000017
S        4.57375666       1.29739611       4.75929809      -0.00004107       0.00006044       0.00007409
S        2.74778276       3.87971356       7.92197878       0.00004342      -0.00006038      -0.00007522
S        2.74778245       3.87971331       4.75929803       0.00004354      -0.00006065       0.00007594
S        4.57375687       1.29739609       7.92197870      -0.00004029       0.00005868      -0.00007236
