9
Lattice="4.714979437471389 1.8526083184939e-07 2.7221943230990204 1.571659798545377 4.445326090546349 2.7221946497823364 -6.74936563916127e-08 3.5237838503164515e-07 5.444388763100563" Properties=species:S:1:pos:R:3:forces:R:3 energy=-56.11808395385742 free_energy=-56.11808395385742 stress="-5.426257484941743e-05 4.4292630008158085e-08 -1.057468512755122e-08 4.4292630008158085e-08 -5.433272963273339e-05 9.449311022535767e-08 -1.057468512755122e-08 9.449311022535767e-08 -5.4345757234841585e-05" pbc="T T T"
Ca       1.57165971       1.11133164       2.72219486       0.00000062       0.00000087      -0.00000001
Ca       4.71497928       3.33399472       8.16658324      -0.00000019      -0.00000124       0.00000263
V        0.00000011      -0.00000111      -0.00000014      -0.00000022      -0.00000239       0.00000316
O        1.52664502       1.07950169       5.44438903       0.00056696       0.00040162      -0.00000047
O        4.75999430       3.36582564       5.44438821      -0.00057340      -0.00040275       0.00000260
O        3.95165669       1.07950152       4.04430743      -0.00028360       0.00040126       0.00049049
O        2.33498123       3.36582597       6.84447092       0.00028884      -0.00040537      -0.00049746
O        2.33498226       3.36582508       4.04430732       0.00028527      -0.00040144       0.00049633
O        3.95165777       1.07950121       6.84447047      -0.00028414       0.00041044      -0.00049752
