9
Lattice="5.879070706365924 4.7168768148349896e-08 3.39428306971659 1.959690286630934 5.542841043732095 3.394283058104007 -6.6887290652583515e-09 -1.8952070649112965e-08 6.788566151018311" Properties=species:S:1:pos:R:3:forces:R:3 energy=-40.862064361572266 free_energy=-40.862064361572266 stress="-0.00011959608673350886 -2.0856017357573364e-08 3.3276589816999547e-10 -2.0856017357573364e-08 -0.00011961140990024433 8.308520094146843e-09 3.3276589816999547e-10 8.308520094146843e-09 -0.00011958863615291193" pbc="T T T"
Ca       1.95969000       1.38570975       3.39428324      -0.00000067      -0.00000139       0.00000017
Ca       5.87907055       4.15713060      10.18284926       0.00000024       0.00000022      -0.00000089
Y       -0.00000034      -0.00000065      -0.00000129       0.00000455       0.00000950       0.00001605
S        2.13159738       1.50726707       6.78856602      -0.00189235      -0.00133798      -0.00000091
S        5.70716429       4.03557471       6.78856616       0.00188583       0.00133270      -0.00000088
S        4.81327204       1.50726715       5.24030070       0.00094825      -0.00133926      -0.00164044
S        3.02548874       4.03557437       8.33683225      -0.00094177       0.00133377       0.00163224
S        3.02548889       4.03557425       5.24030061      -0.00094639       0.00133768      -0.00163945
S        4.81327241       1.50726701       8.33683216       0.00094233      -0.00133523       0.00163420
