9
Lattice="6.59235147332651 9.087400184147648e-08 3.8060959109828154 2.1974506058881507 6.215328563095823 3.8060958605758173 4.7492220251689246e-08 -2.815363039635128e-08 7.61219173970665" Properties=species:S:1:pos:R:3:forces:R:3 energy=-36.27155303955078 free_energy=-36.27155303955078 stress="3.1951840355759487e-05 3.035415474528236e-08 -6.547778430565643e-10 3.035415474528236e-08 3.191598443663679e-05 3.551789973244013e-09 -6.547778430565643e-10 3.551789973244013e-09 3.1901592592475936e-05" pbc="T T T"
Ca       2.19745076       1.55383220       3.80609583       0.00000002      -0.00000029       0.00000008
Ca       6.59235164       4.66149679      11.41828780       0.00000008       0.00000005       0.00000067
Y        0.00000008      -0.00000023      -0.00000004      -0.00000106      -0.00000085       0.00000021
Te       2.40804570       1.70274545       7.61219178       0.00823069       0.00582041      -0.00000062
Te       6.38175617       4.51258325       7.61219169      -0.00823057      -0.00581999       0.00000016
Te       5.38832881       1.70274518       5.89152461      -0.00411678       0.00582178       0.00712953
Te       3.40147335       4.51258327       9.33285886       0.00411766      -0.00582199      -0.00712990
Te       3.40147331       4.51258331       5.89152470       0.00411675      -0.00582126       0.00712883
Te       5.38832869       1.70274525       9.33285883      -0.00411671       0.00582214      -0.00712905
