9
Lattice="6.1772552907469676 7.777224346345478e-08 3.5664399248864416 2.0590851159727963 5.823972181259485 3.566440018880141 -1.0432497708937488e-07 4.1349334632601265e-08 7.132880030469085" Properties=species:S:1:pos:R:3:forces:R:3 energy=-38.379486083984375 free_energy=-38.379486083984375 stress="-0.0002348291891394183 2.4659215114297695e-08 1.1469249550088989e-08 2.4659215114297695e-08 -0.00023481817333959043 -2.325796089053256e-08 1.1469249550088989e-08 -2.325796089053256e-08 -0.0002348427806282416" pbc="T T T"
Ca       2.05908496       1.45599283       3.56644024      -0.00000017      -0.00000085       0.00000058
Ca       6.17725528       4.36797931      10.69931971       0.00000061       0.00000160       0.00000074
Y       -0.00000012       0.00000012       0.00000046      -0.00000048      -0.00000156      -0.00000248
Se       2.24736755       1.58912883       7.13287983       0.00581954       0.00411506      -0.00000003
Se       5.98897278       4.23484341       7.13288006      -0.00581840      -0.00411409       0.00000005
Se       5.05357183       1.58912878       5.51271717      -0.00291117       0.00411677       0.00504144
Se       3.18276863       4.23484341       8.75304261       0.00290957      -0.00411486      -0.00504115
Se       3.18276889       4.23484343       5.51271729       0.00291083      -0.00411676       0.00504149
Se       5.05357144       1.58912907       8.75304250      -0.00291026       0.00411472      -0.00504072
