9
Lattice="5.7714766822290136 -3.690555520492971e-08 3.332163544655813 1.9238254643120667 5.4414004006224355 3.332163651412569 -5.6002747266906994e-08 9.114995345899722e-08 6.664327186311255" Properties=species:S:1:pos:R:3:forces:R:3 energy=-31.5856990814209 free_energy=-31.5856990814209 stress="1.6523101294296794e-05 -1.045475972460963e-08 1.4274671222835877e-08 -1.045475972460963e-08 1.650808371778112e-05 -2.4812936150198084e-09 1.4274671222835877e-08 -2.4812936150198084e-09 1.653386789257638e-05" pbc="T T T"
Ca       1.92382607       1.36035047       3.33216361       0.00000055       0.00000032       0.00000028
Ca       5.77147655       4.08105016       9.99649048      -0.00000036      -0.00000027      -0.00000043
Zn       0.00000008      -0.00000001      -0.00000042      -0.00000072       0.00000183       0.00000570
Se       2.02683598       1.43318958       6.66432719      -0.00075819      -0.00053535       0.00000061
Se       5.66846625       4.00821070       6.66432739       0.00075816       0.00053571      -0.00000047
Se       4.75805805       1.43318958       5.08745514       0.00038090      -0.00053883      -0.00065891
Se       2.93724359       4.00821097       8.24119964      -0.00037876       0.00053465       0.00065528
Se       2.93724369       4.00821059       5.08745516      -0.00038002       0.00053769      -0.00065801
Se       4.75805804       1.43318976       8.24119937       0.00037838      -0.00053565       0.00065592
