9
Lattice="6.2863240595487415 -9.557931839122772e-08 3.6294109217021693 2.0954412947930843 5.926803083859704 3.629410866755924 -6.307629650884246e-08 -1.1189672442804191e-07 7.258821952655635" Properties=species:S:1:pos:R:3:forces:R:3 energy=-28.97837257385254 free_energy=-28.97837257385254 stress="7.888206710049417e-06 -1.7648197569997137e-08 4.063646752427985e-09 -1.7648197569997137e-08 7.870890840422362e-06 1.775931623981819e-09 4.063646752427985e-09 1.775931623981819e-09 7.890428605605848e-06" pbc="T T T"
Ca       2.09544159       1.48170083       3.62941111       0.00000001       0.00000017       0.00000012
Ca       6.28632374       4.44510251      10.88823296       0.00000019       0.00000080       0.00000051
Zn       0.00000019      -0.00000014       0.00000016      -0.00000149       0.00000137      -0.00000044
Te       2.21868889       1.56884916       7.25882188      -0.00010556      -0.00007486       0.00000001
Te       6.16307689       4.35795364       7.25882138       0.00010458       0.00007325      -0.00000006
Te       5.17697927       1.56884934       5.55085189       0.00005297      -0.00007501      -0.00009254
Te       3.20478567       4.35795339       8.96679206      -0.00005122       0.00007399       0.00009076
Te       3.20478566       4.35795358       5.55085165      -0.00005228       0.00007417      -0.00009097
Te       5.17697925       1.56884917       8.96679199       0.00005274      -0.00007392       0.00009257
