9
Lattice="5.440482457072711 5.186765406941252e-08 3.1410640747025202 1.8134941437910235 5.129335636620635 3.1410641742397942 1.4689764519827128e-07 2.2578006851340772e-07 6.282127894970831" Properties=species:S:1:pos:R:3:forces:R:3 energy=-33.72199249267578 free_energy=-33.72199249267578 stress="-2.1274861865094863e-05 1.8912402310888865e-08 -1.2658882830862694e-08 1.8912402310888865e-08 -2.1211888451944105e-05 1.0588179222281724e-08 -1.2658882830862694e-08 1.0588179222281724e-08 -2.1316929633030668e-05" pbc="T T T"
Ca       1.81349408       1.28233297       3.14106365       0.00000003       0.00000029       0.00000022
Ca       5.44048223       3.84700248       9.42319170       0.00000005       0.00000028       0.00000101
Zn      -0.00000009      -0.00000052      -0.00000075       0.00000261       0.00000761       0.00001613
S        1.87998791       1.32935280       6.28212802      -0.00112721      -0.00079724       0.00000158
S        5.37398908       3.79998398       6.28212797       0.00112042       0.00079186       0.00000076
S        4.50048839       1.32935191       4.76918169       0.00056638      -0.00080007      -0.00097838
S        2.75348835       3.79998459       7.79507495      -0.00055677       0.00078869       0.00096729
S        2.75348808       3.79998364       4.76918166      -0.00056441       0.00079861      -0.00097713
S        4.50048889       1.32935180       7.79507560       0.00055911      -0.00078999       0.00096869
