9
Lattice="5.656686952206394 -6.3612019059786395e-09 3.26588994723814 1.8855623602108038 5.333175864376486 3.265889862703589 -9.369047212070256e-08 -1.6978241179531646e-07 6.531780056753001" Properties=species:S:1:pos:R:3:forces:R:3 energy=-23.597332000732422 free_energy=-23.597332000732422 stress="-0.00011226247443119064 -1.426965923201351e-08 1.0682250639604263e-08 -1.426965923201351e-08 -0.00011230182280996814 1.5852776868996443e-08 1.0682250639604263e-08 1.5852776868996443e-08 -0.00011233301484026015" pbc="T T T"
Cd       1.88556330       1.33329353       3.26588927       0.00000266      -0.00000098      -0.00000207
Cd       5.65668691       3.99988168       9.79766976      -0.00000028      -0.00000025      -0.00000166
Ag      -0.00000050      -0.00000030      -0.00000249       0.00000558       0.00000479       0.00004100
S        2.01077939       1.42183573       6.53178014      -0.00197625      -0.00139639      -0.00000162
S        5.53146988       3.91134058       6.53177918       0.00197047       0.00139394      -0.00000293
S        4.65129670       1.42183597       5.00727675       0.00098982      -0.00140214      -0.00171748
S        2.89095198       3.91134036       8.05628503      -0.00098142       0.00138909       0.00170022
S        2.89095241       3.91134002       5.00727674      -0.00099084       0.00140205      -0.00171730
S        4.65129685       1.42183514       8.05628524       0.00098041      -0.00139001       0.00170189
