9
Lattice="4.7255038536696485 -4.1968523592522887e-08 2.7282708982826946 1.575167932985944 4.455247700604438 2.728270861336297 -1.5421498710673067e-08 -5.615465394474069e-08 5.456541823276224" Properties=species:S:1:pos:R:3:forces:R:3 energy=-32.919395446777344 free_energy=-32.919395446777344 stress="-7.920344069134444e-05 -4.02399252807939e-10 7.023029979791318e-08 -4.02399252807939e-10 -7.927305705379695e-05 -8.339392110201516e-08 7.023029979791318e-08 -8.339392110201516e-08 -7.920007192296907e-05" pbc="T T T"
Cd       1.57516808       1.11381226       2.72827103       0.00000008       0.00000047       0.00000074
Cd       4.72550399       3.34143573       8.18481268       0.00000029      -0.00000019      -0.00000030
Au      -0.00000003      -0.00000011      -0.00000014       0.00000148      -0.00000200       0.00000467
O        1.61397232       1.14125071       5.45654167       0.00041622       0.00029421       0.00000034
O        4.68669936       3.31399679       5.45654212      -0.00041604      -0.00029433       0.00000043
O        3.91851770       1.14125060       4.12601186      -0.00020897       0.00029576       0.00036103
O        2.38215405       3.31399719       6.78707154       0.00020957      -0.00029680      -0.00036260
O        2.38215386       3.31399667       4.12601167       0.00020581      -0.00029179       0.00035608
O        3.91851785       1.14125058       6.78707191      -0.00020856       0.00029433      -0.00036046
