9
Lattice="4.686071130768569 2.0781988159800468e-08 2.705504539509283 1.5620237520126727 4.418070016320049 2.7055045011217884 -4.797785335221844e-08 -8.094035272036329e-08 5.411009162118638" Properties=species:S:1:pos:R:3:forces:R:3 energy=-31.142070770263672 free_energy=-31.142070770263672 stress="1.2271722880541347e-05 -2.394661002824705e-08 6.225091908618197e-08 -2.394661002824705e-08 1.2343889466137625e-05 2.2170496549733798e-08 6.225091908618197e-08 2.2170496549733798e-08 1.2145796972617973e-05" pbc="T T T"
Cd       1.56202325       1.10451741       2.70550408      -0.00000151      -0.00000134      -0.00000156
Cd       4.68607133       3.31355329       8.11651233       0.00000071       0.00000269      -0.00000496
Ag       0.00000017      -0.00000006      -0.00000107      -0.00000032       0.00000132       0.00000701
O        1.67895371       1.18719854       5.41100894      -0.00086153      -0.00061142       0.00000037
O        4.56914103       3.23087109       5.41100954       0.00086069       0.00061202       0.00000134
O        3.84659437       1.18719926       4.15952205       0.00043356      -0.00061262      -0.00074589
O        2.40150014       3.23087099       6.66249784      -0.00043076       0.00060731       0.00074548
O        2.40150021       3.23087017       4.15952148      -0.00043356       0.00061041      -0.00074643
O        3.84659509       1.18719919       6.66249782       0.00043243      -0.00060838       0.00074518
