9
Lattice="6.314065456624314 -1.5840229426807595e-07 3.6454276562458094 2.104688449447194 5.952957970555345 3.645427460093017 1.5734938479439306e-07 -1.2897438182818186e-07 7.29085503995455" Properties=species:S:1:pos:R:3:forces:R:3 energy=-21.479904174804688 free_energy=-21.479904174804688 stress="-1.2226178114360664e-05 -1.494229451282081e-08 4.444220547128452e-09 -1.494229451282081e-08 -1.2215364222356584e-05 -2.122341768995284e-08 4.444220547128452e-09 -2.122341768995284e-08 -1.2242174307175446e-05" pbc="T T T"
Cd       2.10468843       1.48824013       3.64542720      -0.00000035       0.00000017      -0.00000014
Cd       6.31406551       4.46471766      10.93628230      -0.00000023      -0.00000037      -0.00000015
Ag      -0.00000007      -0.00000074       0.00000071      -0.00000051       0.00000438      -0.00000308
Te       2.33024558       1.64773292       7.29085421       0.00266732       0.00188723      -0.00000116
Te       6.08850885       4.30522501       7.29085455      -0.00266849      -0.00188845      -0.00000066
Te       5.14894207       1.64773207       5.66347965      -0.00133427       0.00188546       0.00231172
Te       3.26981189       4.30522559       8.91823149       0.00133571      -0.00188828      -0.00231038
Te       3.26981208       4.30522529       5.66347960       0.00133503      -0.00188618       0.00231157
Te       5.14894188       1.64773285       8.91823088      -0.00133418       0.00188607      -0.00230768
