9
Lattice="5.698841055674128 -3.257538310547086e-08 3.2902275522890942 1.8996135313345375 5.372919910003041 3.290227765639389 -2.117462885603931e-07 1.1157238964146206e-07 6.580455471333614" Properties=species:S:1:pos:R:3:forces:R:3 energy=-23.24364471435547 free_energy=-23.24364471435547 stress="3.715493585332297e-05 3.604161236125947e-08 4.8250107909098006e-08 3.604161236125947e-08 3.700188608490862e-05 -2.2660710641275728e-08 4.8250107909098006e-08 -2.2660710641275728e-08 3.705054405145347e-05" pbc="T T T"
Cd       1.89961360       1.34323042       3.29022747      -0.00000079       0.00000107       0.00000009
Cd       5.69884067       4.02968992       9.87068278       0.00000001       0.00000110      -0.00000075
Ag      -0.00000004      -0.00000002       0.00000152       0.00000116      -0.00000111      -0.00000418
Se       2.21108804       1.56347539       6.58045507       0.00087258       0.00061528       0.00000003
Se       5.38736607       3.80944490       6.58045462      -0.00087282      -0.00061481      -0.00000108
Se       4.59329754       1.56347470       5.20508487      -0.00043620       0.00061424       0.00075477
Se       3.00515674       3.80944548       7.95582520       0.00043397      -0.00061375      -0.00075266
Se       3.00515762       3.80944458       5.20508607       0.00043731      -0.00061630       0.00075720
Se       4.59329726       1.56347458       7.95582557      -0.00043533       0.00061430      -0.00075345
