9
Lattice="5.777165611484518 -3.7286920045025845e-08 3.335447968073907 1.9257218629925261 5.446764019065697 3.335447920178988 -3.059905639677036e-08 -8.029582198757397e-08 6.67089598914695" Properties=species:S:1:pos:R:3:forces:R:3 energy=-24.058734893798828 free_energy=-24.058734893798828 stress="-1.3331512491276953e-05 -2.7123570056630797e-09 -7.844588312266865e-10 -2.7123570056630797e-09 -1.3342476449906826e-05 2.8207718383299607e-09 -7.844588312266865e-10 2.8207718383299607e-09 -1.3331847185327206e-05" pbc="T T T"
Cd       1.92572186       1.36169095       3.33544830      -0.00000005      -0.00000004       0.00000011
Cd       5.77716550       4.08507284      10.00634422       0.00000041       0.00000044      -0.00000000
Au       0.00000012       0.00000027      -0.00000043       0.00000068      -0.00000094       0.00000106
Se       2.27085373       1.60573596       6.67089575      -0.00068407      -0.00048314      -0.00000078
Se       5.43203336       3.84102788       6.67089558       0.00068387       0.00048415      -0.00000136
Se       4.64173878       1.60573600       5.30206542       0.00034297      -0.00048429      -0.00059138
Se       3.06114905       3.84102766       8.03972706      -0.00034125       0.00048265       0.00059228
Se       3.06114885       3.84102793       5.30206485      -0.00034262       0.00048417      -0.00059228
Se       4.64173856       1.60573612       8.03972684       0.00034006      -0.00048304       0.00059244
