9
Lattice="5.5976203358812215 3.280779017104879e-08 3.231787662494476 1.8658735243109625 5.2774874873989654 3.2317875792075506 1.3388806023767045e-07 -7.3320754174950155e-09 6.4635750930880524" Properties=species:S:1:pos:R:3:forces:R:3 energy=-24.603687286376953 free_energy=-24.603687286376953 stress="3.267769670856069e-06 2.4715005153552738e-08 -4.3493884049894405e-09 2.4715005153552738e-08 3.198543254256947e-06 -4.250007989980986e-08 -4.3493884049894405e-09 -4.250007989980986e-08 3.2380314678448485e-06" pbc="T T T"
Cd       1.86587306       1.31937296       3.23178761      -0.00000016       0.00000116       0.00000002
Cd       5.59761922       3.95811489       9.69536193      -0.00000341      -0.00000082      -0.00000179
Au       0.00000004      -0.00000015      -0.00000019      -0.00000033       0.00000717       0.00000354
S        1.97595425       1.39721055       6.46357492      -0.00250673      -0.00177157      -0.00000097
S        5.48754044       3.88027693       6.46357573       0.00250483       0.00177130       0.00000094
S        4.60964403       1.39721018       4.94301355       0.00125390      -0.00177211      -0.00216988
S        2.85385121       3.88027740       7.98413792      -0.00124756       0.00176913       0.00216776
S        2.85385026       3.88027674       4.94301338      -0.00125229       0.00176799      -0.00216910
S        4.60964360       1.39721064       7.98413651       0.00125188      -0.00177172       0.00216919
