9
Lattice="4.467975992575123 1.4140202103609266e-07 2.5795871139940276 1.4893253991680695 4.2124478068059235 2.579587226586679 -4.732295657424733e-08 1.0443493545685893e-07 5.159174309953794" Properties=species:S:1:pos:R:3:forces:R:3 energy=-37.369632720947266 free_energy=-37.369632720947266 stress="-0.00038578623207286 2.2782641551089e-08 -6.900405224996575e-08 2.2782641551089e-08 -0.0003856708644889295 1.380060439259978e-07 -6.900405224996575e-08 1.380060439259978e-07 -0.0003857422270812094" pbc="T T T"
Cd       1.48932503       1.05311168       2.57958771       0.00000065       0.00000035      -0.00000131
Cd       4.46797599       3.15933586       7.73876159      -0.00000024      -0.00000016       0.00000058
Be       0.00000029       0.00000003      -0.00000047      -0.00000540      -0.00000130       0.00000178
O        1.35101416       0.95531077       5.15917391       0.00718302       0.00507817      -0.00000010
O        4.60628718       3.25713765       5.15917428      -0.00717539      -0.00507581      -0.00000159
O        3.79246937       0.95531072       3.74959929      -0.00359243       0.00508082       0.00622076
O        2.16483186       3.25713661       6.56874956       0.00359067      -0.00508347      -0.00621849
O        2.16483202       3.25713791       3.74959991       0.00359130      -0.00508022       0.00621951
O        3.79246990       0.95531111       6.56874879      -0.00359198       0.00508070      -0.00622112
