9
Lattice="5.421637229788061 6.982916550670089e-08 3.130183838523141 1.8072123797340003 5.111569442236268 3.130184004853605 -3.9774130308758773e-08 1.7558774894112733e-07 6.260367745937119" Properties=species:S:1:pos:R:3:forces:R:3 energy=-25.64051055908203 free_energy=-25.64051055908203 stress="-0.0001708801428321749 -1.9493802128067728e-08 1.0969601227373005e-08 -1.9493802128067728e-08 -0.00017097716045100242 -2.8907605198469355e-09 1.0969601227373005e-08 -2.8907605198469355e-09 -0.00017085684521589428" pbc="T T T"
Cd       1.80721258       1.27789273       3.13018424       0.00000017      -0.00000006       0.00000008
Cd       5.42163739       3.83367667       9.39055171      -0.00000104       0.00000022       0.00000024
Be       0.00000004      -0.00000017       0.00000042       0.00000049      -0.00000112       0.00000018
S        1.85226626       1.30975034       6.26036722      -0.00500214      -0.00353809      -0.00000281
S        5.37658318       3.80181951       6.26036717       0.00500281       0.00353786      -0.00000251
S        4.49550365       1.30975025       4.73429443       0.00250051      -0.00354080      -0.00433253
S        2.73334551       3.80181846       7.78644146      -0.00250412       0.00353819       0.00433508
S        2.73334588       3.80181953       4.73429439      -0.00250004       0.00354113      -0.00433202
S        4.49550380       1.30975141       7.78644127       0.00250335      -0.00353730       0.00433429
