9
Lattice="-3.5422026258157917 1.2337558639577297 -3.968031339220861 0.8235755946245745 4.3903971067117356 -3.1617001810647274 1.4342839989933807 -0.6210713631283504 -5.231707365111819" Properties=species:S:1:pos:R:3:forces:R:3 energy=-79.28773498535156 free_energy=-79.28773498535156 stress="0.5138013362884521 -0.009078594855964184 -0.01280995924025774 -0.009078594855964184 0.5276240110397339 -0.029570549726486206 -0.01280995924025774 -0.029570549726486206 0.5087915658950806" pbc="T T T"
Cd      -0.02026909       0.86535138      -3.14470072      -0.23317842       0.70458555       0.72790360
Cd      -0.68046233       3.38749788      -9.33943121       0.37383381      -0.08840008       0.92969739
Be       0.29330251      -0.36761485      -0.03983788       0.02107673       0.16485031       0.04514545
Se       0.87945361       0.28499946      -5.65809866      -4.49706221       6.41570044      -2.53235006
Se      -1.57622375       3.98299737      -6.78595575       4.16233778      -7.10503149       2.18196273
Se      -2.06063564       1.38206732      -4.91074616       5.58491850       3.20203924      -5.08871174
Se       1.36364603       2.88218256      -7.53345420      -5.93484545      -2.29987979       4.70357466
Se       0.51389551       3.24853135      -4.43649253      -3.09138346      -4.76411963      -7.85834885
Se      -1.21382565       1.02023770      -8.00702972       3.61430383       3.77025032       6.89112329
