9
Lattice="4.55412155369508 1.2372833874022534e-07 2.62932321953564 1.5180405710980185 4.293667393593479 2.6293233294386607 3.5569468439592057e-08 1.5975458447750491e-07 5.258646377463138" Properties=species:S:1:pos:R:3:forces:R:3 energy=-38.68270492553711 free_energy=-38.68270492553711 stress="6.828900222899392e-05 -2.463674775299296e-08 5.2281254880881534e-08 -2.463674775299296e-08 6.842701986897737e-05 1.1617389716889193e-08 5.2281254880881534e-08 1.1617389716889193e-08 6.859096174594015e-05" pbc="T T T"
Cd       1.51804036       1.07341642       2.62932336       0.00000026       0.00000025      -0.00000059
Cd       4.55412144       3.22025112       7.88796964      -0.00000006       0.00000016       0.00000042
Co       0.00000012       0.00000032      -0.00000007      -0.00000105      -0.00000031       0.00000328
O        1.44214446       1.01974975       5.25864636      -0.00175476      -0.00124148       0.00000161
O        4.63001791       3.27391805       5.25864650       0.00175494       0.00124148      -0.00000006
O        3.83304948       1.01975018       3.87825672       0.00088063      -0.00124231      -0.00152284
O        2.23911249       3.27391792       6.63903632      -0.00087851       0.00124130       0.00152004
O        2.23911254       3.27391709       3.87825677      -0.00088054       0.00124350      -0.00152397
O        3.83304966       1.01975009       6.63903604       0.00087908      -0.00124219       0.00152171
