9
Lattice="5.47381548376684 -6.829827824621762e-08 3.16030890100203 1.8246051351667283 5.160762383451792 3.1603088346585526 1.8540121312075705e-07 4.9844686510714856e-08 6.320617480879745" Properties=species:S:1:pos:R:3:forces:R:3 energy=-25.734210968017578 free_energy=-25.734210968017578 stress="2.480156945239287e-05 -8.736003920262192e-09 -1.1903801500068312e-08 -8.736003920262192e-09 2.4847427994245663e-05 2.4285928823530867e-09 -1.1903801500068312e-08 2.4285928823530867e-09 2.480813054717146e-05" pbc="T T T"
Cd       1.82460543       1.29019064       3.16030886       0.00000028      -0.00000043       0.00000030
Cd       5.47381618       3.87057174       9.48092666       0.00000054      -0.00000009       0.00000044
Cu       0.00000004      -0.00000045      -0.00000022      -0.00000128       0.00000636      -0.00000086
S        1.88898144       1.33571121       6.32061741      -0.00073504      -0.00052160      -0.00000035
S        5.40943977       3.82505106       6.32061774       0.00073481       0.00051796       0.00000079
S        4.52932463       1.33571160       4.79621453       0.00036809      -0.00052011      -0.00063711
S        2.76909562       3.82505133       7.84502083      -0.00036690       0.00051957       0.00063610
S        2.76909564       3.82505117       4.79621429      -0.00036690       0.00051904      -0.00063670
S        4.52932454       1.33571127       7.84502086       0.00036657      -0.00052047       0.00063735
