9
Lattice="5.72262363544132 -1.2783187751258816e-07 3.3039582197283717 1.9075410673343984 5.395341434809047 3.3039582612253886 -1.0727672466800587e-07 -2.5032810271596336e-08 6.607916625265467" Properties=species:S:1:pos:R:3:forces:R:3 energy=-29.20230484008789 free_energy=-29.20230484008789 stress="5.908787443331676e-06 -1.597573451306289e-08 4.482929027993521e-10 -1.597573451306289e-08 5.894927653571358e-06 4.306657253039248e-09 4.482929027993521e-10 4.306657253039248e-09 5.891828550375067e-06" pbc="T T T"
Cd       1.90754078       1.34883501       3.30395824      -0.00000012      -0.00000034       0.00000004
Cd       5.72262363       4.04650563       9.91187495       0.00000048      -0.00000028      -0.00000029
Co      -0.00000045       0.00000010      -0.00000032       0.00000327      -0.00000004       0.00000236
Se       1.89905545       1.34283515       6.60791676      -0.00018044      -0.00012811      -0.00000019
Se       5.73110974       4.05250673       6.60791614       0.00017920       0.00012609       0.00000008
Se       4.77309584       1.34283499       4.94858858       0.00008947      -0.00012655      -0.00015502
Se       2.85706882       4.05250636       8.26724444      -0.00009058       0.00012729       0.00015536
Se       2.85706891       4.05250630       4.94858872      -0.00009046       0.00012770      -0.00015701
Se       4.77309568       1.34283483       8.26724486       0.00008904      -0.00012582       0.00015448
