9
Lattice="5.805416256460992 1.3733332151960035e-08 3.3517587328022858 1.9351387872697414 5.473398955334017 3.351758694405899 4.1242155145742176e-08 -1.7863129134367428e-08 6.703517394171046" Properties=species:S:1:pos:R:3:forces:R:3 energy=-31.692739486694336 free_energy=-31.692739486694336 stress="-8.68444622028619e-05 4.712210621704571e-09 -9.321388994010249e-09 4.712210621704571e-09 -8.686843648320064e-05 1.0920111925827314e-08 -9.321388994010249e-09 1.0920111925827314e-08 -8.687899389769882e-05" pbc="T T T"
Cd       1.93513875       1.36834958       3.35175863      -0.00000027       0.00000035      -0.00000004
Cd       5.80541643       4.10504942      10.05527634       0.00000060       0.00000010       0.00000005
Cr      -0.00000005       0.00000019      -0.00000002       0.00000148      -0.00000123       0.00000066
Se       1.97975460       1.39989750       6.70351723      -0.00090539      -0.00064190      -0.00000009
Se       5.76080071       4.07350123       6.70351730       0.00090532       0.00063941       0.00000036
Se       4.81553918       1.39989767       5.06627626       0.00045285      -0.00064033      -0.00078311
Se       2.92501572       4.07350113       8.34075848      -0.00045343       0.00064171       0.00078429
Se       2.92501591       4.07350133       5.06627626      -0.00045270       0.00064060      -0.00078519
Se       4.81553907       1.39989771       8.34075883       0.00045165      -0.00063880       0.00078309
