9
Lattice="5.747583011931679 -9.619588884846527e-08 3.3183684654267163 1.915860986901308 5.418872888657562 3.3183683379157154 5.223145501404006e-09 -1.524750469440459e-07 6.636736921806618" Properties=species:S:1:pos:R:3:forces:R:3 energy=-24.569095611572266 free_energy=-24.569095611572266 stress="-0.00020384317031130195 1.0270285955016334e-08 5.470418007469391e-10 1.0270285955016334e-08 -0.00020387185213621706 -1.2862340525998661e-08 5.470418007469391e-10 -1.2862340525998661e-08 -0.00020391590078361332" pbc="T T T"
Cd       1.91586075       1.35471834       3.31836843      -0.00000036      -0.00000039      -0.00000018
Cd       5.74758327       4.06415443       9.95510547       0.00000086       0.00000023       0.00000092
Cu      -0.00000012      -0.00000008      -0.00000002      -0.00000098       0.00000113       0.00000112
Se       2.00930854       1.42079536       6.63673683       0.00121912       0.00086285      -0.00000094
Se       5.65413540       3.99807707       6.63673680      -0.00121915      -0.00086294       0.00000040
Se       4.74292901       1.42079558       5.05848036      -0.00060977       0.00086185       0.00105605
Se       2.92051526       3.99807732       8.21499324       0.00061086      -0.00086264      -0.00105669
Se       2.92051523       3.99807737       5.05848037       0.00060987      -0.00086269       0.00105608
Se       4.74292870       1.42079516       8.21499336      -0.00061041       0.00086272      -0.00105660
