9
Lattice="6.21543282330966 1.556156101002083e-08 3.588481872518741 2.0718109222332983 5.859966415972777 3.5884819306143436 -1.1671476372813336e-08 6.289935609457734e-08 7.1769637652531175" Properties=species:S:1:pos:R:3:forces:R:3 energy=-28.93483543395996 free_energy=-28.93483543395996 stress="-5.788032285636291e-05 -4.074781401186556e-08 7.281728997554637e-09 -4.074781401186556e-08 -5.785933171864599e-05 -1.513105019057548e-08 7.281728997554637e-09 -1.513105019057548e-08 -5.782627340522595e-05" pbc="T T T"
Cd       2.07181094       1.46499171       3.58848190       0.00000003      -0.00000020       0.00000022
Cd       6.21543290       4.39497505      10.76544565       0.00000013       0.00000029      -0.00000017
Cr      -0.00000010      -0.00000017      -0.00000030      -0.00000018       0.00000180       0.00000105
Te       2.17401920       1.53726390       7.17696407       0.00366742       0.00259351      -0.00000102
Te       6.11322480       4.32270235       7.17696397      -0.00366876      -0.00259435      -0.00000024
Te       5.12842281       1.53726415       5.47123813      -0.00183416       0.00259207       0.00317242
Te       3.15882061       4.32270210       8.88268940       0.00183330      -0.00259174      -0.00317366
Te       3.15882096       4.32270267       5.47123841       0.00183321      -0.00259110       0.00317333
Te       5.12842284       1.53726423       8.88268899      -0.00183096       0.00258966      -0.00317201
