9
Lattice="5.468042342970455 -1.0486003600599855e-07 3.1569756428387907 1.822680712450365 5.155319987899462 3.1569755903174466 -1.9793003386899322e-07 -2.0428290786729248e-07 6.313951628502524" Properties=species:S:1:pos:R:3:forces:R:3 energy=-34.1842155456543 free_energy=-34.1842155456543 stress="-6.266667696763761e-06 -7.593401463168448e-09 2.371372431753116e-08 -7.593401463168448e-09 -6.283165930653922e-06 1.0244368908729484e-08 2.371372431753116e-08 1.0244368908729484e-08 -6.279124136199243e-06" pbc="T T T"
Cd       1.82268040       1.28882977       3.15697510      -0.00000098      -0.00000116      -0.00000052
Cd       5.46804280       3.86648956       9.47092596      -0.00000029       0.00000023      -0.00000050
Cr      -0.00000048      -0.00000020       0.00000011       0.00000585       0.00000304       0.00000321
S        1.82701033       1.29189129       6.31395179       0.00026572       0.00018826       0.00000152
S        5.46371305       3.86342884       6.31395116      -0.00027546      -0.00019535       0.00000205
S        4.55453696       1.29189136       4.73921299      -0.00013351       0.00019008       0.00023517
S        2.73618536       3.86342891       7.88869039       0.00013842      -0.00019136      -0.00023678
S        2.73618598       3.86342833       4.73921315       0.00013441      -0.00018737       0.00023285
S        4.55453703       1.29189082       7.88869060      -0.00013413       0.00019351      -0.00023696
