9
Lattice="5.206015907499487 1.7648236174517696e-07 3.005694510666487 1.7353388496075355 4.908278779981922 3.0056944285929075 1.2078073376016123e-07 -1.511430362079232e-08 6.011388812134641" Properties=species:S:1:pos:R:3:forces:R:3 energy=-29.21261978149414 free_energy=-29.21261978149414 stress="0.00012961466563865542 1.482642772998588e-07 -2.707110269284385e-08 1.482642772998588e-07 0.0001295994152314961 -1.4144076487809798e-07 -2.707110269284385e-08 -1.4144076487809798e-07 0.00012963001790922135" pbc="T T T"
Cd       1.73533838       1.22706960       3.00569404       0.00000039      -0.00000042       0.00000546
Cd       5.20601604       3.68120921       9.01708344       0.00000093       0.00000107       0.00000436
C       -0.00000050      -0.00000042      -0.00000468       0.00001812       0.00001568       0.00015086
S        1.55646276       1.10058346       6.01138923      -0.00357723      -0.00254157      -0.00001909
S        5.38489422       3.80769414       6.01138755       0.00357747       0.00252199      -0.00002955
S        4.42778537       1.10058655       4.35362955       0.00178838      -0.00251758      -0.00312281
S        2.51356815       3.80769720       7.66915123      -0.00177801       0.00251746       0.00305736
S        2.51357025       3.80769338       4.35363020      -0.00179663       0.00252804      -0.00312120
S        4.42778490       1.10058253       7.66915072       0.00176650      -0.00252524       0.00307429
