9
Lattice="4.527862721104746 -1.7024158201733764e-07 2.6141626538450975 1.5092874837522088 4.26890995030041 2.6141625316386565 -2.5617207901296975e-08 -1.677858517649691e-07 5.228325352060561" Properties=species:S:1:pos:R:3:forces:R:3 energy=-35.22542953491211 free_energy=-35.22542953491211 stress="-0.0002845959097612649 1.4180058904855741e-08 -3.6929781455086186e-09 1.4180058904855741e-08 -0.0002844837727025151 3.426313455179297e-08 -3.6929781455086186e-09 3.426313455179297e-08 -0.0002845026319846511" pbc="T T T"
Cd       1.50928833       1.06722738       2.61416299      -0.00000050       0.00000010      -0.00000078
Cd       4.52786269       3.20168155       7.84248776       0.00000048      -0.00000010      -0.00000088
Cu       0.00000001       0.00000014      -0.00000057       0.00000235      -0.00000280       0.00000802
O        1.52723534       1.07991865       5.22832546      -0.00258118      -0.00182518       0.00000007
O        4.50991436       3.18899162       5.22832547       0.00257924       0.00182649      -0.00000077
O        3.76424498       1.07991875       3.93678730       0.00129133      -0.00182468      -0.00223723
O        2.27290549       3.18899107       6.51986330      -0.00128931       0.00182489       0.00223571
O        2.27290462       3.18899078       3.93678706      -0.00129241       0.00182647      -0.00223702
O        3.76424468       1.07991850       6.51986308       0.00129002      -0.00182483       0.00223351
