9
Lattice="4.79439840367874 3.804496630227432e-08 2.768047083554889 1.5981328035012858 4.520202268029243 2.7680471417415458 -7.00150611435703e-08 2.175573787254688e-08 5.536094288379409" Properties=species:S:1:pos:R:3:forces:R:3 energy=-33.96791076660156 free_energy=-33.96791076660156 stress="0.00015519089356530458 -1.2532654913854913e-08 -1.536997729090217e-08 -1.2532654913854913e-08 0.0001551667955936864 4.744923343125151e-10 -1.536997729090217e-08 4.744923343125151e-10 0.00015527362120337784" pbc="T T T"
Cd       1.59813347       1.13005061       2.76804721       0.00000181       0.00000016      -0.00000033
Cd       4.79439812       3.39015167       8.30414128      -0.00000026      -0.00000000      -0.00000029
Ca       0.00000020      -0.00000006      -0.00000063      -0.00000169       0.00000010       0.00000645
O        1.82774616       1.29241182       5.53609395       0.00389346       0.00275283       0.00000069
O        4.56478451       3.22779009       5.53609437      -0.00389117      -0.00275098       0.00000061
O        3.88052472       1.29241236       4.35092219      -0.00194614       0.00274980       0.00336778
O        2.51200597       3.22779053       6.72126681       0.00194749      -0.00275433      -0.00337304
O        2.51200629       3.22779021       4.35092208       0.00194505      -0.00275114       0.00336969
O        3.88052510       1.29241201       6.72126673      -0.00194833       0.00275385      -0.00337172
