9
Lattice="6.150164773669738 2.1397183006301814e-07 3.5507994125254942 2.050055058752491 5.798430490396109 3.550799529505892 -5.332899348978729e-08 1.0556181073532927e-07 7.101598917419495" Properties=species:S:1:pos:R:3:forces:R:3 energy=-22.86312484741211 free_energy=-22.86312484741211 stress="-0.0003073045809287578 -8.16660303826211e-08 -2.678461008542854e-08 -8.16660303826211e-08 -0.00030735673499293625 -8.764565073704489e-09 -2.678461008542854e-08 -8.764565073704489e-09 -0.0003073949774261564" pbc="T T T"
Cd       2.05005584       1.44960747       3.55079982      -0.00000031       0.00000003       0.00000002
Cd       6.15016365       4.34882347      10.65239738       0.00000044      -0.00000005       0.00000014
Cu       0.00000048      -0.00000008       0.00000173      -0.00000197       0.00000064      -0.00000629
Te       2.19802029       1.55423321       7.10159825       0.00136648       0.00096577       0.00000048
Te       6.00219899       4.24419817       7.10159851      -0.00136638      -0.00096417      -0.00000103
Te       5.05115285       1.55423475       5.45434030      -0.00068353       0.00096526       0.00118411
Te       3.14906656       4.24419475       8.74885780       0.00068186      -0.00096641      -0.00118056
Te       3.14906582       4.24419516       5.45433995       0.00068397      -0.00096739       0.00118417
Te       5.05115467       1.55423638       8.74885763      -0.00068060       0.00096636      -0.00118100
