9
Lattice="6.753924874233263 2.115749477336911e-08 3.8993803249152026 2.2513083281737716 6.367661615695713 3.899380295790444 -8.238641702779429e-08 -9.39263563912771e-08 7.7987607925276965" Properties=species:S:1:pos:R:3:forces:R:3 energy=-22.519073486328125 free_energy=-22.519073486328125 stress="-0.00013422560004983097 1.6915087996949296e-08 -2.270146293170683e-09 1.6915087996949296e-08 -0.00013423754717223346 7.265849255588819e-09 -2.270146293170683e-09 7.265849255588819e-09 -0.0001342158648185432" pbc="T T T"
Cd       2.25130809       1.59191524       3.89938037      -0.00000042      -0.00000039       0.00000005
Cd       6.75392492       4.77574631      11.69814135       0.00000021       0.00000029      -0.00000007
Ca      -0.00000011      -0.00000014      -0.00000013      -0.00000014       0.00000037      -0.00000018
Te       2.59205789       1.83286144       7.79876080      -0.00479298      -0.00339000      -0.00000046
Te       6.41317507       4.53479989       7.79876085       0.00479381       0.00339012      -0.00000080
Te       5.45789658       1.83286142       6.14416823       0.00239612      -0.00338839      -0.00415063
Te       3.54733710       4.53479981       9.45335284      -0.00239757       0.00338983       0.00415165
Te       3.54733682       4.53480031       6.14416838      -0.00239575       0.00338865      -0.00415064
Te       5.45789610       1.83286191       9.45335294       0.00239670      -0.00339045       0.00415108
