9
Lattice="6.162612226513824 2.0104577317005558e-07 3.5579858892621465 2.0542043755474846 5.810166210397261 3.5579856978790634 2.2178082446967015e-07 -7.757271276152786e-08 7.11597139438863" Properties=species:S:1:pos:R:3:forces:R:3 energy=-23.23360824584961 free_energy=-23.23360824584961 stress="-0.00032845951500348747 -7.919360456298818e-08 -2.1975033348553552e-08 -7.919360456298818e-08 -0.0003284140257164836 2.4710667290150923e-08 -2.1975033348553552e-08 2.4710667290150923e-08 -0.0003284136182628572" pbc="T T T"
Cd       2.05420468       1.45254153       3.55798579       0.00000051       0.00000014       0.00000012
Cd       6.16261256       4.35762513      10.67395736       0.00000004       0.00000084       0.00000058
Ca      -0.00000012       0.00000047       0.00000030       0.00000125      -0.00000131      -0.00000370
Se       2.37296107       1.67793673       7.11597147      -0.00679082      -0.00480107       0.00000183
Se       5.84385706       4.13223092       7.11597179       0.00679777       0.00480722       0.00000146
Se       4.97613136       1.67793579       5.61302995       0.00339545      -0.00480736      -0.00588249
Se       3.24068572       4.13222795       8.61891259      -0.00339431       0.00479717       0.00588360
Se       3.24068406       4.13222998       5.61302973      -0.00340060       0.00480478      -0.00588322
Se       4.97613097       1.67793682       8.61891294       0.00339069      -0.00480034       0.00588173
