9
Lattice="5.418583421775528 -1.0382138232061601e-07 3.12842040190307 1.806194380524599 5.1086892491799585 3.1284203941380184 -3.938266122494215e-08 -3.735799516874824e-08 6.256840872018936" Properties=species:S:1:pos:R:3:forces:R:3 energy=-31.783512115478516 free_energy=-31.783512115478516 stress="-8.667997462907806e-05 -1.129603699467907e-08 -6.020922871385892e-09 -1.129603699467907e-08 -8.663457265356556e-05 1.2554283168597635e-09 -6.020922871385892e-09 1.2554283168597635e-09 -8.663515473017469e-05" pbc="T T T"
Cd       1.80619423       1.27717229       3.12841992       0.00000026       0.00000082      -0.00000067
Cd       5.41858353       3.83151782       9.38526153      -0.00000010       0.00000123       0.00000029
Co       0.00000021      -0.00000013       0.00000019      -0.00000219      -0.00000006      -0.00000012
S        1.77426703       1.25459570       6.25684079       0.00470820       0.00332871      -0.00000049
S        5.45051052       3.85409286       6.25684085      -0.00470647      -0.00332853       0.00000016
S        4.53145003       1.25459612       4.66498081      -0.00235298       0.00332862       0.00407588
S        2.69332776       3.85409259       7.84870089       0.00235404      -0.00332987      -0.00407684
S        2.69332787       3.85409305       4.66498076       0.00235341      -0.00332960       0.00407755
S        4.53144972       1.25459599       7.84870090      -0.00235410       0.00332877      -0.00407639
