9
Lattice="4.539387506500976 -9.080481061379784e-08 2.6208164692559075 1.5131290984886956 4.279775498777855 2.6208164428132887 -8.86464117327037e-08 -9.506791367700329e-08 5.2416330920519085" Properties=species:S:1:pos:R:3:forces:R:3 energy=-39.778846740722656 free_energy=-39.778846740722656 stress="-0.00014267330698203295 7.750820429919258e-09 -1.2831607998364802e-09 7.750820429919258e-09 -0.00014257286966312677 4.1859895105744727e-08 -1.2831607998364802e-09 4.1859895105744727e-08 -0.0001426787202944979" pbc="T T T"
Cd       1.51312915       1.06994336       2.62081646       0.00000071       0.00000057      -0.00000056
Cd       4.53938779       3.20983168       7.86244894       0.00000026      -0.00000032      -0.00000154
Fe       0.00000005       0.00000020      -0.00000020      -0.00000131      -0.00000298       0.00000089
O        1.48265555       1.04839533       5.24163286       0.00633094       0.00447708       0.00000158
O        4.56986094       3.23137993       5.24163332      -0.00633231      -0.00447643      -0.00000078
O        3.79805962       1.04839575       3.90483369      -0.00316331       0.00447810       0.00548257
O        2.25445687       3.23137982       6.57843250       0.00316477      -0.00447686      -0.00548345
O        2.25445638       3.23137955       3.90483379       0.00316557      -0.00447723       0.00548396
O        3.79805965       1.04839549       6.57843244      -0.00316565       0.00447796      -0.00548311
