9
Lattice="6.378793619251996 9.828030230081504e-07 3.682796929416145 2.1262649641889437 6.013984004684391 3.6827977991774556 -3.3410642020548183e-07 8.289873936657698e-07 7.365594437521407" Properties=species:S:1:pos:R:3:forces:R:3 energy=-28.70183563232422 free_energy=-28.70183563232422 stress="-1.2969137060281355e-05 3.0199427669685974e-07 -1.6689013193627034e-07 3.0199427669685974e-07 -1.317660826316569e-05 1.9375922022391023e-07 -1.6689013193627034e-07 1.9375922022391023e-07 -1.3360437151277438e-05" pbc="T T T"
Cd       2.12626482       1.50349672       3.68279713      -0.00000025      -0.00000003      -0.00000031
Cd       6.37879344       4.51048905      11.04839190      -0.00000067      -0.00000040       0.00000015
Fe      -0.00000024      -0.00000030      -0.00000043      -0.00001047       0.00000591       0.00000445
Te       1.93982220       1.37166184       7.36559421       0.00017235       0.00012117      -0.00000031
Te       6.56523459       4.64232248       7.36559401      -0.00016921      -0.00011905      -0.00000144
Te       5.40888412       1.37166218       5.36273129      -0.00009222       0.00013201       0.00016127
Te       3.09617569       4.64232407       9.36845959       0.00009833      -0.00013785      -0.00016713
Te       3.09617446       4.64232584       5.36272937       0.00010902      -0.00015334       0.00018752
Te       5.40888402       1.37166145       9.36845953      -0.00010684       0.00015158      -0.00018418
