9
Lattice="5.802481651582417 3.054136730217388e-08 3.350064415752819 1.9341606215634393 5.470632352770047 3.350064342588798 1.5815054147445222e-08 -7.842438434789048e-08 6.700128804113197" Properties=species:S:1:pos:R:3:forces:R:3 energy=-31.289710998535156 free_energy=-31.289710998535156 stress="-1.0399092388979625e-05 -9.171176706956885e-09 3.67706505244314e-08 -9.171176706956885e-09 -1.035695277096238e-05 -5.893004839663263e-08 3.67706505244314e-08 -5.893004839663263e-08 -1.0377666512795258e-05" pbc="T T T"
Cd       1.93416073       1.36765784       3.35006443       0.00000022       0.00000104      -0.00000015
Cd       5.80248153       4.10297422      10.05019349      -0.00000055       0.00000029       0.00000013
Fe       0.00000009      -0.00000005       0.00000013      -0.00000270       0.00000045      -0.00000342
Se       1.86739465       1.32044720       6.70012873       0.00040430       0.00028573       0.00000020
Se       5.86924748       4.15018504       6.70012886      -0.00040358      -0.00028443      -0.00000004
Se       4.86878465       1.32044762       4.96727542      -0.00020187       0.00028752       0.00035042
Se       2.86785782       4.15018494       8.43298199       0.00020213      -0.00028728      -0.00035024
Se       2.86785783       4.15018477       4.96727550       0.00020093      -0.00028384       0.00034752
Se       4.86878441       1.32044770       8.43298145      -0.00019853       0.00028065      -0.00034460
