9
Lattice="5.5050539195407175 9.848766198927803e-08 3.178344083458236 1.8350180232073694 5.1902149349439615 3.178344157638425 -4.238889099311347e-09 8.785447560095909e-08 6.3566881742583625" Properties=species:S:1:pos:R:3:forces:R:3 energy=-33.3011589050293 free_energy=-33.3011589050293 stress="-1.9119584976579063e-05 5.478858255969499e-08 -8.72155769826577e-09 5.478858255969499e-08 -1.913973392220214e-05 1.724019860205317e-08 -8.72155769826577e-09 1.724019860205317e-08 -1.9171075109625235e-05" pbc="T T T"
Cd       1.83501789       1.29755314       3.17834423       0.00000060       0.00000011      -0.00000004
Cd       5.50505423       3.89266075       9.53503326      -0.00000086      -0.00000114       0.00000070
Fe       0.00000018       0.00000012      -0.00000011      -0.00000086      -0.00000099       0.00000098
S        1.78057513       1.25905751       6.35668762       0.00043941       0.00031120      -0.00000120
S        5.55949673       3.93115837       6.35668773      -0.00043911      -0.00031087       0.00000030
S        4.61476626       1.25905713       4.72036678      -0.00022048       0.00031111       0.00038481
S        2.72530523       3.93115813       7.99300950       0.00022325      -0.00031456      -0.00038475
S        2.72530613       3.93115830       4.72036685       0.00022152      -0.00031051       0.00038350
S        4.61476615       1.25905707       7.99300937      -0.00022286       0.00031501      -0.00038481
