9
Lattice="6.363094020517123 9.044870612641437e-08 3.673733538865095 2.121031301213475 5.999181745661418 3.6737337540458608 -1.757335490571375e-07 1.3927926673436226e-07 7.347467382109472" Properties=species:S:1:pos:R:3:forces:R:3 energy=-23.376100540161133 free_energy=-23.376100540161133 stress="0.0002402129612164572 3.069348863959931e-08 -1.780750480406823e-08 3.069348863959931e-08 0.00024031600332818925 -1.7283084685626449e-10 -1.780750480406823e-08 -1.7283084685626449e-10 0.00024028337793424726" pbc="T T T"
Cd       2.12103088       1.49979532       3.67373343      -0.00000031      -0.00000017      -0.00000007
Cd       6.36309466       4.49938650      11.02119997       0.00000094      -0.00000051      -0.00000061
Ge       0.00000021      -0.00000060       0.00000050      -0.00000076       0.00000004       0.00000089
Te       2.33013429       1.64765580       7.34746753       0.00757600       0.00535887      -0.00000009
Te       6.15399125       4.35152665       7.34746838      -0.00757633      -0.00535825      -0.00000003
Te       5.19802721       1.64765377       5.69169017      -0.00378785       0.00535764       0.00656143
Te       3.28609857       4.35152724       9.00324501       0.00378893      -0.00535807      -0.00656164
Te       3.28609662       4.35152841       5.69168957       0.00378748      -0.00535722       0.00656238
Te       5.19802686       1.64765479       9.00324409      -0.00378814       0.00535768      -0.00656226
