9
Lattice="5.631857673499877 -6.471837231525796e-08 3.251554645397158 1.8772859366943673 5.3097659042625605 3.2515544608562563 4.277248590039923e-08 -1.9577087946634148e-07 6.5031092167102145" Properties=species:S:1:pos:R:3:forces:R:3 energy=-28.159950256347656 free_energy=-28.159950256347656 stress="0.00011093891225755215 -3.0340775225567995e-08 6.32414227652589e-08 -3.0340775225567995e-08 0.00011098758113803342 -1.1032388158582762e-07 6.32414227652589e-08 -1.1032388158582762e-07 0.00011096000525867566" pbc="T T T"
Cd       1.87728631       1.32744140       3.25155473       0.00000137       0.00000061       0.00000072
Cd       5.63185777       3.98232452       9.75466353       0.00000049       0.00000068      -0.00000072
Ge       0.00000035      -0.00000117      -0.00000039      -0.00000694       0.00002394       0.00000520
S        1.89166333       1.33760749       6.50310931       0.00058711       0.00041580       0.00000206
S        5.61748121       3.97215805       6.50310962      -0.00059479      -0.00042152       0.00000222
S        4.68602545       1.33760790       4.88978259      -0.00029257       0.00041455       0.00050229
S        2.82311712       3.97215896       8.11643609       0.00030223      -0.00042516      -0.00052488
S        2.82311755       3.97215802       4.88978270       0.00029519      -0.00041795       0.00051379
S        4.68602551       1.33760749       8.11643507      -0.00029156       0.00040942      -0.00050038
