9
Lattice="5.858136574680522 1.8985663027402356e-07 3.3821968385197536 1.9527123198089276 5.52310418308637 3.3821969264209715 7.973233371393198e-08 1.640357670841818e-07 6.764393538939178" Properties=species:S:1:pos:R:3:forces:R:3 energy=-25.967193603515625 free_energy=-25.967193603515625 stress="8.216892456403002e-05 -1.77082670749229e-09 -2.1471832312158767e-08 -1.77082670749229e-09 8.213561523007229e-05 -1.3523014708027858e-08 -2.1471832312158767e-08 -1.3523014708027858e-08 8.212940156226978e-05" pbc="T T T"
Cd       1.95271223       1.38077594       3.38219704      -0.00000072       0.00000007      -0.00000019
Cd       5.85813675       4.14232865      10.14659070       0.00000074      -0.00000033       0.00000004
Ge       0.00000002      -0.00000004      -0.00000005      -0.00000315      -0.00000053       0.00000146
Se       2.01045283       1.42160473       6.76439389       0.00076810       0.00054254       0.00000132
Se       5.80039605       4.10149947       6.76439389      -0.00076543      -0.00054057       0.00000065
Se       4.85291015       1.42160507       5.12329991      -0.00038377       0.00054203       0.00066271
Se       2.95793845       4.10149986       8.40548700       0.00038442      -0.00054322      -0.00066598
Se       2.95793870       4.10149965       5.12329993       0.00038351      -0.00054298       0.00066443
Se       4.85291067       1.42160484       8.40548691      -0.00038362       0.00054297      -0.00066437
