9
Lattice="4.595155654905409 -2.8651312492369426e-08 2.6530139379307927 1.5317186088449606 4.33235347420726 2.6530137920531116 1.5605517826705664e-07 -6.831532387917269e-08 5.306027605566175" Properties=species:S:1:pos:R:3:forces:R:3 energy=-38.844032287597656 free_energy=-38.844032287597656 stress="-0.00014956650556996465 1.5473554526579392e-07 3.293195760534218e-08 1.5473554526579392e-07 -0.00014959456166252494 -2.9023330405664183e-09 3.293195760534218e-08 -2.9023330405664183e-09 -0.00014977771206758916" pbc="T T T"
Cd       1.53171855       1.08308814       2.65301397       0.00000112      -0.00000009      -0.00000066
Cd       4.59515616       3.24926521       7.95904131      -0.00000112       0.00000046       0.00000022
Ge       0.00000040       0.00000007       0.00000019      -0.00000606      -0.00000153      -0.00000470
O        1.53946541       1.08856522       5.30602736       0.00166595       0.00117737      -0.00000212
O        4.58740921       3.24378726       5.30602670      -0.00165868      -0.00117379      -0.00000116
O        3.82542388       1.08856521       3.98622870      -0.00083488       0.00118065       0.00144613
O        2.30145118       3.24378828       6.62582649       0.00083381      -0.00117892      -0.00144494
O        2.30145039       3.24378839       3.98622873       0.00083268      -0.00118202       0.00144780
O        3.82542307       1.08856597       6.62582693      -0.00083333       0.00117785      -0.00144029
