9
Lattice="5.721500858219918 2.5930568199719626e-08 3.3033099387301905 1.9071670341513687 5.394282508951985 3.303309840065998 3.360044661846849e-08 -9.707937303680786e-08 6.606619819262716" Properties=species:S:1:pos:R:3:forces:R:3 energy=-20.640377044677734 free_energy=-20.640377044677734 stress="3.749444294953719e-05 3.997431718971711e-09 1.975281271882068e-09 3.997431718971711e-09 3.7534024158958346e-05 2.76132059440215e-08 1.975281271882068e-09 2.76132059440215e-08 3.747437585843727e-05" pbc="T T T"
Cd       1.90716754       1.34857168       3.30330994       0.00000100       0.00000218      -0.00000039
Cd       5.72150137       4.04571052       9.90993049       0.00000084      -0.00000288       0.00000152
Hg       0.00000007      -0.00000025      -0.00000057      -0.00000083       0.00000396       0.00000848
S        2.07438086       1.46680923       6.60661960       0.00019076       0.00013533      -0.00000044
S        5.55428721       3.92747309       6.60661917      -0.00019065      -0.00013906      -0.00000172
S        4.68431035       1.46680987       5.09977612      -0.00009450       0.00013593       0.00016293
S        2.94435696       3.92747332       8.11346318       0.00009640      -0.00013843      -0.00016856
S        2.94435724       3.92747343       5.09977642       0.00009453      -0.00013515       0.00016433
S        4.68431004       1.46680887       8.11346402      -0.00009735       0.00013804      -0.00016609
