9
Lattice="6.464536468615136 -3.285781969994187e-07 3.732301787196176 2.1548451868839082 6.0948224554154 3.732301774843184 7.608992628190774e-08 3.867424574213835e-08 7.464603442600866" Properties=species:S:1:pos:R:3:forces:R:3 energy=-18.784099578857422 free_energy=-18.784099578857422 stress="0.00013936328468844295 -1.4423888750059177e-09 -1.3854609681729357e-09 -1.4423888750059177e-09 0.0001394487771904096 -1.3556725519947577e-08 -1.3854609681729357e-09 -1.3556725519947577e-08 0.00013942414079792798" pbc="T T T"
Cd       2.15484551       1.52370469       3.73230173       0.00000007      -0.00000104       0.00000002
Cd       6.46453643       4.57111666      11.19690546      -0.00000022      -0.00000022       0.00000027
Hg      -0.00000092      -0.00000032       0.00000080       0.00000228       0.00000181      -0.00000237
Te       2.43085104       1.71887170       7.46460325      -0.00539348      -0.00381179      -0.00000050
Te       6.18853122       4.37595123       7.46460319       0.00538921       0.00381115      -0.00000105
Te       5.24911173       1.71887110       5.83748107       0.00269653      -0.00381085      -0.00466797
Te       3.37027087       4.37595073       9.09172596      -0.00269578       0.00381280       0.00466901
Te       3.37027029       4.37595056       5.83748092      -0.00269523       0.00381038      -0.00466686
Te       5.24911076       1.71887235       9.09172582       0.00269675      -0.00381218       0.00466947
