9
Lattice="4.700404520865229 1.297740402633538e-07 2.713780257470043 1.5668015581821144 4.431584328837436 2.713780380662375 3.6411445265464725e-07 4.083469617329534e-07 5.427559884275398" Properties=species:S:1:pos:R:3:forces:R:3 energy=-28.375293731689453 free_energy=-28.375293731689453 stress="0.0002993103989865631 7.029440496353345e-08 -5.933896218834889e-08 7.029440496353345e-08 0.000299277511658147 9.832654512820227e-08 -5.933896218834889e-08 9.832654512820227e-08 0.00029935326892882586" pbc="T T T"
Cd       1.56680189       1.10789716       2.71377985       0.00000082       0.00000313      -0.00000159
Cd       4.70040420       3.32368759       8.14134151      -0.00000093      -0.00000100       0.00000323
Hg       0.00000012       0.00000043       0.00000010      -0.00000350      -0.00000432      -0.00000179
O        1.69706082       1.20000421       5.42756005       0.00429031       0.00303736      -0.00000130
O        4.57014599       3.23158043       5.42755935      -0.00429079      -0.00303397       0.00000029
O        3.85187388       1.20000399       4.18347799      -0.00214545       0.00303403       0.00371224
O        2.41533241       3.23158028       6.67164362       0.00214761      -0.00303429      -0.00371552
O        2.41533207       3.23158217       4.18347738       0.00214805      -0.00303614       0.00372252
O        3.85187441       1.20000323       6.67164278      -0.00214602       0.00303516      -0.00371832
