9
Lattice="4.7309285655950095 -1.4219321724032161e-08 2.7314028567193454 1.5769761726739853 4.460362203489538 2.731402860965597 -2.8620173686165975e-08 -1.5036930983392485e-08 5.462805763010295" Properties=species:S:1:pos:R:3:forces:R:3 energy=-33.879920959472656 free_energy=-33.879920959472656 stress="0.00039332947926595807 -2.958634937044735e-08 1.3017414701721464e-08 -2.958634937044735e-08 0.00039328981074504554 -5.139828562761295e-09 1.3017414701721464e-08 -5.139828562761295e-09 0.00039332566666416824" pbc="T T T"
Cd       1.57697612       1.11509015       2.73140298       0.00000010      -0.00000036      -0.00000068
Cd       4.73092870       3.34527179       8.19420846      -0.00000032      -0.00000102      -0.00000029
In       0.00000008      -0.00000062      -0.00000028       0.00000006       0.00000473       0.00000443
O        1.75562875       1.24141694       5.46280584       0.00325143       0.00229761      -0.00000043
O        4.55227594       3.21894584       5.46280563      -0.00325233      -0.00229838       0.00000002
O        3.85311428       1.24141701       4.25182223      -0.00162393       0.00229758       0.00281370
O        2.45479049       3.21894527       6.67378960       0.00162563      -0.00229877      -0.00281617
O        2.45479042       3.21894535       4.25182190       0.00162449      -0.00229925       0.00281489
O        3.85311407       1.24141702       6.67378956      -0.00162500       0.00229761      -0.00281554
