9
Lattice="5.75835162647809 9.766939846163259e-08 3.3245855135214173 1.9194505982354064 5.429025764931447 3.3245855758883933 1.5291685515481724e-08 8.719638662497478e-08 6.649171000556898" Properties=species:S:1:pos:R:3:forces:R:3 energy=-24.688701629638672 free_energy=-24.688701629638672 stress="5.2174520533299074e-05 -1.738784227711676e-08 -1.961993456589539e-09 -1.738784227711676e-08 5.2183611842337996e-05 -1.1736778660065283e-08 -1.961993456589539e-09 -1.1736778660065283e-08 5.223130574449897e-05" pbc="T T T"
Cd       1.91945100       1.35725599       3.32458514       0.00000084      -0.00000254      -0.00000009
Cd       5.75835174       4.07176971       9.97375669      -0.00000022       0.00000063       0.00000113
In       0.00000010      -0.00000092      -0.00000024      -0.00000435       0.00000783       0.00000340
S        2.09332666       1.48020543       6.64916992      -0.00058308      -0.00041008      -0.00000306
S        5.58447470       3.94882075       6.64917024       0.00058243       0.00041530      -0.00000158
S        4.71168845       1.48020614       5.13746088       0.00029536      -0.00041664      -0.00050706
S        2.96611435       3.94882024       8.16088298      -0.00028963       0.00040653       0.00050205
S        2.96611420       3.94882062       5.13746039      -0.00029200       0.00041217      -0.00050187
S        4.71168786       1.48020578       8.16088236       0.00029078      -0.00041333       0.00050727
