9
Lattice="5.850126508874516 6.70027736864538e-08 3.377571887129608 1.9500422373999915 5.51555228525594 3.3775718791545657 8.568200329838437e-08 5.0818924515275985e-08 6.7551436258536794" Properties=species:S:1:pos:R:3:forces:R:3 energy=-23.62274169921875 free_energy=-23.62274169921875 stress="8.259437890956178e-06 2.7426680926367908e-09 -8.192434286513617e-09 2.7426680926367908e-09 8.24015023681568e-06 3.2174001241003225e-09 -8.192434286513617e-09 3.2174001241003225e-09 8.343457921000663e-06" pbc="T T T"
Cd       1.95004255       1.37888836       3.37757131       0.00000093      -0.00000012      -0.00000001
Cd       5.85012684       4.13666421      10.13271511       0.00000026      -0.00000130       0.00000060
In      -0.00000034       0.00000083       0.00000158       0.00000116      -0.00000386      -0.00000682
Se       2.29255417       1.62107968       6.75514327       0.00155967       0.00110309      -0.00000110
Se       5.50761529       3.89447107       6.75514336      -0.00156200      -0.00110520      -0.00000058
Se       4.70384929       1.62108058       5.36298205      -0.00078115       0.00110573       0.00135574
Se       3.09631922       3.89447262       8.14730567       0.00078043      -0.00110063      -0.00135210
Se       3.09631908       3.89447201       5.36298166       0.00078100      -0.00110254       0.00135571
Se       4.70384924       1.62108031       8.14730557      -0.00078031       0.00110477      -0.00135140
