9
Lattice="6.473906669887457 -1.1243941264308436e-07 3.737711562214559 2.1579687726089096 6.103658353359203 3.7377115818640108 -2.6609654265435387e-08 5.249884974726214e-09 7.475423170518341" Properties=species:S:1:pos:R:3:forces:R:3 energy=-20.940052032470703 free_energy=-20.940052032470703 stress="-1.2959952982782852e-05 2.6010363640693868e-08 8.419336339215988e-09 2.6010363640693868e-08 -1.3139393558958545e-05 -4.848995649453514e-10 8.419336339215988e-09 -4.848995649453514e-10 -1.2948577932547778e-05" pbc="T T T"
Cd       2.15796918       1.52591402       3.73771157      -0.00000026      -0.00000071       0.00000032
Cd       6.47390660       4.57774501      11.21313453       0.00000041       0.00000141      -0.00000011
Mg      -0.00000003       0.00000017       0.00000045      -0.00000021       0.00000010      -0.00000145
Te       2.41928789       1.71069379       7.47542331       0.00234891       0.00165926      -0.00000040
Te       6.21258761       4.39296289       7.47542332      -0.00234714      -0.00166117      -0.00000009
Te       5.26426205       1.71069272       5.83287643      -0.00117627       0.00165892       0.00203488
Te       3.36761339       4.39296550       9.11796943       0.00117487      -0.00165718      -0.00203512
Te       3.36761308       4.39296604       5.83287699       0.00117500      -0.00165763       0.00203643
Te       5.26426193       1.71069279       9.11796931      -0.00117531       0.00165703      -0.00203442
