9
Lattice="5.972533399671133 -7.422533664575756e-08 3.448243711794368 1.990844418171465 5.630958205005601 3.4482436743911786 -4.335160490426668e-08 -7.646353754166958e-08 6.896487498675907" Properties=species:S:1:pos:R:3:forces:R:3 energy=-22.100332260131836 free_energy=-22.100332260131836 stress="-7.423759234370664e-05 1.8557998471280257e-09 6.266336338711653e-09 1.8557998471280257e-09 -7.421177724609151e-05 6.063921809129624e-09 6.266336338711653e-09 6.063921809129624e-09 -7.424358773278072e-05" pbc="T T T"
Cd       1.99084481       1.40773963       3.44824383       0.00000083       0.00000187      -0.00000002
Cd       5.97253316       4.22321855      10.34473149       0.00000056      -0.00000018      -0.00000092
Mg      -0.00000009      -0.00000015       0.00000013       0.00000177       0.00000137      -0.00000188
Se       2.13147517       1.50718028       6.89648745       0.00392115       0.00277136       0.00000018
Se       5.83190295       4.12377780       6.89648751      -0.00392343      -0.00277460       0.00000252
Se       4.90679559       1.50718056       5.29415485      -0.00196140       0.00277410       0.00339483
Se       3.05658151       4.12377754       8.49881944       0.00195723      -0.00277270      -0.00339496
Se       3.05658210       4.12377772       5.29415524       0.00196191      -0.00277270       0.00339592
Se       4.90679588       1.50718026       8.49881959      -0.00195850       0.00277145      -0.00339527
