9
Lattice="5.623022090436432 -2.0785648102560475e-07 3.2464536636391164 1.8743405117442609 5.3014365916427115 3.246453644757882 -1.1723165457903317e-07 -1.0601997790429508e-07 6.492907530329474" Properties=species:S:1:pos:R:3:forces:R:3 energy=-34.67729568481445 free_energy=-34.67729568481445 stress="2.270801633130759e-05 -1.9636164694247782e-08 3.1984153103792323e-09 -1.9636164694247782e-08 2.2734884623787366e-05 -2.5697428629456454e-09 3.1984153103792323e-09 -2.5697428629456454e-09 2.2738233383279294e-05" pbc="T T T"
Cd       1.87434092       1.32535958       3.24645404       0.00000021       0.00000060       0.00000077
Cd       5.62302140       3.97607668       9.73936060       0.00000013      -0.00000116      -0.00000067
Mn       0.00000007      -0.00000040      -0.00000033      -0.00000463       0.00000943       0.00000505
S        1.81526289       1.28358522       6.49290816       0.00858819       0.00607497       0.00000138
S        5.68209998       4.01785076       6.49290786      -0.00859076      -0.00607550       0.00000153
S        4.71538949       1.28358531       4.81851762      -0.00429294       0.00607014       0.00743157
S        2.78197229       4.01785163       8.16729708       0.00429830      -0.00607556      -0.00744271
S        2.78197227       4.01785146       4.81851771       0.00429425      -0.00607258       0.00743914
S        4.71539036       1.28358456       8.16729670      -0.00429308       0.00606966      -0.00743610
