9
Lattice="5.867262651785292 -1.389628513135944e-07 3.3874658221583074 1.955754127229677 5.531708098282515 3.3874657511730915 2.9364520795055784e-08 -6.617496992853707e-08 6.774931593455829" Properties=species:S:1:pos:R:3:forces:R:3 energy=-32.073211669921875 free_energy=-32.073211669921875 stress="1.3142182979208883e-05 -4.477531234670096e-08 -1.0105725145592714e-08 -4.477531234670096e-08 1.3199047316447832e-05 1.371597324606455e-08 -1.0105725145592714e-08 1.371597324606455e-08 1.3208308700995985e-05" pbc="T T T"
Cd       1.95575415       1.38292678       3.38746576       0.00000029      -0.00000059       0.00000009
Cd       5.86726254       4.14878111      10.16239735      -0.00000045       0.00000007       0.00000121
Mn      -0.00000002      -0.00000013       0.00000040      -0.00000199       0.00000018      -0.00000915
Se       1.91795547       1.35619902       6.77493154       0.00045034       0.00031808      -0.00000003
Se       5.90506145       4.17550898       6.77493159      -0.00044936      -0.00031739      -0.00000002
Se       4.90828480       1.35619943       5.04846471      -0.00022398       0.00031677       0.00038603
Se       2.91473223       4.17550819       8.50139839       0.00022118      -0.00031286      -0.00038281
Se       2.91473201       4.17550844       5.04846451       0.00022425      -0.00031698       0.00038746
Se       4.90828459       1.35619972       8.50139846      -0.00022073       0.00031269      -0.00038269
