9
Lattice="5.647309467430198 6.352182028274876e-08 3.2604758871009496 1.88243643003673 5.324334577328116 3.2604760932073567 -1.1198098937671494e-07 1.7324527175885967e-07 6.52095196815868" Properties=species:S:1:pos:R:3:forces:R:3 energy=-23.767919540405273 free_energy=-23.767919540405273 stress="-0.00014011358143761754 -1.5337818126681668e-08 2.9892706976397676e-08 -1.5337818126681668e-08 -0.00014012247265782207 -3.952342098045847e-08 2.9892706976397676e-08 -3.952342098045847e-08 -0.0001401110494043678" pbc="T T T"
Cd       1.88243629       1.33108409       3.26047599       0.00000014       0.00000053       0.00000024
Cd       5.64730964       3.99325197       9.78142782       0.00000046       0.00000073      -0.00000092
Mg      -0.00000001       0.00000010      -0.00000029      -0.00000045      -0.00000040       0.00000453
S        2.01249494       1.42304915       6.52095206      -0.00537761      -0.00380054       0.00000104
S        5.51725028       3.90128541       6.52095209       0.00537767       0.00380462       0.00000012
S        4.64106166       1.42304908       5.00334832       0.00268967      -0.00380444      -0.00465754
S        2.88868445       3.90128533       8.03855615      -0.00268813       0.00380267       0.00465707
S        2.88868420       3.90128480       5.00334843      -0.00269014       0.00380251      -0.00465996
S        4.64106169       1.42304930       8.03855529       0.00268832      -0.00380562       0.00465540
