9
Lattice="4.526965384822539 -1.0955894852801084e-07 2.613644662261655 1.5089883876102974 4.26806369113365 2.6136446115196486 2.8252768881954875e-08 -4.2168324555376185e-08 5.227289275588106" Properties=species:S:1:pos:R:3:forces:R:3 energy=-34.28154754638672 free_energy=-34.28154754638672 stress="0.0002964524319395423 2.8888804237681143e-08 -3.124378977759079e-08 2.8888804237681143e-08 0.00029647027258761227 2.092990136759454e-08 -3.124378977759079e-08 2.092990136759454e-08 0.00029651520890183747" pbc="T T T"
Cd       1.50898888       1.06701637       2.61364464       0.00000137       0.00000020      -0.00000025
Cd       4.52696541       3.20104790       7.84093430       0.00000014       0.00000046      -0.00000015
Mg       0.00000032      -0.00000006      -0.00000046      -0.00000513       0.00000074       0.00000823
O        1.61760709       1.14382089       5.22728897      -0.00427330      -0.00302173       0.00000041
O        4.41834693       3.12424216       5.22728891       0.00427765       0.00302330       0.00000019
O        3.71816154       1.14382108       4.01453354       0.00213854      -0.00302559      -0.00370532
O        2.31779184       3.12424271       6.44004537      -0.00213525       0.00301985       0.00369884
O        2.31779184       3.12424266       4.01453369      -0.00213844       0.00302434      -0.00370300
O        3.71816130       1.14382044       6.44004526       0.00213419      -0.00302158       0.00370114
