9
Lattice="5.637941560114598 -1.560934912055805e-08 3.255067228659246 1.8793138908325626 5.3155023602041584 3.255067138284788 1.8717178350345257e-07 2.16648270848776e-08 6.5101341331275835" Properties=species:S:1:pos:R:3:forces:R:3 energy=-36.986907958984375 free_energy=-36.986907958984375 stress="-0.00020404491806402802 -4.5177948493346776e-08 2.5334724540471143e-08 -4.5177948493346776e-08 -0.0002040433610090986 -7.250052647123084e-08 2.5334724540471143e-08 -7.250052647123084e-08 -0.0002040352119365707" pbc="T T T"
Cd       1.87931433       1.32887552       3.25506650       0.00000181       0.00000008      -0.00000057
Cd       5.63794179       3.98662577       9.76520083       0.00000067      -0.00000103      -0.00000193
Nb       0.00000006       0.00000025      -0.00000030       0.00000051       0.00000075       0.00000504
S        1.93262452       1.36657190       6.51013408       0.00670964       0.00474593      -0.00000030
S        5.58463076       3.94893089       6.51013396      -0.00671196      -0.00474510      -0.00000018
S        4.67162960       1.36657168       4.92876933      -0.00335504       0.00474349       0.00580981
S        2.84562607       3.94893060       8.09150037       0.00335723      -0.00474763      -0.00581190
S        2.84562578       3.94893085       4.92876961       0.00335044      -0.00474043       0.00580770
S        4.67162966       1.36657211       8.09149969      -0.00335318       0.00474414      -0.00580752
