9
Lattice="4.7438020721783225 9.862050450162582e-08 2.7388352668383567 1.5812673281849963 4.472500251407458 2.7388354784743894 -1.4407918970023526e-07 1.5732070755569052e-07 5.4776707832291995" Properties=species:S:1:pos:R:3:forces:R:3 energy=-48.32313537597656 free_energy=-48.32313537597656 stress="-4.0400966099696234e-05 -2.44407338811925e-08 5.762565535860631e-08 -2.44407338811925e-08 -4.038711995235644e-05 -9.866855066320568e-08 5.762565535860631e-08 -9.866855066320568e-08 -4.0379800338996574e-05" pbc="T T T"
Cd       1.58126792       1.11812515       2.73883548       0.00000211       0.00000174      -0.00000021
Cd       4.74380195       3.35437541       8.21650600       0.00000008      -0.00000188      -0.00000074
Nb      -0.00000019      -0.00000032      -0.00000016       0.00000236      -0.00000027      -0.00000042
O        1.63352267       1.15507533       5.47767078      -0.00003171      -0.00002241      -0.00000029
O        4.69154726       3.31742584       5.47767102       0.00002635       0.00002050      -0.00000129
O        3.92704038       1.15507534       4.15350738       0.00001496      -0.00002038      -0.00002408
O        2.39802829       3.31742490       6.80183397      -0.00001627       0.00002277       0.00002587
O        2.39802852       3.31742468       4.15350753      -0.00001484       0.00002384      -0.00002694
O        3.92704014       1.15507595       6.80183399       0.00001657      -0.00002325       0.00002813
