9
Lattice="6.3820324741912255 3.9616419450680823e-07 3.6846679540570957 2.1273444031097832 6.017038133988846 3.684668176558192 -1.65813413566279e-07 1.5525931173963212e-07 7.369336195311362" Properties=species:S:1:pos:R:3:forces:R:3 energy=-30.46196937561035 free_energy=-30.46196937561035 stress="-2.3553113351226784e-05 2.5597975294999742e-08 -1.570288610253101e-08 2.5597975294999742e-08 -2.3585687813465483e-05 1.7687513675923583e-08 -1.570288610253101e-08 1.7687513675923583e-08 -2.3605305614182726e-05" pbc="T T T"
Cd       2.12734420       1.50425999       3.68466814      -0.00000005       0.00000028      -0.00000037
Cd       6.38203232       4.51277884      11.05400396      -0.00000037       0.00000017      -0.00000115
Nb      -0.00000033       0.00000020      -0.00000139       0.00000239      -0.00000062       0.00000784
Te       2.24822333       1.58973422       7.36933592      -0.00014749      -0.00010475       0.00000032
Te       6.26115356       4.42730436       7.36933607       0.00014543       0.00010365       0.00000017
Te       5.25792083       1.58973405       5.63168664       0.00007298      -0.00010448      -0.00012744
Te       3.25145560       4.42730491       9.10698672      -0.00007066       0.00010053       0.00012399
Te       3.25145565       4.42730453       5.63168637      -0.00007223       0.00010313      -0.00012504
Te       5.25792163       1.58973368       9.10698693       0.00007002      -0.00009788       0.00012160
