9
Lattice="6.117269854032019 6.844261869290859e-07 3.531807643214574 2.0390904465751487 5.767417339886019 3.531807903112294 -2.0422263851005778e-07 1.7390128907666236e-07 7.063615640153119" Properties=species:S:1:pos:R:3:forces:R:3 energy=-25.199203491210938 free_energy=-25.199203491210938 stress="5.833715113112703e-05 6.68329676045687e-08 -5.506717304371023e-09 6.68329676045687e-08 5.828406210639514e-05 1.793865322952115e-08 -5.506717304371023e-09 1.793865322952115e-08 5.8204572269460186e-05" pbc="T T T"
Cd       2.03909006       1.44185447       3.53180755       0.00000076      -0.00000010       0.00000008
Cd       6.11727023       4.32556340      10.59542275       0.00000008      -0.00000048       0.00000039
Ni       0.00000053       0.00000011       0.00000090      -0.00000700       0.00000168      -0.00001270
Te       2.10111277       1.48571213       7.06361590       0.00044645       0.00031646       0.00000043
Te       6.05524655       4.28170619       7.06361606      -0.00044373      -0.00031325      -0.00000007
Te       5.06671468       1.48570989       5.35142512      -0.00022551       0.00031901       0.00039172
Te       3.08964621       4.28170696       8.77580630       0.00022405      -0.00031802      -0.00038701
Te       3.08964498       4.28170869       5.35142444       0.00022808      -0.00032111       0.00039427
Te       5.06671436       1.48571109       8.77580587      -0.00022315       0.00031574      -0.00038716
