9
Lattice="5.74272054741755 -1.985047933866711e-08 3.3155613489291214 1.914240188686251 5.414288616463033 3.3155613057509785 7.446666708497122e-08 -2.2635356394601022e-10 6.631122568878279" Properties=species:S:1:pos:R:3:forces:R:3 energy=-27.55001449584961 free_energy=-27.55001449584961 stress="4.5395925553748384e-05 -3.0285860930234776e-08 3.20188808800026e-09 -3.0285860930234776e-08 4.542326496448368e-05 1.6008199210659768e-08 3.20188808800026e-09 1.6008199210659768e-08 4.545526462607086e-05" pbc="T T T"
Cd       1.91424028       1.35357227       3.31556150      -0.00000036      -0.00000060       0.00000004
Cd       5.74272048       4.06071607       9.94668415      -0.00000004      -0.00000042       0.00000002
Ni      -0.00000010       0.00000003      -0.00000025       0.00000046       0.00000096       0.00000073
Se       1.91819747       1.35637028       6.63112262       0.00121143       0.00085708      -0.00000069
Se       5.73876341       4.05791863       6.63112249      -0.00121319      -0.00085732      -0.00000105
Se       4.78362187       1.35637038       4.97676909      -0.00060543       0.00085711       0.00105003
Se       2.87333888       4.05791823       8.28547605       0.00060606      -0.00085714      -0.00104952
Se       2.87333899       4.05791816       4.97676909       0.00060660      -0.00085652       0.00104934
Se       4.78362198       1.35637039       8.28547611      -0.00060539       0.00085694      -0.00104892
