9
Lattice="5.468036350233143 1.2737993835707344e-07 3.1569725919543554 1.8226788597196109 5.155314581783866 3.156972667794617 -7.997637495139415e-08 3.6333148053823854e-08 6.313945322431926" Properties=species:S:1:pos:R:3:forces:R:3 energy=-29.399311065673828 free_energy=-29.399311065673828 stress="-9.46506315813167e-06 2.332527770931847e-08 2.8945748908881797e-08 2.332527770931847e-08 -9.502612556389067e-06 -3.899324241274371e-08 2.8945748908881797e-08 -3.899324241274371e-08 -9.527804650133476e-06" pbc="T T T"
Cd       1.82267853       1.28882838       3.15697235      -0.00000024      -0.00000012      -0.00000052
Cd       5.46803614       3.86648547       9.47091763      -0.00000037      -0.00000042      -0.00000020
Ni       0.00000014      -0.00000007       0.00000016       0.00000173       0.00000358       0.00000438
S        1.78574117       1.26271005       6.31394559       0.00043863       0.00031212       0.00000065
S        5.50497383       3.89260540       6.31394579      -0.00044253      -0.00031260       0.00000086
S        4.57516571       1.26270988       4.70346976      -0.00022003       0.00031227       0.00038314
S        2.71554942       3.89260522       7.92442068       0.00022289      -0.00031433      -0.00038674
S        2.71554992       3.89260471       4.70346972       0.00022045      -0.00031245       0.00038081
S        4.57516550       1.26270972       7.92442080      -0.00022072       0.00031206      -0.00038260
