9
Lattice="5.977482584431081 4.4902678836768964e-08 3.45110119779833 1.9924942429195056 5.635624685065002 3.451101187796621 8.779189998254914e-08 4.982863701044904e-08 6.902202243536655" Properties=species:S:1:pos:R:3:forces:R:3 energy=-33.782840728759766 free_energy=-33.782840728759766 stress="-4.292498488212004e-05 1.986443676216254e-09 -1.287096207391869e-08 1.986443676216254e-09 -4.294826794648543e-05 1.042804687045873e-08 -1.287096207391869e-08 1.042804687045873e-08 -4.29434803663753e-05" pbc="T T T"
Cd       1.99249435       1.40890642       3.45110114      -0.00000001       0.00000043      -0.00000009
Cd       5.97748262       4.22671836      10.35330345      -0.00000010       0.00000006       0.00000057
Nb      -0.00000003       0.00000006       0.00000024       0.00000240      -0.00000167      -0.00000253
Se       2.04009667       1.44256601       6.90220212       0.00185061       0.00130728      -0.00000048
Se       5.92988039       4.19305861       6.90220245      -0.00185093      -0.00130955      -0.00000054
Se       4.95743456       1.44256609       5.21787628      -0.00092578       0.00130900       0.00160405
Se       3.01254245       4.19305869       8.58652812       0.00092317      -0.00130590      -0.00160095
Se       3.01254240       4.19305863       5.21787632       0.00092634      -0.00130907       0.00160323
Se       4.95743425       1.44256625       8.58652839      -0.00092572       0.00130934      -0.00160321
