9
Lattice="5.892244942717014 -8.655015905569277e-09 3.4018891259887822 1.9640816302344875 5.555261846251127 3.4018891418851935 -2.9774789365208683e-08 -1.5848718672486267e-09 6.803778303548986" Properties=species:S:1:pos:R:3:forces:R:3 energy=-27.313064575195312 free_energy=-27.313064575195312 stress="-0.00017950877372641116 1.5060479086059786e-08 -2.1206675526741492e-08 1.5060479086059786e-08 -0.00017949636094272137 3.0525537653147694e-08 -2.1206675526741492e-08 3.0525537653147694e-08 -0.00017954035138245672" pbc="T T T"
Cd       1.96408156       1.38881571       3.40188919       0.00000052      -0.00000034      -0.00000013
Cd       5.89224495       4.16644644      10.20566781      -0.00000014       0.00000019       0.00000054
Pd      -0.00000011      -0.00000017       0.00000019       0.00000032      -0.00000075      -0.00000097
Se       2.04695504       1.44741580       6.80377834      -0.00557253      -0.00394130      -0.00000047
Se       5.80937167       4.10784599       6.80377816       0.00557306       0.00393987      -0.00000018
Se       4.86876735       1.44741576       5.17460416       0.00278592      -0.00393981      -0.00482520
Se       2.98755914       4.10784590       8.43295218      -0.00278755       0.00394133       0.00482672
Se       2.98755920       4.10784623       5.17460377      -0.00278556       0.00393948      -0.00482455
Se       4.86876735       1.44741570       8.43295247       0.00278571      -0.00393873       0.00482431
