9
Lattice="6.719642199851687 -1.4229388876104447e-08 3.8795872758806973 2.2398807422709197 6.335339444916701 3.8795872370780744 -8.33375280061111e-08 -1.0645182712122565e-07 7.759174696106259" Properties=species:S:1:pos:R:3:forces:R:3 energy=-22.391584396362305 free_energy=-22.391584396362305 stress="-8.453120972262695e-05 2.236058227467197e-09 5.50349765759961e-09 2.236058227467197e-09 -8.453326154267415e-05 1.0925035986986131e-08 5.50349765759961e-09 1.0925035986986131e-08 -8.453874033875763e-05" pbc="T T T"
Cd       2.23988077       1.58383506       3.87958738       0.00000042       0.00000060      -0.00000009
Cd       6.71964203       4.75150450      11.63876179      -0.00000045      -0.00000024      -0.00000018
Pb      -0.00000030       0.00000026       0.00000007      -0.00000029       0.00000020       0.00000007
Te       2.59512571       1.83503163       7.75917477      -0.00094745      -0.00067002       0.00000027
Te       6.36439671       4.50030857       7.75917423       0.00094725       0.00066958      -0.00000068
Te       5.42207949       1.83503114       6.12703175       0.00047386      -0.00066868      -0.00081951
Te       3.53744407       4.50030761       9.39131661      -0.00047319       0.00066940       0.00082123
Te       3.53744382       4.50030775       6.12703280      -0.00047313       0.00066928      -0.00082098
Te       5.42207919       1.83503079       9.39131745       0.00047293      -0.00067008       0.00081986
