9
Lattice="6.032613640441459 -1.8639754048589378e-08 3.4829310455704703 2.010871139577746 5.687602114867007 3.4829311431352363 2.585279329547481e-07 3.0229867578371984e-07 6.965861643357421" Properties=species:S:1:pos:R:3:forces:R:3 energy=-24.469343185424805 free_energy=-24.469343185424805 stress="-1.8084458133671433e-05 -1.885282330249538e-08 -1.2132884030791047e-08 -1.885282330249538e-08 -1.8044149328488857e-05 -2.926214648368841e-08 -1.2132884030791047e-08 -2.926214648368841e-08 -1.8005468518822454e-05" pbc="T T T"
Cd       2.01087149       1.42190002       3.48293030      -0.00000172      -0.00000014       0.00000332
Cd       6.03261362       4.26570214      10.44879362      -0.00000108      -0.00000092       0.00000262
Pb       0.00000024       0.00000037       0.00000161       0.00000087      -0.00000132      -0.00000840
Se       2.47326256       1.74886083       6.96586172      -0.00093201      -0.00065944      -0.00000637
Se       5.57022362       3.93874183       6.96586289       0.00093219       0.00065559      -0.00000395
Se       4.79598349       1.74885843       5.62483814       0.00046411      -0.00065386      -0.00080352
Se       3.24750352       3.93874083       8.30688361      -0.00046809       0.00066680       0.00081241
Se       3.24750047       3.93874266       5.62483886      -0.00046562       0.00065590      -0.00080626
Se       4.79598112       1.74886249       8.30688458       0.00047134      -0.00066262       0.00081013
