9
Lattice="4.580642855921215 -2.906267391611206e-07 2.6446351970930553 1.5268807519932113 4.318670792268386 2.644635068878007 -3.916204220335203e-09 -1.5979994540986813e-07 5.289270400969098" Properties=species:S:1:pos:R:3:forces:R:3 energy=-36.652156829833984 free_energy=-36.652156829833984 stress="0.00012437078112270683 -9.237466258582572e-08 2.4668628029189676e-08 -9.237466258582572e-08 0.0001243271544808522 1.0171421926941093e-08 2.4668628029189676e-08 1.0171421926941093e-08 0.00012452904775273055" pbc="T T T"
Cd       1.52688124       1.07966871       2.64463530      -0.00000085      -0.00000159       0.00000008
Cd       4.58064227       3.23900208       7.93390577      -0.00000022      -0.00000038      -0.00000009
Pd      -0.00000018      -0.00000078      -0.00000004       0.00001413       0.00003190      -0.00000350
O        1.57623276       1.11456497       5.28927047       0.00620633       0.00439146      -0.00000130
O        4.53129191       3.20410533       5.28927110      -0.00622955      -0.00440903       0.00000217
O        3.79252576       1.11456520       4.00969229      -0.00310674       0.00439358       0.00537805
O        2.31499734       3.20410588       6.56884801       0.00311109      -0.00439881      -0.00538559
O        2.31499743       3.20410638       4.00969252       0.00311103      -0.00439683       0.00538857
O        3.79252588       1.11456373       6.56884728      -0.00310508       0.00438936      -0.00537872
