9
Lattice="5.485117510556832 -1.8848504002527538e-07 3.166834041557338 1.82837246679427 5.171417543093059 3.166833797371519 -7.253886691550102e-08 -3.503579999551516e-07 6.33366820875565" Properties=species:S:1:pos:R:3:forces:R:3 energy=-30.765275955200195 free_energy=-30.765275955200195 stress="-0.00034796461113728583 1.8976754390109818e-08 4.017169175085655e-08 1.8976754390109818e-08 -0.0003479512524791062 -4.509782769446247e-08 4.017169175085655e-08 -4.509782769446247e-08 -0.0003479978768154979" pbc="T T T"
Cd       1.82837294       1.29285389       3.16683414       0.00000011      -0.00000050      -0.00000140
Cd       5.48511751       3.87856293       9.50050144      -0.00000051      -0.00000019      -0.00000232
Pt      -0.00000001      -0.00000003      -0.00000141      -0.00000136       0.00000003       0.00002508
S        1.88271152       1.33127793       6.33366807       0.00704187       0.00498101       0.00000124
S        5.43077805       3.84013933       6.33366800      -0.00704145      -0.00497910       0.00000038
S        4.54376091       1.33127812       4.79731010      -0.00351951       0.00497836       0.00609601
S        2.76972819       3.84013957       7.87002694       0.00352719      -0.00498757      -0.00610822
S        2.76972869       3.84013918       4.79731041       0.00351813      -0.00497422       0.00609416
S        4.54376175       1.33127704       7.87002653      -0.00352430       0.00498271      -0.00610572
