9
Lattice="4.858651562089255 2.0827430556500673e-07 2.805143511265485 1.619550727430705 4.580780529728898 2.805143493301736 2.957711635154584e-08 -1.0868007172447148e-09 5.6102869713018935" Properties=species:S:1:pos:R:3:forces:R:3 energy=-34.423336029052734 free_energy=-34.423336029052734 stress="-0.0004113875038456172 -2.1275882389204526e-08 3.000544879228073e-08 -2.1275882389204526e-08 -0.00041131890611723065 1.0930677696308067e-08 3.000544879228073e-08 1.0930677696308067e-08 -0.0004112983588129282" pbc="T T T"
Cd       1.61955096       1.14519454       2.80514335       0.00000088      -0.00000179      -0.00000076
Cd       4.85865193       3.43558592       8.41543040       0.00000108       0.00000109      -0.00000049
Pb      -0.00000044       0.00000005      -0.00000196       0.00000956      -0.00000156       0.00003212
O        1.70855102       1.20812830       5.61028645       0.00655623       0.00463551       0.00000031
O        4.76965165       3.37265338       5.61028687      -0.00656369      -0.00463977       0.00000276
O        4.00437610       1.20812874       4.28479256      -0.00327308       0.00463057       0.00567514
O        2.47382540       3.37265346       6.93578235       0.00328484      -0.00464360      -0.00568764
O        2.47382668       3.37265167       4.28479252       0.00327214      -0.00462687       0.00566882
O        4.00437612       1.20812673       6.93578300      -0.00328809       0.00464655      -0.00569052
