9
Lattice="5.59248663134448 3.4271484544327873e-07 3.2288237300163387 1.8641624273789636 5.272647238494863 3.2288239139321897 -2.915191859369402e-08 2.0463648571383285e-07 6.457647510525496" Properties=species:S:1:pos:R:3:forces:R:3 energy=-28.410690307617188 free_energy=-28.410690307617188 stress="-1.3414495697361417e-05 -4.339782222473332e-08 -1.0781364689904649e-09 -4.339782222473332e-08 -1.339658319921e-05 2.5144863968762365e-10 -1.0781364689904649e-09 2.5144863968762365e-10 -1.3357769603317138e-05" pbc="T T T"
Cd       1.86416259       1.31816254       3.22882434       0.00000145       0.00000154       0.00000030
Cd       5.59248647       3.95448657       9.68647200      -0.00000104      -0.00000006       0.00000051
Pd      -0.00000013      -0.00000030      -0.00000184       0.00000001       0.00000407       0.00003163
S        1.92955976       1.36440533       6.45764723      -0.00002563      -0.00001919      -0.00000362
S        5.52708951       3.90824263       6.45764696       0.00002342       0.00001687      -0.00000390
S        4.62770669       1.36440539       4.89987219       0.00001594      -0.00002426      -0.00002980
S        2.82894263       3.90824125       8.01542399      -0.00001040       0.00001454       0.00001657
S        2.82894257       3.90824171       4.89987195      -0.00001496       0.00002128      -0.00002909
S        4.62770610       1.36440620       8.01542381       0.00001085      -0.00001478       0.00001770
