9
Lattice="4.709681285289821 -2.5443453730149988e-08 2.7191358297578847 1.5698937959869146 4.4403298477757795 2.719135728931888 8.253821414026768e-08 -6.51228813273914e-08 5.438271516555441" Properties=species:S:1:pos:R:3:forces:R:3 energy=-38.63005447387695 free_energy=-38.63005447387695 stress="-0.000139421594212763 -3.0976202936017216e-08 2.687736966322518e-08 -3.0976202936017216e-08 -0.00013936471077613533 6.719902967411429e-10 2.687736966322518e-08 6.719902967411429e-10 -0.0001391147234244272" pbc="T T T"
Cd       1.56989416       1.11008238       2.71913572       0.00000026      -0.00000102      -0.00000179
Cd       4.70968162       3.33024742       8.15740715       0.00000186      -0.00000023      -0.00000101
Pt       0.00000000      -0.00000032      -0.00000049      -0.00000264       0.00000890      -0.00000059
O        1.56103674       1.10381976       5.43827178       0.00153792       0.00108781      -0.00000087
O        4.71853829       3.33651038       5.43827172      -0.00154150      -0.00108890       0.00000042
O        3.92916297       1.10381926       4.07103353      -0.00076960       0.00108600       0.00132753
O        2.35041212       3.33650966       6.80550968       0.00076950      -0.00108850      -0.00132903
O        2.35041182       3.33651077       4.07103398       0.00076847      -0.00108753       0.00133070
O        3.92916295       1.10381976       6.80550917      -0.00076434       0.00108381      -0.00132535
