9
Lattice="5.782163605064511 9.584345271654923e-08 3.338333709777978 1.9273879524245339 5.45147621606371 3.338333720676678 -8.98559655530557e-09 6.994376437439577e-09 6.676667435119457" Properties=species:S:1:pos:R:3:forces:R:3 energy=-24.96106719970703 free_energy=-24.96106719970703 stress="-1.253763821296161e-05 -2.6805077601999017e-10 -2.0914572296248934e-09 -2.6805077601999017e-10 -1.2552573934954125e-05 -1.6104978683983973e-08 -2.0914572296248934e-09 -1.6104978683983973e-08 -1.2520424206741154e-05" pbc="T T T"
Cd       1.92738798       1.36286908       3.33833367       0.00000049      -0.00000096      -0.00000097
Cd       5.78216357       4.08860695      10.01500074      -0.00000115      -0.00000030      -0.00000233
Pb      -0.00000006       0.00000001      -0.00000014      -0.00000022       0.00000046      -0.00000275
S        2.09476785       1.48122460       6.67666723       0.00155109       0.00109667       0.00000011
S        5.61478380       3.97025171       6.67666756      -0.00155106      -0.00109647       0.00000097
S        4.73477978       1.48122469       5.15245596      -0.00077578       0.00109735       0.00134547
S        2.97477205       3.97025178       8.20087921       0.00077553      -0.00109674      -0.00134349
S        2.97477162       3.97025169       5.15245604       0.00077666      -0.00109723       0.00134504
S        4.73477955       1.48122480       8.20087926      -0.00077546       0.00109719      -0.00134219
