9
Lattice="5.6947523263134725 7.555928005009e-08 3.287866883368435 1.8982508456074738 5.369063576133451 3.287866885218777 1.1427570091042977e-07 8.307133387092998e-08 6.5757335688055605" Properties=species:S:1:pos:R:3:forces:R:3 energy=-31.04010581970215 free_energy=-31.04010581970215 stress="-0.0002823443792294711 1.1041131564581974e-08 -2.009812316572379e-09 1.1041131564581974e-08 -0.00028233733610250056 3.4023228678847772e-09 -2.009812316572379e-09 3.4023228678847772e-09 -0.00028235395438969135" pbc="T T T"
Cd       1.89825015       1.34226599       3.28786654      -0.00000263      -0.00000012      -0.00000009
Cd       5.69475194       4.02679989       9.86360189      -0.00000119       0.00000504       0.00000247
Sc      -0.00000018      -0.00000008       0.00000023       0.00000173      -0.00000133      -0.00000339
S        2.01527893       1.42501624       6.57573379       0.00313058       0.00221255       0.00000077
S        5.57772477       3.94404660       6.57573351      -0.00312877      -0.00221416       0.00000141
S        4.68711359       1.42501642       5.03314936      -0.00156392       0.00221336       0.00271041
S        2.90589022       3.94404690       8.11831753       0.00156377      -0.00221234      -0.00271076
S        2.90589039       3.94404694       5.03314892       0.00156638      -0.00221447       0.00271044
S        4.68711334       1.42501600       8.11831761      -0.00156604       0.00221151      -0.00271137
