9
Lattice="5.751978937531702 -9.776349673245104e-08 3.3209062421411013 1.917326220859968 5.423017914466731 3.320906241237438 -6.08111764729122e-08 -4.410674436329488e-08 6.641812589610249" Properties=species:S:1:pos:R:3:forces:R:3 energy=-27.191688537597656 free_energy=-27.191688537597656 stress="-0.00016210867033805698 -1.2168301921633429e-08 -1.3574831037033164e-08 -1.2168301921633429e-08 -0.00016212952323257923 2.0502559650026342e-08 -1.3574831037033164e-08 2.0502559650026342e-08 -0.00016207655426114798" pbc="T T T"
Cd       1.91732628       1.35575424       3.32090610       0.00000008      -0.00000143      -0.00000012
Cd       5.75197840       4.06726296       9.96271869      -0.00000122       0.00000007      -0.00000001
Sn      -0.00000006      -0.00000013      -0.00000048       0.00000263       0.00000067       0.00000877
S        2.02732272       1.43353378       6.64181306      -0.00007951      -0.00005648       0.00000319
S        5.64198231       3.98948455       6.64181260       0.00007674       0.00005552       0.00000224
S        4.73831737       1.43353404       5.07661924       0.00004120      -0.00005624      -0.00007117
S        2.93098821       3.98948464       8.20700596      -0.00003688       0.00005680       0.00006625
S        2.93098786       3.98948395       5.07661921      -0.00004087       0.00005698      -0.00007251
S        4.73831731       1.43353306       8.20700574       0.00003788      -0.00005597       0.00006351
