9
Lattice="4.579161192949805 4.905755804559549e-08 2.643779798181734 1.5263870066562837 4.317275035286411 2.643779978162963 -8.871873635142093e-08 1.5769749803595956e-07 5.287559750028781" Properties=species:S:1:pos:R:3:forces:R:3 energy=-42.07033157348633 free_energy=-42.07033157348633 stress="0.00011518386600073427 -1.218292169369306e-07 -5.105719225184657e-08 -1.218292169369306e-07 0.00011511494813021272 1.9535475459520057e-08 -5.105719225184657e-08 1.9535475459520057e-08 0.00011525840818649158" pbc="T T T"
Cd       1.52638617       1.07931858       2.64377967      -0.00000099      -0.00000021       0.00000050
Cd       4.57916154       3.23795668       7.93133932      -0.00000019      -0.00000028      -0.00000043
Sc      -0.00000019      -0.00000038       0.00000030       0.00000535       0.00000810      -0.00001346
O        1.65358700       1.16926185       5.28755995       0.00094077       0.00066203      -0.00000005
O        4.45196209       3.14801290       5.28755980      -0.00094646      -0.00066897       0.00000046
O        3.75236828       1.16926263       4.07582770      -0.00046982       0.00066572       0.00081536
O        2.35317986       3.14801299       6.49929160       0.00046627      -0.00066110      -0.00081059
O        2.35317976       3.14801299       4.07582814       0.00047192      -0.00066763       0.00081947
O        3.75236818       1.16926261       6.49929151      -0.00046666       0.00066245      -0.00081122
