9
Lattice="4.571430862602233 2.160323964782477e-08 2.63931658629017 1.5238103434719847 4.309986192833543 2.639316524680728 -7.567216791594746e-08 -1.289640797574804e-07 5.278633303648317" Properties=species:S:1:pos:R:3:forces:R:3 energy=-38.10722732543945 free_energy=-38.10722732543945 stress="-0.00043102874769829214 -1.3515524699414527e-08 -8.406479423683777e-08 -1.3515524699414527e-08 -0.0004309082869440317 -3.776438362024237e-08 -8.406479423683777e-08 -3.776438362024237e-08 -0.000431047345045954" pbc="T T T"
Cd       1.52381018       1.07749629       2.63931645      -0.00000153       0.00000111      -0.00000135
Cd       4.57143103       3.23248925       7.91794954      -0.00000254       0.00000050      -0.00000190
Se      -0.00000281       0.00000144      -0.00000272      -0.00002428       0.00000907      -0.00002600
O        1.49780888       1.05911043       5.27863383       0.00486982       0.00343502       0.00000428
O        4.59743360       3.25087589       5.27863411      -0.00486624      -0.00344086       0.00000172
O        3.82252756       1.05910940       3.93645725      -0.00242800       0.00344121       0.00421786
O        2.27271450       3.25087516       6.62081092       0.00243694      -0.00343919      -0.00420690
O        2.27271396       3.25087610       3.93645678       0.00244224      -0.00344253       0.00421798
O        3.82252755       1.05911043       6.62081035      -0.00242561       0.00343490      -0.00420463
