9
Lattice="6.474694725613852 8.880096220701059e-08 3.738167050791754 2.1582316916780053 6.104400847791106 3.7381669940652795 1.0377867458365372e-07 3.907188984783905e-09 7.4763339218335485" Properties=species:S:1:pos:R:3:forces:R:3 energy=-27.54302406311035 free_energy=-27.54302406311035 stress="-0.00023683899780735373 6.0182410166476075e-09 -1.0959551488554098e-08 6.0182410166476075e-09 -0.00023683052859269083 1.0911451298056818e-08 -1.0959551488554098e-08 1.0911451298056818e-08 -0.00023686366330366582" pbc="T T T"
Cd       2.15823194       1.52610053       3.73816687       0.00000036      -0.00000017      -0.00000022
Cd       6.47469475       4.57830003      11.21450052      -0.00000011      -0.00000122      -0.00000088
Sc      -0.00000056      -0.00000137      -0.00000049       0.00000214       0.00000927       0.00000173
Te       2.34889994       1.66092437       7.47633411      -0.00715119      -0.00505611      -0.00000114
Te       6.28402738       4.44347764       7.47633435       0.00714440       0.00505171      -0.00000016
Te       5.30024473       1.66092332       5.77237419       0.00357400      -0.00505412      -0.00619169
Te       3.33268183       4.44347775       9.18029439      -0.00357214       0.00505416       0.00618929
Te       3.33268127       4.44347839       5.77237384      -0.00357105       0.00505206      -0.00618706
Te       5.30024478       1.66092313       9.18029420       0.00357360      -0.00505559       0.00619017
