9
Lattice="6.9195788340148265 8.113089495341295e-08 3.9950206937534913 2.306526379214705 6.523841312051645 3.995020650939208 -3.953636430813908e-10 -5.271608134664212e-08 7.990041388191675" Properties=species:S:1:pos:R:3:forces:R:3 energy=-22.400978088378906 free_energy=-22.400978088378906 stress="-9.866819164017215e-05 9.239024656437778e-09 -4.985463597506623e-09 9.239024656437778e-09 -9.866587060969323e-05 5.078162335081515e-09 -4.985463597506623e-09 5.078162335081515e-09 -9.86949453363195e-05" pbc="T T T"
Cd       2.30652647       1.63096051       3.99502069       0.00000001       0.00000015      -0.00000031
Cd       6.91957879       4.89288081      11.98506215       0.00000005      -0.00000028       0.00000056
Sr       0.00000000      -0.00000012      -0.00000050      -0.00000056      -0.00000018       0.00000252
Te       2.71199457       1.91766984       7.99004123      -0.00399213      -0.00282317      -0.00000031
Te       6.51411066       4.60617144       7.99004127       0.00399242       0.00282222      -0.00000075
Te       5.56358163       1.91767008       6.34367653       0.00199604      -0.00282175      -0.00345660
Te       3.66252335       4.60617120       9.63640637      -0.00199604       0.00282185       0.00345669
Te       3.66252384       4.60617152       6.34367665      -0.00199513       0.00282245      -0.00345723
Te       5.56358160       1.91767006       9.63640648       0.00199534      -0.00282132       0.00345547
