9
Lattice="5.642725622985157 -5.55319404227346e-08 3.257829298331738 1.880908531393674 5.320012780786506 3.257829224278625 2.675221867043982e-07 9.847050066986732e-08 6.515658133301414" Properties=species:S:1:pos:R:3:forces:R:3 energy=-26.579776763916016 free_energy=-26.579776763916016 stress="0.00013837250298820436 -1.2081321187906724e-07 -2.4062577708150457e-08 -1.2081321187906724e-07 0.00013844481145497411 2.0260028321672507e-08 -2.4062577708150457e-08 2.0260028321672507e-08 0.0001385838259011507" pbc="T T T"
Cd       1.88090880       1.33000327       3.25782883       0.00000035      -0.00000056      -0.00000152
Cd       5.64272549       3.99000965       9.77348714      -0.00000001      -0.00000030      -0.00000077
Se       0.00000007      -0.00000052      -0.00000045      -0.00000121       0.00001981       0.00001118
S        1.82117980       1.28776805       6.51565790      -0.00047308      -0.00033358       0.00000026
S        5.70245486       4.03224488       6.51565844       0.00046292       0.00032878      -0.00000052
S        4.73213569       1.28776873       4.83501815       0.00024666      -0.00034815      -0.00042546
S        2.79149882       4.03224382       8.19629919      -0.00023523       0.00033230       0.00041038
S        2.79149852       4.03224446       4.83501768      -0.00023933       0.00033912      -0.00041154
S        4.73213565       1.28776895       8.19629950       0.00023909      -0.00033745       0.00041786
