9
Lattice="6.108239035659778 3.711427561124637e-08 3.5265938162535098 2.03607974910564 5.758903310180414 3.5265937546605826 1.5005039728223882e-07 3.06660403145886e-08 7.053187372612128" Properties=species:S:1:pos:R:3:forces:R:3 energy=-23.41649627685547 free_energy=-23.41649627685547 stress="-2.2995069230091758e-05 -1.1371578345631406e-08 -3.1576237180530597e-09 -1.1371578345631406e-08 -2.2974281819188036e-05 9.314326199216794e-09 -3.1576237180530597e-09 9.314326199216794e-09 -2.2952721337787807e-05" pbc="T T T"
Cd       2.03607996       1.43972576       3.52659373       0.00000114       0.00000021       0.00000051
Cd       6.10823935       4.31917725      10.57978148      -0.00000053      -0.00000068      -0.00000080
Sr       0.00000004      -0.00000061       0.00000077      -0.00000014       0.00000536      -0.00000666
S        2.34053479       1.65500803       7.05318700       0.00441311       0.00312091      -0.00000182
S        5.80378419       4.10389595       7.05318751      -0.00441491      -0.00312053      -0.00000117
S        4.93797161       1.65500778       5.55355653      -0.00220851       0.00312130       0.00382368
S        3.20634730       4.10389514       8.55281863       0.00220572      -0.00312087      -0.00382026
S        3.20634662       4.10389558       5.55355576       0.00220796      -0.00312460       0.00382589
S        4.93797186       1.65500870       8.55281838      -0.00220382       0.00311880      -0.00381942
