9
Lattice="4.702181747698559 -3.8431920277943454e-07 2.7148055523684196 1.567393617968411 4.433258633447268 2.7148054408093065 -2.0826582651661024e-07 -2.838974713297636e-07 5.429611465463705" Properties=species:S:1:pos:R:3:forces:R:3 energy=-37.02503204345703 free_energy=-37.02503204345703 stress="0.00011389103019610047 3.684431959527501e-08 -3.0419140983894977e-08 3.684431959527501e-08 0.00011388248094590381 -6.01554503987245e-08 -3.0419140983894977e-08 -6.01554503987245e-08 0.00011386851110728458" pbc="T T T"
Cd       1.56739406       1.10831505       2.71480516       0.00000093       0.00000065      -0.00000050
Cd       4.70218133       3.32494245       8.14441733      -0.00000161      -0.00000143       0.00000076
Sn      -0.00000034      -0.00000018      -0.00000026       0.00000219       0.00000248       0.00000436
O        1.68865668       1.19406043       5.42961100       0.00078827       0.00055844      -0.00000114
O        4.58091822       3.23919687       5.42961078      -0.00078726      -0.00055873      -0.00000085
O        3.85785314       1.19406085       4.17722501      -0.00039440       0.00055760       0.00068223
O        2.41172164       3.23919685       6.68199715       0.00039202      -0.00056028      -0.00068444
O        2.41172278       3.23919808       4.17722527       0.00039473      -0.00055599       0.00068206
O        3.85785261       1.19406090       6.68199732      -0.00039485       0.00055730      -0.00068182
