9
Lattice="6.365511352184876 -3.233752860306639e-07 3.6751290858089702 2.121836626300764 6.001461565750613 3.6751294083393793 -1.609528158439384e-08 3.836363437657469e-07 7.350258199495739" Properties=species:S:1:pos:R:3:forces:R:3 energy=-22.921024322509766 free_energy=-22.921024322509766 stress="-6.094827767810784e-05 1.9408498985740152e-07 -6.59641727907001e-08 1.9408498985740152e-07 -6.0871258028782904e-05 -1.0380042425595093e-07 -6.59641727907001e-08 -1.0380042425595093e-07 -6.0600938013521954e-05" pbc="T T T"
Cd       2.12183733       1.50036544       3.67512972       0.00000328      -0.00000131      -0.00000007
Cd       6.36551195       4.50109557      11.02538747       0.00000107      -0.00000114       0.00000204
Sr       0.00000002       0.00000001       0.00000022       0.00000729      -0.00000210       0.00000149
Se       2.57718913       1.82234741       7.35025709      -0.00221152      -0.00156974      -0.00000689
Se       5.91015547       4.17910802       7.35025866       0.00219108       0.00153109       0.00000369
Se       5.07691817       1.82234873       5.90704596       0.00111511      -0.00155973      -0.00187652
Se       3.41043300       4.17911493       8.79347775      -0.00109733       0.00157041       0.00192200
Se       3.41043030       4.17911519       5.90704016      -0.00111554       0.00157588      -0.00191876
Se       5.07691648       1.82235121       8.79346982       0.00110660      -0.00154335       0.00187304
