9
Lattice="6.0600126135513825 9.910624179599129e-08 3.4987497706245696 2.0200042802017704 5.713434684796988 3.4987498013747196 -4.9505867088996495e-08 2.6551322442625897e-09 6.99749962699583" Properties=species:S:1:pos:R:3:forces:R:3 energy=-28.707918167114258 free_energy=-28.707918167114258 stress="2.4450917408103123e-05 3.919497260085336e-08 3.428577954878165e-08 3.919497260085336e-08 2.4450091586913913e-05 -2.8958821118862943e-08 3.428577954878165e-08 -2.8958821118862943e-08 2.4461654902552254e-05" pbc="T T T"
Cd       2.02000402       1.42835895       3.49874963       0.00000037       0.00000066      -0.00000130
Cd       6.06001245       4.28507583      10.49624944      -0.00000223      -0.00000029      -0.00000125
Sc      -0.00000006       0.00000008      -0.00000091      -0.00000231      -0.00000123       0.00000688
Se       2.14850719       1.51922400       6.99749950       0.00047119       0.00033402      -0.00000036
Se       5.93150972       4.19421061       6.99749952      -0.00047004      -0.00033155      -0.00000106
Se       4.98575934       1.51922373       5.35941160      -0.00023519       0.00033288       0.00040737
Se       3.09425750       4.19421087       8.63558824       0.00023768      -0.00033766      -0.00041071
Se       3.09425774       4.19421103       5.35941164       0.00023562      -0.00033067       0.00040853
Se       4.98575948       1.51922406       8.63558812      -0.00023513       0.00033392      -0.00040817
