9
Lattice="6.061293620199186 2.5332865525121314e-08 3.4994895338363325 2.0204312008164313 5.714642487966966 3.4994895854525896 -5.2558019282071225e-08 2.6052633596754895e-08 6.998979158705862" Properties=species:S:1:pos:R:3:forces:R:3 energy=-25.428125381469727 free_energy=-25.428125381469727 stress="5.287243766360916e-06 -4.998558011948262e-09 5.110896594828773e-09 -4.998558011948262e-09 5.269115717965178e-06 -4.038225309699328e-09 5.110896594828773e-09 -4.038225309699328e-09 5.2884602155245375e-06" pbc="T T T"
Cd       2.02043114       1.42866081       3.49948953      -0.00000037       0.00000109      -0.00000005
Cd       6.06129360       4.28598181      10.49846871       0.00000028      -0.00000081      -0.00000021
Sn       0.00000017       0.00000013       0.00000018      -0.00000258      -0.00000247       0.00000170
Se       2.16349135       1.52981943       6.99897916       0.00023233       0.00016311       0.00000015
Se       5.91823321       4.18482297       6.99897915      -0.00022863      -0.00016167      -0.00000007
Se       4.97954798       1.52981949       5.37312796      -0.00011469       0.00016179       0.00019860
Se       3.10217685       4.18482283       8.62483009       0.00011504      -0.00016278      -0.00019863
Se       3.10217697       4.18482315       5.37312819       0.00011415      -0.00016152       0.00019839
Se       4.97954787       1.52981955       8.62483017      -0.00011542       0.00016333      -0.00019999
