9
Lattice="4.454460916700539 1.0458041481771065e-08 2.5717844741204976 1.484820279747354 4.199706674208075 2.5717845359190377 -1.3380194185588904e-07 -1.8924799839838452e-08 5.143569179992737" Properties=species:S:1:pos:R:3:forces:R:3 energy=-41.272865295410156 free_energy=-41.272865295410156 stress="-0.0003458873543422669 -3.4837071893889515e-08 -3.665784475970213e-08 -3.4837071893889515e-08 -0.00034589835559017956 -7.662736223323918e-09 -3.665784475970213e-08 -7.662736223323918e-09 -0.0003456278354860842" pbc="T T T"
Cd       1.48482022       1.04992678       2.57178466       0.00000030      -0.00000035       0.00000020
Cd       4.45446078       3.14977982       7.71535359       0.00000167       0.00000045       0.00000048
S       -0.00000008       0.00000004      -0.00000006      -0.00000398       0.00000117       0.00000040
O        1.33739755       0.94568300       5.14356893       0.00105238       0.00074804      -0.00000268
O        4.60188337       3.25402349       5.14356883      -0.00105047      -0.00074303      -0.00000098
O        3.78576199       0.94568291       3.73000508      -0.00052726       0.00074530       0.00091481
O        2.15351928       3.25402341       6.55713351       0.00052452      -0.00074482      -0.00091779
O        2.15351937       3.25402376       3.73000490       0.00052476      -0.00074732       0.00091863
O        3.78576180       0.94568338       6.55713338      -0.00052285       0.00074017      -0.00091219
