9
Lattice="6.514638604456549 -1.3534563875184138e-08 3.761228437225558 2.1715461950488186 6.142059802681736 3.7612284262724627 -4.9715408078365685e-08 -4.8568917354093984e-08 7.522456960560725" Properties=species:S:1:pos:R:3:forces:R:3 energy=-23.126487731933594 free_energy=-23.126487731933594 stress="-1.716149017738644e-05 -1.1528624277445942e-08 -5.128131252973844e-09 -1.1528624277445942e-08 -1.715069083729759e-05 1.6731894758592603e-09 -5.128131252973844e-09 1.6731894758592603e-09 -1.7153104636236094e-05" pbc="T T T"
Cd       2.17154636       1.53551515       3.76122837       0.00000013       0.00000050       0.00000014
Cd       6.51463839       4.60654470      11.28368570      -0.00000025      -0.00000039       0.00000074
Sn      -0.00000058      -0.00000031       0.00000078       0.00000334       0.00000279      -0.00000711
Te       2.38768882       1.68835113       7.52245729       0.00074914       0.00052959       0.00000003
Te       6.29849720       4.45370946       7.52245673      -0.00075328      -0.00053266      -0.00000041
Te       5.32079461       1.68835021       5.82902664      -0.00037581       0.00053281       0.00065096
Te       3.36539073       4.45370813       9.21588643       0.00037472      -0.00052978      -0.00064792
Te       3.36538989       4.45370957       5.82902678       0.00037673      -0.00053239       0.00065146
Te       5.32079361       1.68835093       9.21588655      -0.00037469       0.00052957      -0.00064801
