9
Lattice="4.908678788773969 1.6136469519736555e-08 2.8340270117256043 1.6362262861230565 4.627946763341676 2.8340269978955384 -1.7270745193479176e-09 -1.815953919399786e-08 5.668054026442588" Properties=species:S:1:pos:R:3:forces:R:3 energy=-32.341522216796875 free_energy=-32.341522216796875 stress="-0.0001107766292989254 1.4460010078209962e-08 -2.978467916747718e-09 1.4460010078209962e-08 -0.00011076930968556553 9.836956138542519e-09 -2.978467916747718e-09 9.836956138542519e-09 -0.00011082380660809577" pbc="T T T"
Cd       1.63622625       1.15698651       2.83402700       0.00000027      -0.00000035      -0.00000077
Cd       4.90867894       3.47096021       8.50208135       0.00000018       0.00000069       0.00000055
Sr       0.00000008      -0.00000019       0.00000008      -0.00000382       0.00000438       0.00000046
O        1.91224802       1.35216352       5.66805391      -0.00215659      -0.00152484      -0.00000041
O        4.63265674       3.27578328       5.66805360       0.00215867       0.00152761      -0.00000099
O        3.95255477       1.35216346       4.49008254       0.00107846      -0.00152779      -0.00186898
O        2.59235030       3.27578327       6.84602582      -0.00107772       0.00152315       0.00186732
O        2.59235031       3.27578352       4.49008236      -0.00107874       0.00152367      -0.00186563
O        3.95255485       1.35216343       6.84602548       0.00107926      -0.00152647       0.00186846
