9
Lattice="5.934129604406838 -1.2514828586937882e-07 3.4260714846582148 1.9780431645616174 5.594750763908231 3.4260713442173176 1.1852678542757322e-07 -8.819318408335144e-08 6.852142764022255" Properties=species:S:1:pos:R:3:forces:R:3 energy=-31.721824645996094 free_energy=-31.721824645996094 stress="-0.00018273157184012234 -8.018272268373039e-09 -1.7321781342616305e-08 -8.018272268373039e-09 -0.00018271294538863003 1.4404143655610824e-08 -1.7321781342616305e-08 1.4404143655610824e-08 -0.00018269522115588188" pbc="T T T"
Cd       1.97804333       1.39868733       3.42607146      -0.00000005      -0.00000018       0.00000037
Cd       5.93412967       4.19606307      10.27821458      -0.00000010       0.00000080       0.00000084
Ti      -0.00000013      -0.00000025       0.00000010       0.00000251       0.00000125      -0.00000405
Se       2.01653262       1.42590347       6.85214294       0.00581167       0.00410810      -0.00000047
Se       5.89564018       4.16884699       6.85214280      -0.00581180      -0.00410965      -0.00000008
Se       4.92586358       1.42590365       5.17243971      -0.00290570       0.00410910       0.00503322
Se       2.98630970       4.16884684       8.53184550       0.00290340      -0.00410740      -0.00503079
Se       2.98630949       4.16884715       5.17243975       0.00290554      -0.00411023       0.00503347
Se       4.92586308       1.42590395       8.53184557      -0.00290551       0.00410820      -0.00503267
