9
Lattice="6.319533185279426 -1.0413085904425915e-07 3.6485844106101215 2.106510999126774 5.958113083594047 3.648584349048678 1.885623530676859e-07 5.793665243447752e-08 7.297168494620745" Properties=species:S:1:pos:R:3:forces:R:3 energy=-28.8011417388916 free_energy=-28.8011417388916 stress="-1.30385678858147e-05 -1.7731197843318114e-08 9.534125489096823e-09 -1.7731197843318114e-08 -1.3038320503255818e-05 -2.0011807766451284e-09 9.534125489096823e-09 -2.0011807766451284e-09 -1.3027088243688922e-05" pbc="T T T"
Cd       2.10651119       1.48952836       3.64858418       0.00000018       0.00000031      -0.00000018
Cd       6.31953319       4.46858498      10.94575357       0.00000052       0.00000031       0.00000034
Ti       0.00000029       0.00000056      -0.00000007      -0.00000294      -0.00000273      -0.00000035
Te       2.22602066       1.57403414       7.29716836       0.00012432       0.00008741      -0.00000047
Te       6.20002338       4.38407801       7.29716790      -0.00011925      -0.00008509      -0.00000010
Te       5.20652263       1.57403472       5.57637500      -0.00006086       0.00008373       0.00010530
Te       3.21952178       4.38407823       9.01796239       0.00006036      -0.00008548      -0.00010417
Te       3.21952188       4.38407850       5.57637532       0.00005841      -0.00008415       0.00010429
Te       5.20652252       1.57403463       9.01796236      -0.00006070       0.00008566      -0.00010465
