9
Lattice="5.5814700146597245 -1.9264837526273184e-07 3.2224633513218137 1.860489841646753 5.2622603427902375 3.2224633194679706 3.021123773280361e-09 -3.6876555951185925e-08 6.444926697410919" Properties=species:S:1:pos:R:3:forces:R:3 energy=-34.42589569091797 free_energy=-34.42589569091797 stress="-5.055414931121049e-07 -3.281289195911086e-08 -4.0862058625634745e-08 -3.281289195911086e-08 -4.7362297550535004e-07 3.309006046947616e-08 -4.0862058625634745e-08 3.309006046947616e-08 -4.5492959088733187e-07" pbc="T T T"
Cd       1.86049056       1.31556540       3.22246328       0.00000015      -0.00000007       0.00000026
Cd       5.58146996       3.94669458       9.66738893       0.00000024      -0.00000106      -0.00000140
Ti       0.00000015       0.00000006       0.00000017      -0.00000115       0.00000021       0.00000234
S        1.90262365       1.34535794       6.44492689       0.00012374       0.00008675       0.00000104
S        5.53933616       3.91690220       6.44492692      -0.00012419      -0.00008595      -0.00000021
S        4.63015763       1.34535811       4.87018438      -0.00005922       0.00008217       0.00010183
S        2.81180166       3.91690190       8.01966921       0.00005999      -0.00008488      -0.00010392
S        2.81180149       3.91690183       4.87018404       0.00005983      -0.00008577       0.00010577
S        4.63015826       1.34535842       8.01966955      -0.00005944       0.00008827      -0.00010535
