9
Lattice="4.655954461228408 -2.073295492735277e-07 2.6881166275791535 1.5519846079584458 4.389676382566395 2.688116656987551 -3.423954978050969e-07 -2.0609244582956783e-07 5.376233848204669" Properties=species:S:1:pos:R:3:forces:R:3 energy=-45.81779861450195 free_energy=-45.81779861450195 stress="-8.637291466584429e-05 2.0895127761377807e-07 1.2976293817246187e-08 2.0895127761377807e-07 -8.656385034555569e-05 4.893324856425352e-08 1.2976293817246187e-08 4.893324856425352e-08 -8.664065535413101e-05" pbc="T T T"
Cd       1.55198474       1.09741917       2.68811694       0.00000112       0.00000287       0.00000307
Cd       4.65595366       3.29225663       8.06434982      -0.00000295       0.00000020      -0.00000319
Ti      -0.00000065       0.00000158      -0.00000079       0.00000012      -0.00000798       0.00000860
O        1.55140936       1.09701199       5.37623375       0.00052536       0.00037190       0.00000535
O        4.65652944       3.29266343       5.37623408      -0.00051850      -0.00037223       0.00000238
O        3.88024882       1.09701120       4.03167620      -0.00026527       0.00037327       0.00046355
O        2.32768910       3.29266486       6.72079101       0.00026664      -0.00037929      -0.00046337
O        2.32769013       3.29266358       4.03167583       0.00026613      -0.00037274       0.00045460
O        3.88024993       1.09701150       6.72079140      -0.00027257       0.00038362      -0.00047046
