9
Lattice="4.631926213151231 4.316057235667146e-07 2.6742441333829707 1.5439755350472422 4.367024278113825 2.6742446118765146 -5.028994275803065e-07 2.3042889155285306e-07 5.348489137813096" Properties=species:S:1:pos:R:3:forces:R:3 energy=-44.085044860839844 free_energy=-44.085044860839844 stress="-3.182301588822156e-05 2.6527033014644985e-07 -9.785231469550126e-08 2.6527033014644985e-07 -3.195532553945668e-05 3.524591818404588e-08 -9.785231469550126e-08 3.524591818404588e-08 -3.217677658540197e-05" pbc="T T T"
Cd       1.54397545       1.09175620       2.67424428      -0.00000089      -0.00000127      -0.00000051
Cd       4.63192609       3.27526862       8.02273291       0.00000171      -0.00000091      -0.00000264
V        0.00000041      -0.00000008      -0.00000114       0.00000118      -0.00000592      -0.00000341
O        1.52574218       1.07886300       5.34848898       0.00012159       0.00008100       0.00000321
O        4.65015796       3.28816216       5.34848954      -0.00011289      -0.00007963       0.00000174
O        3.86905584       1.07886300       3.99557528      -0.00006378       0.00009388       0.00011301
O        2.30684599       3.28816217       6.70140165       0.00005955      -0.00009370      -0.00010252
O        2.30684583       3.28816189       3.99557679       0.00006276      -0.00008917       0.00010765
O        3.86905566       1.07886265       6.70140269      -0.00006956       0.00009507      -0.00011480
