9
Lattice="5.8787422817849375 7.666477250502709e-08 3.3940934518778447 1.9595808176429146 5.5425313648581005 3.39409347826087 2.622683088084933e-08 5.085759258924863e-08 6.788186858329482" Properties=species:S:1:pos:R:3:forces:R:3 energy=-31.940319061279297 free_energy=-31.940319061279297 stress="4.367097426438704e-05 2.1084751722355577e-08 2.1452080112283056e-09 2.1084751722355577e-08 4.36736736446619e-05 8.4858235993579e-09 2.1452080112283056e-09 8.4858235993579e-09 4.366954817669466e-05" pbc="T T T"
Cd       1.95958079       1.38563287       3.39409340      -0.00000004       0.00000018      -0.00000020
Cd       5.87874254       4.15689861      10.18228055      -0.00000034       0.00000027       0.00000042
V        0.00000005       0.00000016       0.00000002      -0.00000027      -0.00000006      -0.00000037
Se       1.96540972       1.38975458       6.78818686       0.00063939       0.00045149       0.00000055
Se       5.87291333       4.15277688       6.78818691      -0.00063898      -0.00045156       0.00000117
Se       4.89603748       1.38975467       5.09618806      -0.00031962       0.00045179       0.00055307
Se       2.94228542       4.15277689       8.48018561       0.00031980      -0.00045195      -0.00055394
Se       2.94228569       4.15277682       5.09618818       0.00031964      -0.00045192       0.00055374
Se       4.89603754       1.38975447       8.48018565      -0.00031967       0.00045174      -0.00055426
