9
Lattice="6.213376244720094 1.1526403148802875e-07 3.5872947487036413 2.071125405004572 5.858027609088984 3.5872949540798666 -2.8246941481160014e-07 5.179765160640172e-08 7.174589986658393" Properties=species:S:1:pos:R:3:forces:R:3 energy=-28.64276885986328 free_energy=-28.64276885986328 stress="-6.661887164227664e-05 4.5565769823951996e-08 -2.317771752302633e-08 4.5565769823951996e-08 -6.668341666227207e-05 4.0540015788792516e-08 -2.317771752302633e-08 4.0540015788792516e-08 -6.674325413769111e-05" pbc="T T T"
Cd       2.07112614       1.46450635       3.58729540       0.00000062      -0.00000008      -0.00000016
Cd       6.21337542       4.39352016      10.76188469      -0.00000033      -0.00000026       0.00000017
V        0.00000043       0.00000080      -0.00000052      -0.00000120      -0.00000227       0.00000254
Te       2.18627285       1.54592937       7.17459132      -0.00183568      -0.00129735       0.00000470
Te       6.09822683       4.31209918       7.17459114       0.00183938       0.00129980       0.00000205
Te       5.12023897       1.54592881       5.48066266       0.00091668      -0.00129718      -0.00158956
Te       3.16426196       4.31210050       8.86851545      -0.00091882       0.00129868       0.00158854
Te       3.16426245       4.31209846       5.48066207      -0.00091532       0.00129344      -0.00159088
Te       5.12024032       1.54592744       8.86851655       0.00091465      -0.00129478       0.00158266
