9
Lattice="5.578788565177403 -8.452003044379923e-08 3.2209151192084584 1.8595960887845542 5.259732669009535 3.2209151537137943 -1.4469601066079586e-07 -6.005526810152252e-08 6.441830489037685" Properties=species:S:1:pos:R:3:forces:R:3 energy=-34.94305419921875 free_energy=-34.94305419921875 stress="-2.417564974166453e-05 -8.427487152573576e-09 -9.159163205652021e-09 -8.427487152573576e-09 -2.4195122023229487e-05 2.171558222130443e-08 -9.159163205652021e-09 2.171558222130443e-08 -2.4146693249349482e-05" pbc="T T T"
Cd       1.85959654       1.31493323       3.22091501       0.00000095       0.00000038       0.00000026
Cd       5.57878835       3.94479989       9.66274524       0.00000017       0.00000021      -0.00000033
V        0.00000026      -0.00000019       0.00000041      -0.00000357       0.00000180      -0.00000664
S        1.83979121       1.30092873       6.44183053       0.00150889       0.00106695      -0.00000098
S        5.59859313       3.95880358       6.44183055      -0.00150800      -0.00106490      -0.00000027
S        4.65889249       1.30092882       4.81422138      -0.00075415       0.00106713       0.00130385
S        2.77949181       3.95880311       8.06943940       0.00075206      -0.00106418      -0.00130403
S        2.77949154       3.95880368       4.81422147       0.00075567      -0.00107008       0.00131023
S        4.65889254       1.30092914       8.06943892      -0.00075224       0.00106275      -0.00130206
