9
Lattice="6.7066484392099515 7.004144098848245e-08 3.872085144980649 2.23554956196133 6.3230886464050595 3.872085116940552 1.1154407152670487e-08 -2.6454611904254827e-08 7.744170270641324" Properties=species:S:1:pos:R:3:forces:R:3 energy=-27.559982299804688 free_energy=-27.559982299804688 stress="7.951115549076349e-06 -1.9450059340897496e-08 -9.50080125683428e-10 -1.9450059340897496e-08 7.981686394487042e-06 -3.7838767674713836e-09 -9.50080125683428e-10 -3.7838767674713836e-09 7.990193807927426e-06" pbc="T T T"
Cd       2.23554958       1.58077234       3.87208519       0.00000022      -0.00000020      -0.00000046
Cd       6.70664825       4.74231617      11.61625522      -0.00000054       0.00000003      -0.00000050
Y        0.00000016       0.00000014      -0.00000037       0.00000041       0.00000038       0.00000120
Te       2.50326080       1.77007293       7.74417034       0.00057776       0.00040904      -0.00000140
Te       6.43893715       4.55301593       7.74417020      -0.00057747      -0.00040888      -0.00000112
Te       5.45501789       1.77007261       6.03997236      -0.00028990       0.00040927       0.00050040
Te       3.48718038       4.55301556       9.44836826       0.00028861      -0.00040749      -0.00049912
Te       3.48718014       4.55301605       6.03997240       0.00028946      -0.00040918       0.00050022
Te       5.45501770       1.77007304       9.44836853      -0.00028853       0.00040701      -0.00049924
