9
Lattice="5.932981421207761 -2.7028948282941632e-08 3.4254085558184797 1.9776604585100728 5.593668480157654 3.425408538052318 1.1634451064777654e-07 6.050893765454439e-08 6.850816910122467" Properties=species:S:1:pos:R:3:forces:R:3 energy=-30.369312286376953 free_energy=-30.369312286376953 stress="-0.00021043360175099224 2.18460161072187e-09 -3.098459444572654e-08 2.18460161072187e-09 -0.00021035075769759715 3.384203139944475e-09 -3.098459444572654e-08 3.384203139944475e-09 -0.00021037262922618538" pbc="T T T"
Cd       1.97766045       1.39841700       3.42540843       0.00000125      -0.00000182      -0.00000112
Cd       5.93298139       4.19525136      10.27622506       0.00000072      -0.00000036      -0.00000327
Y       -0.00000010      -0.00000074      -0.00000063       0.00000234       0.00000784       0.00000882
S        2.15619105       1.52465728       6.85081668      -0.00521271      -0.00368547      -0.00000117
S        5.75445129       4.06901186       6.85081729       0.00520930       0.00368426       0.00000000
S        4.85488596       1.52465731       5.29272496       0.00260688      -0.00368800      -0.00451431
S        3.05575608       4.06901130       8.40890986      -0.00260404       0.00368144       0.00451116
S        3.05575574       4.06901117       5.29272493      -0.00260823       0.00368498      -0.00451247
S        4.85488613       1.52465755       8.40890943       0.00260449      -0.00368284       0.00451239
