9
Lattice="6.277194875498904 -1.6325870192569244e-07 3.624140167390573 2.0923981692357674 5.918196090235224 3.6241401131347293 4.996140648828645e-10 -6.609624098762579e-08 7.248280333915738" Properties=species:S:1:pos:R:3:forces:R:3 energy=-28.23921012878418 free_energy=-28.23921012878418 stress="-6.122630293248221e-05 -8.302860621256514e-09 1.5325332114457524e-08 -8.302860621256514e-09 -6.120507896412164e-05 -1.0154335150502902e-08 1.5325332114457524e-08 -1.0154335150502902e-08 -6.121044862084091e-05" pbc="T T T"
Cd       2.09239803       1.47954907       3.62413996      -0.00000036      -0.00000000      -0.00000034
Cd       6.27719478       4.43864672      10.87242129      -0.00000006      -0.00000072       0.00000107
Y       -0.00000014       0.00000029      -0.00000030       0.00000144      -0.00000082       0.00000008
Se       2.31061990       1.63385472       7.24828051      -0.00073299      -0.00051856       0.00000058
Se       6.05897342       4.28434067       7.24827991       0.00073378       0.00051853       0.00000006
Se       5.12188515       1.63385494       5.62519539       0.00036712      -0.00051889      -0.00063589
Se       3.24770774       4.28434117       8.87136494      -0.00036757       0.00051969       0.00063430
Se       3.24770836       4.28434075       5.62519568      -0.00036802       0.00052002      -0.00063743
Se       5.12188499       1.63385510       8.87136513       0.00036670      -0.00051916       0.00063755
