9
Lattice="4.816492283924902 2.5241405128902272e-08 2.7808031824099513 1.605497413046087 4.541032779438311 2.7808032494865698 -3.013784321841965e-08 6.084104853542449e-08 5.561606417020179" Properties=species:S:1:pos:R:3:forces:R:3 energy=-41.43584442138672 free_energy=-41.43584442138672 stress="0.00022207960137166083 -6.934086371757076e-08 -1.7901385263030534e-08 -6.934086371757076e-08 0.00022203970002010465 -4.231986494573903e-08 -1.7901385263030534e-08 -4.231986494573903e-08 0.00022211602481547743" pbc="T T T"
Cd       1.60549735       1.13525845       2.78080319      -0.00000034       0.00000054       0.00000001
Cd       4.81649226       3.40577473       8.34240973      -0.00000033      -0.00000007       0.00000065
Y       -0.00000027      -0.00000019      -0.00000008       0.00000288       0.00000091       0.00000244
O        1.80335845       1.27516713       5.56160643      -0.00262034      -0.00185367      -0.00000079
O        4.61863125       3.26586582       5.56160641       0.00261834       0.00185138      -0.00000090
O        3.91481317       1.27516725       4.34255769       0.00131112      -0.00185403      -0.00226998
O        2.50717673       3.26586564       6.78065507      -0.00131138       0.00185448       0.00227058
O        2.50717682       3.26586544       4.34255778      -0.00131005       0.00185406      -0.00227156
O        3.91481288       1.27516719       6.78065523       0.00131027      -0.00185341       0.00226986
