9
Lattice="6.282824033033613 -3.630287670534111e-07 3.627390769292974 2.0942744152845947 5.923503098807977 3.6273906309479527 9.213564117893126e-08 -1.0428762423301956e-07 7.254781379002294" Properties=species:S:1:pos:R:3:forces:R:3 energy=-20.1079158782959 free_energy=-20.1079158782959 stress="-0.00010533248132560402 5.307095207740531e-09 3.816620353092048e-09 5.307095207740531e-09 -0.00010534253669902682 1.3566057166514156e-09 3.816620353092048e-09 1.3566057166514156e-09 -0.00010530739382375032" pbc="T T T"
Cd       2.09427413       1.48087512       3.62739081      -0.00000049      -0.00000056      -0.00000025
Cd       6.28282393       4.44262738      10.88217167       0.00000009       0.00000072      -0.00000074
Zn       0.00000060       0.00000008      -0.00000044      -0.00000164      -0.00000031       0.00000199
Te       2.26284227       1.60006963       7.25478212       0.00511946       0.00361753       0.00000071
Te       6.11425544       4.32343259       7.25478193      -0.00511730      -0.00361608       0.00000042
Te       5.15140379       1.60007037       5.58707062      -0.00255819       0.00361801       0.00443029
Te       3.22569506       4.32343214       8.92249182       0.00255706      -0.00361857      -0.00443165
Te       3.22569526       4.32343238       5.58707088       0.00255753      -0.00361837       0.00443082
Te       5.15140372       1.60007088       8.92249172      -0.00255653       0.00361763      -0.00443164
