9
Lattice="5.546793323091333 -1.4870708664565558e-07 3.2024425754592203 1.8489310741950302 5.229565904002488 3.202442390648791 8.551424681639761e-09 -2.202988205316633e-07 6.4048851361069055" Properties=species:S:1:pos:R:3:forces:R:3 energy=-23.395397186279297 free_energy=-23.395397186279297 stress="-0.0002128586347680539 -3.078058363747971e-10 3.429388772957509e-09 -3.078058363747971e-10 -0.00021279910288285464 2.384535013888467e-09 3.429388772957509e-09 2.384535013888467e-09 -0.00021287999697960913" pbc="T T T"
Cd       1.84893069       1.30739116       3.20244241      -0.00000058       0.00000009      -0.00000008
Cd       5.54679354       3.92217431       9.60732737      -0.00000043      -0.00000008      -0.00000081
Zn      -0.00000003       0.00000004      -0.00000061      -0.00000080       0.00000072       0.00000299
S        1.92878739       1.36385853       6.40488559       0.00631157       0.00446510       0.00000119
S        5.46693687       3.86570695       6.40488569      -0.00631148      -0.00446375       0.00000058
S        4.58239931       1.36385839       4.87282144      -0.00315470       0.00446346       0.00546488
S        2.81332489       3.86570751       7.93694884       0.00315619      -0.00446515      -0.00546837
S        2.81332514       3.86570722       4.87282085       0.00315566      -0.00446299       0.00546563
S        4.58239979       1.36385797       7.93694881      -0.00315538       0.00446248      -0.00546613
