9
Lattice="5.857228959578814 8.953943634978912e-08 3.3816727880297845 1.9524097297902527 5.522248498003165 3.38167280157651 -1.1313289271296528e-08 8.591620349238707e-09 6.763345595654705" Properties=species:S:1:pos:R:3:forces:R:3 energy=-21.913639068603516 free_energy=-21.913639068603516 stress="-0.0003347490855958313 -4.8363666849127185e-08 5.679560821647556e-09 -4.8363666849127185e-08 -0.0003347587480675429 2.41857200933282e-09 5.679560821647556e-09 2.41857200933282e-09 -0.00033481387072242796" pbc="T T T"
Cd       1.95240960       1.38056238       3.38167293      -0.00000244      -0.00000191      -0.00000086
Cd       5.85722916       4.14168647      10.14501810      -0.00000135      -0.00000057       0.00000044
Zn       0.00000021       0.00000016      -0.00000011       0.00000064      -0.00000108      -0.00000121
Se       2.04599035       1.44673430       6.76334564       0.00521187       0.00368620      -0.00000021
Se       5.76364781       4.07551427       6.76334580      -0.00520926      -0.00368464       0.00000017
Se       4.83423319       1.44673408       5.15355266      -0.00260613       0.00368500       0.00451302
Se       2.97540556       4.07551446       8.37313828       0.00260623      -0.00368299      -0.00451125
Se       2.97540533       4.07551436       5.15355308       0.00260589      -0.00368381       0.00451222
Se       4.83423348       1.44673391       8.37313837      -0.00260545       0.00368382      -0.00451237
