9
Lattice="5.2865957261430205 9.785313199433127e-07 3.0522169970371773 1.7621998346465264 4.984246947879644 3.0522164138603944 1.8942849711702954e-06 6.252188677303625e-07 6.104430713076554" Properties=species:S:1:pos:R:3:forces:R:3 energy=-34.28485870361328 free_energy=-34.28485870361328 stress="-2.6752607027447084e-06 2.212011018798421e-09 -6.245853967357107e-08 2.212011018798421e-09 -2.652770945132943e-06 4.382198071084531e-08 -6.245853967357107e-08 4.382198071084531e-08 -2.7620690161711536e-06" pbc="T T T"
Cl       1.76219912       1.24605989       3.05221481       0.00000629       0.00000532       0.00000020
Cl       5.28659806       3.73818568       9.15664869       0.00000074       0.00000742       0.00000309
C       -0.00000266      -0.00000696      -0.00000343       0.00004066       0.00008864       0.00003771
O        1.19940872       0.84811319       6.10443220       0.00033724       0.00021726      -0.00001223
O        5.84938519       4.13613567       6.10443377      -0.00028825      -0.00022495      -0.00001343
O        4.68689417       0.84811005       4.09093643      -0.00019312       0.00021273       0.00028396
O        2.36191082       4.13613956       8.11792558       0.00012785      -0.00023872      -0.00027084
O        2.36190843       4.13613830       4.09093505       0.00014740      -0.00026184       0.00026596
O        4.68689385       0.84811570       8.11793160      -0.00017929       0.00019425      -0.00029445
