9
Lattice="5.046912921577147 1.6941449500786547e-07 2.913836692773845 1.6823043980116512 4.758275244160937 2.913836812122982 1.1234168264416166e-07 2.2560980070422243e-07 5.827673190966211" Properties=species:S:1:pos:R:3:forces:R:3 energy=-35.9542350769043 free_energy=-35.9542350769043 stress="-0.00016996498743537813 5.561779037321912e-09 -1.3603108861559576e-08 5.561779037321912e-09 -0.0001699933927739039 3.018081429218e-08 -1.3603108861559576e-08 3.018081429218e-08 -0.000170011495356448" pbc="T T T"
Cl       1.68230450       1.18956859       2.91383686       0.00000003      -0.00000105       0.00000085
Cl       5.04691289       3.56870710       8.74151013      -0.00000099       0.00000135       0.00000114
Cr      -0.00000028       0.00000025       0.00000067      -0.00000237       0.00000091       0.00000212
O        1.49846320       1.05957322       5.82767290       0.00289047       0.00204363      -0.00000043
O        5.23075458       3.69870214       5.82767323      -0.00288910      -0.00204307      -0.00000019
O        4.29768147       1.05957338       4.21154385      -0.00144383       0.00204170       0.00250119
O        2.43153583       3.69870202       7.44380304       0.00144485      -0.00204399      -0.00250292
O        2.43153590       3.69870214       4.21154378       0.00144622      -0.00204456       0.00250393
O        4.29768173       1.05957370       7.44380317      -0.00144577       0.00204539      -0.00250500
