9
Lattice="5.006402472186358 4.009548123778116e-07 2.8904474532624658 1.6688012113968882 4.720081679321164 2.890447437135332 -1.0324559143846964e-07 -9.275724523846332e-08 5.780895085351516" Properties=species:S:1:pos:R:3:forces:R:3 energy=-31.233346939086914 free_energy=-31.233346939086914 stress="-4.394815186969936e-05 8.582351496144724e-10 9.496817199305951e-08 8.582351496144724e-10 -4.410901965457015e-05 1.1343622929871344e-08 9.496817199305951e-08 1.1343622929871344e-08 -4.408873792272061e-05" pbc="T T T"
Cl       1.66880114       1.18002075       2.89044655       0.00000059       0.00000127      -0.00000116
Cl       5.00640268       3.54005981       8.67134384      -0.00000020      -0.00000266       0.00000072
Co       0.00000024      -0.00000036      -0.00000078      -0.00000531      -0.00000233       0.00001804
O        1.48439888       1.04963039       5.78089539       0.00189668       0.00134301       0.00000241
O        5.19080345       3.67045249       5.78089403      -0.00189197      -0.00133836       0.00000038
O        4.26420326       1.04963055       4.17597397      -0.00094637       0.00134084       0.00164035
O        2.41100027       3.67045281       7.38581590       0.00095388      -0.00135064      -0.00165191
O        2.41100117       3.67045245       4.17597463       0.00094646      -0.00133917       0.00164047
O        4.26420309       1.04962953       7.38581607      -0.00095391       0.00134829      -0.00164911
