9
Lattice="4.8882153575217675 -3.221391928118395e-08 2.822212370592217 1.6294050966973408 4.608653545924962 2.8222123569177753 -9.36646521818432e-09 -2.3370855019469083e-08 5.644424757407634" Properties=species:S:1:pos:R:3:forces:R:3 energy=-31.329381942749023 free_energy=-31.329381942749023 stress="4.428619376994902e-06 -5.0268599949276904e-08 -2.180213343194737e-09 -5.0268599949276904e-08 4.4176881601742934e-06 -2.290224676571029e-09 -2.180213343194737e-09 -2.290224676571029e-09 4.34214325650828e-06" pbc="T T T"
Cl       1.62940504       1.15216272       2.82221201       0.00000068      -0.00000085      -0.00000014
Cl       4.88821556       3.45648992       8.46663619       0.00000008      -0.00000024      -0.00000083
Fe       0.00000021      -0.00000016      -0.00000063      -0.00000015       0.00000004       0.00000213
O        1.55790967       1.10160845       5.64442510      -0.00109693      -0.00077593      -0.00000061
O        4.95971004       3.50704517       5.64442490       0.00109643       0.00077567       0.00000013
O        4.10926064       1.10160806       4.17140216       0.00054926      -0.00077662      -0.00095090
O        2.40836037       3.50704527       7.11744763      -0.00054924       0.00077656       0.00095049
O        2.40835978       3.50704526       4.17140243      -0.00054933       0.00077710      -0.00095072
O        4.10926027       1.10160938       7.11744809       0.00054935      -0.00077561       0.00095040
