9
Lattice="5.06669127370185 -1.3306652551312126e-07 2.9252557060283473 1.6888970171867552 4.776921827030818 2.9252556169851216 -3.79573894003642e-10 -1.0932363733821749e-07 5.850511412714161" Properties=species:S:1:pos:R:3:forces:R:3 energy=-30.789215087890625 free_energy=-30.789215087890625 stress="0.0001850935659604147 8.327566192178892e-09 -4.417025323277812e-08 8.327566192178892e-09 0.00018506799824535847 -4.160338740177849e-09 -4.417025323277812e-08 -4.160338740177849e-09 0.00018507039931137115" pbc="T T T"
Cl       1.68889689       1.19423032       2.92525593      -0.00000053       0.00000019       0.00000002
Cl       5.06669069       3.58269131       8.77576666       0.00000032       0.00000006      -0.00000045
Ge      -0.00000011       0.00000004       0.00000018      -0.00000009      -0.00000145      -0.00000007
O        1.57758081       1.11551756       5.85051146       0.00144160       0.00101990      -0.00000029
O        5.17800777       3.66140389       5.85051134      -0.00144053      -0.00101978       0.00000079
O        4.27790125       1.11551771       4.29148102      -0.00072092       0.00101924       0.00124985
O        2.47768727       3.66140392       7.40954202       0.00072074      -0.00101912      -0.00124818
O        2.47768723       3.66140411       4.29148089       0.00072020      -0.00102061       0.00124967
O        4.27790151       1.11551753       7.40954192      -0.00072110       0.00102097      -0.00125033
