9
Lattice="4.857261882186492 1.078894666898412e-10 2.8043414508694893 1.6190873204393506 4.579470297830282 2.8043414053590165 2.4721114296792185e-08 -3.8258221165852385e-08 5.608682858920712" Properties=species:S:1:pos:R:3:forces:R:3 energy=-42.04640197753906 free_energy=-42.04640197753906 stress="9.80433396762237e-05 2.442352764475686e-09 2.4414354982127406e-09 2.442352764475686e-09 9.806182060856372e-05 -2.015164257684887e-09 2.4414354982127406e-09 -2.015164257684887e-09 9.807233436731622e-05" pbc="T T T"
Cl       1.61908739       1.14486754       2.80434162       0.00000048       0.00000078      -0.00000020
Cl       4.85726188       3.43460263       8.41302412       0.00000024      -0.00000010       0.00000079
Hf       0.00000036       0.00000038       0.00000036       0.00000073       0.00000087       0.00000131
O        1.76487902       1.24795767       5.60868271      -0.00312728      -0.00221086      -0.00000037
O        4.71147001       3.33151201       5.60868319       0.00312537       0.00220963      -0.00000034
O        3.97482243       1.24795787       4.33277120       0.00156322      -0.00220972      -0.00270772
O        2.50152698       3.33151272       6.88459423      -0.00156239       0.00220934       0.00270671
O        2.50152622       3.33151239       4.33277119      -0.00156280       0.00220993      -0.00270727
O        3.97482264       1.24795781       6.88459426       0.00156260      -0.00220978       0.00270706
