9
Lattice="4.9558339360197285 6.467333552758915e-08 2.861251900293156 1.651944659523279 4.672405009242832 2.86125198133791 -2.6492392061331273e-08 8.052625407326597e-08 5.72250384647247" Properties=species:S:1:pos:R:3:forces:R:3 energy=-37.20671081542969 free_energy=-37.20671081542969 stress="0.00033587933285161853 -8.620365754552495e-09 3.7130509777938414e-09 -8.620365754552495e-09 0.00033571943640708923 -9.318649851763894e-09 3.7130509777938414e-09 -9.318649851763894e-09 0.0003357876848895103" pbc="T T T"
Cl       1.65194469       1.16810122       2.86125211       0.00000039       0.00000017       0.00000057
Cl       4.95583407       3.50430365       8.58375581      -0.00000027      -0.00000028      -0.00000001
Ir       0.00000014       0.00000003       0.00000025      -0.00000061       0.00000236      -0.00000587
O        1.52887172       1.08107565       5.72250374      -0.00489795      -0.00346357      -0.00000004
O        5.07890690       3.59132943       5.72250382       0.00489694       0.00346327      -0.00000012
O        4.19139771       1.08107566       4.18529357       0.00244895      -0.00346428      -0.00424123
O        2.41638060       3.59132950       7.25971392      -0.00244853       0.00346339       0.00424194
O        2.41638066       3.59132957       4.18529381      -0.00244763       0.00346226      -0.00423813
O        4.19139792       1.08107585       7.25971399       0.00244886      -0.00346351       0.00424296
