9
Lattice="5.068945545354056 7.788285331558086e-08 2.9265568855234823 1.6896485353602004 4.779047923493009 2.9265569776451033 -1.013679195751994e-07 4.114750549657602e-08 5.853113946621351" Properties=species:S:1:pos:R:3:forces:R:3 energy=-37.32654571533203 free_energy=-37.32654571533203 stress="-9.616209717933089e-05 1.760106371762049e-08 -3.8709991656560305e-08 1.760106371762049e-08 -9.622122161090374e-05 2.0041872161868923e-08 -3.8709991656560305e-08 2.0041872161868923e-08 -9.618915646569803e-05" pbc="T T T"
Cl       1.68964825       1.19476268       2.92655688      -0.00000076       0.00000114      -0.00000054
Cl       5.06894488       3.58428543       8.77967050       0.00000000       0.00000185      -0.00000110
Mo      -0.00000055       0.00000121      -0.00000039      -0.00000199       0.00000254      -0.00000306
O        1.59095681       1.12497677       5.85311397       0.00191700       0.00135070       0.00000163
O        5.16763696       3.65407058       5.85311391      -0.00191230      -0.00135416       0.00000085
O        4.27346742       1.12497675       4.30436575      -0.00095883       0.00135314       0.00166309
O        2.48512713       3.65407128       7.40186130       0.00095770      -0.00135493      -0.00165588
O        2.48512685       3.65407111       4.30436636       0.00096017      -0.00135630       0.00165975
O        4.27346773       1.12497652       7.40186286      -0.00096068       0.00135601      -0.00166506
