9
Lattice="4.7690659653383545 1.5694675409988286e-07 2.753421377088225 1.5896887948994656 4.49631791143947 2.753421391263558 -8.157374325287268e-08 -4.0320201504136965e-08 5.50684289546633" Properties=species:S:1:pos:R:3:forces:R:3 energy=-35.63453674316406 free_energy=-35.63453674316406 stress="6.867718184366822e-05 -6.131151697452708e-10 2.1069411104690516e-07 -6.131151697452708e-10 6.841563299531117e-05 -1.2819057815249835e-07 2.1069411104690516e-07 -1.2819057815249835e-07 6.822275463491678e-05" pbc="T T T"
Cl       1.58968893       1.12407993       2.75342060       0.00000042       0.00000676      -0.00000422
Cl       4.76906548       3.37223675       8.26026463      -0.00000806      -0.00001519       0.00000831
Mn       0.00000072       0.00000002      -0.00000071      -0.00004765       0.00003938       0.00009710
O        1.56481741       1.10649337       5.50684282      -0.00454593      -0.00320107       0.00002360
O        4.79393741       3.38982494       5.50684245       0.00455481       0.00323725       0.00001994
O        3.98665659       1.10649402       4.10859331       0.00232056      -0.00327981      -0.00400323
O        2.37209682       3.38982578       6.90509328      -0.00222725       0.00314879       0.00386971
O        2.37209807       3.38982464       4.10859311      -0.00229740       0.00325042      -0.00394738
O        3.98665741       1.10649297       6.90509284       0.00225073      -0.00318795       0.00393683
