9
Lattice="5.007040076994987 -8.789190078111144e-08 2.890815872207892 1.6690133110713588 4.7206823668798386 2.8908158116929896 2.5721316477031946e-08 -5.5927616403461837e-08 5.781631699865162" Properties=species:S:1:pos:R:3:forces:R:3 energy=-41.41159439086914 free_energy=-41.41159439086914 stress="-0.0004290864453651011 1.7413796626897238e-08 1.7089899273514675e-08 1.7413796626897238e-08 -0.0004290607466828078 -4.926589358689171e-09 1.7089899273514675e-08 -4.926589358689171e-09 -0.0004289560893084854" pbc="T T T"
Cl       1.66901324       1.18016994       2.89081596       0.00000021      -0.00000043      -0.00000003
Cl       5.00704006       3.54051191       8.67244724      -0.00000018      -0.00000059       0.00000088
Nb       0.00000072      -0.00000183       0.00000083       0.00000348      -0.00000243       0.00000012
O        1.65505544       1.17030091       5.78163162       0.00507027       0.00358772      -0.00000075
O        5.02099813       3.55038217       5.78163177      -0.00507462      -0.00358683      -0.00000005
O        4.17951229       1.17030097       4.32413509      -0.00253674       0.00358951       0.00439334
O        2.49654080       3.55038174       7.23912783       0.00253615      -0.00358713      -0.00439548
O        2.49654088       3.55038221       4.32413542       0.00253677      -0.00358665       0.00439477
O        4.17951198       1.17030088       7.23912742      -0.00253570       0.00358677      -0.00439304
