9
Lattice="4.962716701419437 2.9394247918794003e-08 2.8652262508640365 1.6542388634876282 4.67889466861324 2.8652263629253967 -3.223011007089172e-08 1.1445650072327041e-07 5.730452557552106" Properties=species:S:1:pos:R:3:forces:R:3 energy=-26.265974044799805 free_energy=-26.265974044799805 stress="2.889786810555961e-05 -2.285586120365224e-08 -1.0972621922178405e-08 -2.285586120365224e-08 2.9116075893398374e-05 1.2319985032149816e-08 -1.0972621922178405e-08 1.2319985032149816e-08 2.9029333745711483e-05" pbc="T T T"
Cl       1.65423871       1.16972204       2.86522742      -0.00000042      -0.00000429       0.00000156
Cl       4.96271621       3.50917182       8.59567936      -0.00000196       0.00000331      -0.00000005
Ni      -0.00000030       0.00000012       0.00000010       0.00000184      -0.00000110       0.00000445
O        1.49482426       1.05699860       5.73045288      -0.00237368      -0.00168257      -0.00000078
O        5.12213156       3.62189513       5.73045311       0.00237304       0.00168185       0.00000084
O        4.21530347       1.05700028       4.15978203       0.00118781      -0.00168422      -0.00206044
O        2.40165182       3.62189650       7.30112185      -0.00118689       0.00168545       0.00205744
O        2.40165186       3.62189480       4.15978183      -0.00118796       0.00168447      -0.00206062
O        4.21530442       1.05699996       7.30112209       0.00118827      -0.00168284       0.00205754
