9
Lattice="4.895963503740456 7.311318910187098e-09 2.8266858259720635 1.6319878909529142 4.615958411214787 2.8266857402709236 6.801586275745436e-08 -5.686755514511595e-08 5.653371534137192" Properties=species:S:1:pos:R:3:forces:R:3 energy=-42.72244644165039 free_energy=-42.72244644165039 stress="2.891977783292532e-05 2.5246610135809533e-08 -1.6548632686408382e-08 2.5246610135809533e-08 2.896916339523159e-05 -9.477383144940177e-08 -1.6548632686408382e-08 -9.477383144940177e-08 2.9157083190511912e-05" pbc="T T T"
Cl       1.63198784       1.15398968       2.82668575       0.00000068      -0.00000053      -0.00000078
Cl       4.89596363       3.46196884       8.48005753      -0.00000022      -0.00000026      -0.00000221
Os       0.00000017      -0.00000002      -0.00000041       0.00000024       0.00000192       0.00002717
O        1.50657129       1.06530657       5.65337140       0.00198317       0.00140327       0.00000180
O        5.02138022       3.55065187       5.65337133      -0.00198406      -0.00140405       0.00000176
O        4.14267797       1.06530660       4.13141504      -0.00098768       0.00139797       0.00171077
O        2.38527353       3.55065187       7.17532841       0.00099844      -0.00141406      -0.00172681
O        2.38527343       3.55065163       4.13141487       0.00098723      -0.00139594       0.00171214
O        4.14267776       1.06530639       7.17532833      -0.00099742       0.00141042      -0.00172442
