9
Lattice="4.883661763588529 -2.592002448237304e-07 2.8195834585498667 1.6278873018145348 4.604359610481724 2.819582953377643 5.088800077460184e-07 -2.588746408968527e-07 5.639166035693663" Properties=species:S:1:pos:R:3:forces:R:3 energy=-31.465707778930664 free_energy=-31.465707778930664 stress="0.00045262876665219665 -7.429429160765721e-08 4.63207214806971e-08 -7.429429160765721e-08 0.0004526881093624979 -1.285252864136055e-07 4.63207214806971e-08 -1.285252864136055e-07 0.0004527416022028774" pbc="T T T"
Cl       1.62788779       1.15108954       2.81958316      -0.00000136      -0.00000230       0.00000190
Cl       4.88366170       3.45327015       8.45874859      -0.00000104       0.00000416      -0.00000336
Pt       0.00000033       0.00000036       0.00000008      -0.00001349      -0.00000715      -0.00000665
O        1.55782365       1.10154697       5.63916602      -0.00501582      -0.00354528       0.00000014
O        4.95372481       3.50281117       5.63916793       0.00503290       0.00355896      -0.00000050
O        4.10474897       1.10154649       4.16869896       0.00250943      -0.00355327      -0.00435176
O        2.40680112       3.50281194       7.10963380      -0.00251473       0.00355422       0.00435480
O        2.40679972       3.50281239       4.16869868      -0.00251274       0.00355431      -0.00435463
O        4.10475041       1.10154734       7.10963270       0.00251657      -0.00356421       0.00435984
