9
Lattice="5.051801351203354 1.5568914186816168e-07 2.9166589369809253 1.683933851025627 4.762884183157028 2.916659074668518 -2.2347707308067076e-08 1.5282997363221894e-07 5.8333179126691" Properties=species:S:1:pos:R:3:forces:R:3 energy=-36.421634674072266 free_energy=-36.421634674072266 stress="-1.9610712115536444e-05 -1.5612158676958643e-08 -2.990686098769402e-08 -1.5612158676958643e-08 -1.9614708435256034e-05 -3.3612803207461184e-08 -2.990686098769402e-08 -3.3612803207461184e-08 -1.959204200829845e-05" pbc="T T T"
Cl       1.68393378       1.19072097       2.91665910       0.00000181       0.00000007      -0.00000068
Cl       5.05180138       3.57216312       8.74997713       0.00000150       0.00000003      -0.00000099
P       -0.00000218       0.00000194       0.00000074      -0.00001689       0.00001068       0.00000683
O        1.36098158       0.96235897       5.83331771      -0.00062203      -0.00044894      -0.00000229
O        5.37475419       3.80052467       5.83331791       0.00063133       0.00043786      -0.00000231
O        4.37131154       0.96235891       4.09530318       0.00031209      -0.00044060      -0.00053549
O        2.36442459       3.80052540       7.57133288      -0.00031149       0.00044334       0.00054717
O        2.36442436       3.80052528       4.09530282      -0.00030994       0.00044048      -0.00054836
O        4.37131139       0.96235871       7.57133287       0.00031459      -0.00044322       0.00053549
