9
Lattice="1.769506132814956 -0.7245989838600483 1.1662778328527799 1.0795814761207492 2.272315364004006 0.43003669155422747 -0.09607589180852892 1.0003564201678334 3.21094878544153" Properties=species:S:1:pos:R:3:forces:R:3 energy=-89092849664.0 free_energy=-89092849664.0 stress="0.0 3673682944.0 2559461632.0 3673682944.0 0.0 -1225446912.0 2559461632.0 -1225446912.0 0.0" pbc="T T T"
Cl       0.40649633      -0.77810935       2.51135050 23699302400.00000000 -25718358016.00000000 -10979085312.00000000
Cl       1.70384446       0.31329743       5.02703742 54726336512.00000000 82738061312.00000000 -19285301248.00000000
Pd       0.67879720      -1.80643469       1.98144021 21806454784.00000000 81782923264.00000000 -20585506816.00000000
O        0.54842659       0.62154034       1.64080203 -19721695232.00000000 -5424982528.00000000 -5688211968.00000000
O        2.03191152       0.68977794       2.61641164 -115548782592.00000000 -49127075840.00000000 -77175857152.00000000
O        1.27040279       0.47209964       2.33757648 142053507072.00000000 49756110848.00000000 2065799168.00000000
O        2.14857600       0.63495311       4.67481193 -46626447360.00000000 -49139572736.00000000 49765289984.00000000
O        0.63163796       2.60758657       2.11050213 -1152000000.00000000 -9577314304.00000000 -3785748736.00000000
O        0.50522528      -0.62659579       5.08668830 -59236646912.00000000 -75289731072.00000000 85668732928.00000000
