9
Lattice="5.103182268954583 -2.960309383366492e-08 2.9463239430396353 1.7010608116885768 4.811326526040635 2.946323798793806 2.1211550503666787e-07 -2.667610063420524e-08 5.892647518684479" Properties=species:S:1:pos:R:3:forces:R:3 energy=-27.15211296081543 free_energy=-27.15211296081543 stress="0.0005089910700917244 -3.474903209621516e-08 -1.0276383299867575e-08 -3.474903209621516e-08 0.0005089242476969957 -2.6895211391320117e-08 -1.0276383299867575e-08 -2.6895211391320117e-08 0.0005089243641123176" pbc="T T T"
Cl       1.70106130       1.20283167       2.94632411      -0.00000066      -0.00000027       0.00000072
Cl       5.10318242       3.60849488       8.83897165      -0.00000073       0.00000055      -0.00000027
Pb      -0.00000097       0.00000025       0.00000008       0.00000813       0.00000037      -0.00000274
O        1.72357184       1.21874885       5.89264769       0.00557663       0.00394109       0.00000029
O        5.08067227       3.59257811       5.89264868      -0.00558226      -0.00394808       0.00000123
O        4.24139609       1.21874890       4.43897958      -0.00279118       0.00394577       0.00483271
O        2.56284645       3.59257744       7.34631408       0.00278831      -0.00394107      -0.00482851
O        2.56284660       3.59257692       4.43898022       0.00278999      -0.00394394       0.00482871
O        4.24139704       1.21874876       7.34631499      -0.00278825       0.00394537      -0.00483231
