9
Lattice="5.16909321707739 1.8334884749879728e-07 2.984377290404461 1.7230311229872852 4.8734684286176755 2.984377502121306 -4.6576308388075224e-08 2.2636472696316676e-07 5.968754661481419" Properties=species:S:1:pos:R:3:forces:R:3 energy=-38.51580047607422 free_energy=-38.51580047607422 stress="-0.0004803651536349207 -3.408855064890304e-08 3.221650857199165e-08 -3.408855064890304e-08 -0.00048031710321083665 -4.833356825884039e-08 3.221650857199165e-08 -4.833356825884039e-08 -0.0004803252231795341" pbc="T T T"
Cl       1.72303118       1.21836780       2.98437752       0.00000028       0.00000066       0.00000079
Cl       5.16909379       3.65510071       8.95313173       0.00000083      -0.00000107      -0.00000081
Ru       0.00000008       0.00000028       0.00000030       0.00001295      -0.00000095      -0.00003610
O        1.46293856       1.03445420       5.96875412       0.00498396       0.00352252      -0.00000199
O        5.42918634       3.83901484       5.96875457      -0.00499123      -0.00353003      -0.00000145
O        4.43762427       1.03445384       4.25131889      -0.00250018       0.00353754       0.00433165
O        2.45450025       3.83901477       7.68619040       0.00248748      -0.00351512      -0.00430840
O        2.45449949       3.83901476       4.25131958       0.00249538      -0.00353062       0.00432438
O        4.43762322       1.03445422       7.68619088      -0.00248918       0.00351685      -0.00430834
