9
Lattice="5.0736711278981135 -2.490395602392791e-08 2.929285314220088 1.6912237553249172 4.783502422678466 2.929285193833488 2.6086292207359664e-08 -1.2899705035851868e-07 5.858570583257358" Properties=species:S:1:pos:R:3:forces:R:3 energy=-44.70269012451172 free_energy=-44.70269012451172 stress="7.199622359621571e-06 4.030503486518455e-09 -1.785442549362415e-08 4.030503486518455e-09 7.27861197447055e-06 1.4312859342169304e-08 -1.785442549362415e-08 1.4312859342169304e-08 7.2299062594538555e-06" pbc="T T T"
Cl       1.69122358       1.19587556       2.92928543      -0.00000090       0.00000003       0.00000128
Cl       5.07367095       3.58762667       8.78785568      -0.00000033      -0.00000012       0.00000079
Re      -0.00000053       0.00000003       0.00000032      -0.00000468      -0.00000185       0.00000765
O        1.56426836       1.10610443       5.85857061      -0.00044441      -0.00031614      -0.00000094
O        5.20062694       3.67739772       5.85857053       0.00044894       0.00031686      -0.00000153
O        4.29153718       1.10610467       4.28398100       0.00022513      -0.00031817      -0.00038970
O        2.47335810       3.67739753       7.43315970      -0.00022376       0.00031722       0.00038731
O        2.47335753       3.67739764       4.28398105      -0.00022298       0.00031722      -0.00038731
O        4.29153709       1.10610467       7.43315974       0.00022370      -0.00031519       0.00038397
