9
Lattice="5.137774001503101 1.6424404978525838e-07 2.9662953973982904 1.7125915277132915 4.843939583528962 2.966295329799563 2.073205090823517e-07 6.380656902979002e-08 5.932590435706967" Properties=species:S:1:pos:R:3:forces:R:3 energy=-29.366018295288086 free_energy=-29.366018295288086 stress="-0.00015714486653450876 -7.961609327367114e-08 -1.1194115501211854e-07 -7.961609327367114e-08 -0.0001571470929775387 2.030314938394895e-08 -1.1194115501211854e-07 2.030314938394895e-08 -0.00015727008576504886" pbc="T T T"
Cl       1.71259122       1.21098506       2.96629540      -0.00000047       0.00000017       0.00000084
Cl       5.13777458       3.63295512       8.89888624      -0.00000014      -0.00000012       0.00000068
Sn      -0.00000003      -0.00000013       0.00000019      -0.00000135       0.00000257      -0.00000026
O        1.71078116       1.20970465       5.93259011       0.00241929       0.00171068      -0.00000081
O        5.13958461       3.63423488       5.93259051      -0.00241923      -0.00171101      -0.00000076
O        4.28238349       1.20970476       4.44787502      -0.00120929       0.00171024       0.00209430
O        2.56798215       3.63423474       7.41730612       0.00120980      -0.00171113      -0.00209549
O        2.56798177       3.63423481       4.44787514       0.00121060      -0.00171229       0.00209704
O        4.28238411       1.20970506       7.41730618      -0.00120959       0.00171125      -0.00209567
