9
Lattice="5.130409632782318 -1.3994838642907926e-07 2.9620436445967857 1.7101363424302685 4.836997143916631 2.9620437656428273 1.7435211088619025e-07 2.7153598856078696e-07 5.924086987206885" Properties=species:S:1:pos:R:3:forces:R:3 energy=-36.308616638183594 free_energy=-36.308616638183594 stress="5.418290811576298e-07 3.808811399608203e-08 -1.0307186215641195e-07 3.808811399608203e-08 3.8688398262820556e-07 -9.716526960801275e-08 -1.0307186215641195e-07 -9.716526960801275e-08 4.4391359210749215e-07" pbc="T T T"
Cl       1.71013779       1.20924721       2.96204361      -0.00000073       0.00000057       0.00000043
Cl       5.13040861       3.62774936       8.88612955       0.00000046      -0.00000012      -0.00000033
Si      -0.00000027       0.00000052       0.00000078       0.00000185      -0.00001180      -0.00000232
O        1.41141694       0.99802205       5.92408682       0.00003159       0.00002533       0.00000373
O        5.42912932       3.83897471       5.92408621      -0.00002450      -0.00001925       0.00000557
O        4.42470054       0.99802288       4.18436639      -0.00001416       0.00002086       0.00003022
O        2.41584487       3.83897605       7.66380943       0.00001767      -0.00002784      -0.00002825
O        2.41584556       3.83897531       4.18436653       0.00000769      -0.00001657       0.00002235
O        4.42470167       0.99802143       7.66380845      -0.00001922       0.00002885      -0.00003082
