9
Lattice="4.749408386938356 -4.331612532702619e-08 2.742072367757391 1.5831361343603618 4.477785203682364 2.7420722877024772 6.833455197924113e-08 -4.972703710052712e-08 5.4841446171558506" Properties=species:S:1:pos:R:3:forces:R:3 energy=-28.095949172973633 free_energy=-28.095949172973633 stress="-7.107851160981227e-06 9.392434208166378e-08 -4.179922186153817e-08 9.392434208166378e-08 -7.084867320372723e-06 7.828698045386773e-08 -4.179922186153817e-08 7.828698045386773e-08 -7.282867500180146e-06" pbc="T T T"
Cl       1.58313593       1.11944596       2.74207264      -0.00000359      -0.00000165       0.00000359
Cl       4.74940807       3.35833892       8.22621693      -0.00000307      -0.00000223       0.00000420
Se      -0.00000170      -0.00000107       0.00000194      -0.00002537      -0.00001476       0.00002912
O        1.51437842       1.07082732       5.48414425      -0.00050378      -0.00035667      -0.00000643
O        4.81816683       3.40695844       5.48414445       0.00051391       0.00036323      -0.00000623
O        3.99221954       1.07082685       4.05356219       0.00025940      -0.00035548      -0.00044692
O        2.34032585       3.40695809       6.91472648      -0.00024873       0.00036252       0.00043416
O        2.34032583       3.40695823       4.05356231      -0.00024730       0.00036097      -0.00044525
O        3.99221932       1.07082778       6.91472608       0.00025892      -0.00035584       0.00043344
