9
Lattice="5.022596411118329 2.7971168240424586e-07 2.8997973004724087 1.6741990174455565 4.735350346829723 2.8997973870321414 -1.4518334776900628e-07 3.353495305786312e-09 5.7995948524097285" Properties=species:S:1:pos:R:3:forces:R:3 energy=-33.79762268066406 free_energy=-33.79762268066406 stress="0.00018301603267900646 -1.7477481151217944e-07 5.366642952253642e-08 -1.7477481151217944e-07 0.0001826643419917673 -1.4815633164744213e-07 5.366642952253642e-08 -1.4815633164744213e-07 0.0001828439999371767" pbc="T T T"
Cl       1.67419903       1.18383805       2.89979748      -0.00000136       0.00000134      -0.00000185
Cl       5.02259702       3.55151428       8.69939154       0.00000010      -0.00000390      -0.00000022
S       -0.00000016      -0.00000042      -0.00000008      -0.00001266       0.00000497      -0.00000148
O        1.31235063       0.92797208       5.79959461      -0.00600410      -0.00423861       0.00000364
O        5.38444398       3.80737824       5.79959414       0.00600946       0.00424719       0.00000217
O        4.36642076       0.92797191       4.03632677       0.00300664      -0.00424552      -0.00520444
O        2.33037390       3.80737751       7.56286274      -0.00299865       0.00423801       0.00518942
O        2.33037522       3.80737721       4.03632621      -0.00300688       0.00424981      -0.00520122
O        4.36642085       0.92797328       7.56286293       0.00300807      -0.00425243       0.00521302
