9
Lattice="5.019888568204006 1.1967191733279197e-07 2.8982341475495006 1.6732962239098863 4.732796819172986 2.8982342832023904 -1.226493517865909e-07 7.941396724532872e-08 5.7964685075338895" Properties=species:S:1:pos:R:3:forces:R:3 energy=-30.790321350097656 free_energy=-30.790321350097656 stress="-7.434285362251103e-05 -6.344571978900149e-09 4.9888122077845765e-08 -6.344571978900149e-09 -7.438060856657103e-05 1.2334224308574449e-08 4.9888122077845765e-08 1.2334224308574449e-08 -7.427146192640066e-05" pbc="T T T"
Cl       1.67329621       1.18319932       2.89823412       0.00000015      -0.00000033      -0.00000053
Cl       5.01988825       3.54959766       8.69470248      -0.00000017      -0.00000031      -0.00000162
Te       0.00000020       0.00000009      -0.00000003      -0.00000121       0.00000005      -0.00000243
O        1.58928597       1.12379511       5.79646843      -0.00154686      -0.00109416       0.00000020
O        5.10389865       3.60900204       5.79646865       0.00154835       0.00109512       0.00000071
O        4.22524551       1.12379505       4.27459617       0.00077343      -0.00109446      -0.00133950
O        2.46793933       3.60900185       7.31834078      -0.00077471       0.00109541       0.00134093
O        2.46793943       3.60900184       4.27459622      -0.00077349       0.00109494      -0.00134033
O        4.22524525       1.12379532       7.31834067       0.00077438      -0.00109607       0.00134170
