9
Lattice="4.999760962562623 8.418755329402208e-08 2.886613341354718 1.6665870158501652 4.713820226781074 2.88661342976466 -5.749815568593471e-08 6.762229323473467e-08 5.773226782299146" Properties=species:S:1:pos:R:3:forces:R:3 energy=-39.45225524902344 free_energy=-39.45225524902344 stress="5.560822955885669e-06 4.545089993257534e-08 1.3563929535109764e-08 4.545089993257534e-08 5.446675913844956e-06 6.388242379529174e-09 1.3563929535109764e-08 6.388242379529174e-09 5.499414783116663e-06" pbc="T T T"
Cl       1.66658690       1.17845483       2.88661366       0.00000053       0.00000029       0.00000057
Cl       4.99976171       3.53536557       8.65984022       0.00000003      -0.00000075      -0.00000068
Ti       0.00000042      -0.00000037      -0.00000062      -0.00000165      -0.00000011       0.00000337
O        1.59441792       1.12742403       5.77322681      -0.00123250      -0.00087193       0.00000030
O        5.07192912       3.58639595       5.77322736       0.00123441       0.00087389      -0.00000078
O        4.20255212       1.12742428       4.26742052       0.00061545      -0.00087139      -0.00106844
O        2.46379605       3.58639657       7.27903302      -0.00061539       0.00087002       0.00106612
O        2.46379541       3.58639679       4.26742052      -0.00061551       0.00087047      -0.00106788
O        4.20255201       1.12742415       7.27903256       0.00061500      -0.00087062       0.00106734
