9
Lattice="5.091882248995548 8.29353000242701e-09 2.9397995608298024 1.6972940092621376 4.800672647338111 2.939799702088261 6.2447740003455e-08 2.1716275491211343e-07 5.87959901349691" Properties=species:S:1:pos:R:3:forces:R:3 energy=-44.18401336669922 free_energy=-44.18401336669922 stress="-0.0001676003885222599 -3.6358971389205408e-09 8.506009230302425e-09 -3.6358971389205408e-09 -0.00016756248078309 -2.0160836555760397e-08 8.506009230302425e-09 -2.0160836555760397e-08 -0.00016763512394391" pbc="T T T"
Cl       1.69729473       1.20016864       2.93979979       0.00000016      -0.00000032      -0.00000043
Cl       5.09188257       3.60050409       8.81939935       0.00000056      -0.00000009       0.00000025
Ta      -0.00000047       0.00000016      -0.00000019      -0.00000208       0.00000020       0.00000035
O        1.62561317       1.14948249       5.87959892       0.00149491       0.00105906      -0.00000018
O        5.16356270       3.65118992       5.87959915      -0.00149354      -0.00105587      -0.00000026
O        4.27907531       1.14948232       4.34762184      -0.00074778       0.00105631       0.00129446
O        2.51010097       3.65119075       7.41157653       0.00074758      -0.00105798      -0.00129673
O        2.51010107       3.65119060       4.34762178       0.00074570      -0.00105566       0.00129446
O        4.27907515       1.14948248       7.41157591      -0.00074556       0.00105444      -0.00129157
