9
Lattice="5.1421440403333705 7.444006918147387e-08 2.9688182149776936 1.7140480802260534 4.848059907428565 2.9688182208687355 -9.592464541747943e-08 -6.061397252279688e-08 5.937636596101789" Properties=species:S:1:pos:R:3:forces:R:3 energy=-37.77136993408203 free_energy=-37.77136993408203 stress="0.0001920062641147524 5.932966118393779e-08 3.7589767742929325e-08 5.932966118393779e-08 0.00019192749459762126 -3.404965553954753e-08 3.7589767742929325e-08 -3.404965553954753e-08 0.00019193030311726034" pbc="T T T"
Cl       1.71404790       1.21201481       2.96881823       0.00000006       0.00000070       0.00000072
Cl       5.14214401       3.63604546       8.90645426      -0.00000046      -0.00000005      -0.00000035
V       -0.00000021      -0.00000014       0.00000023       0.00000018      -0.00000629       0.00000977
O        1.50889916       1.06695264       5.93763655      -0.00038815      -0.00027448       0.00000104
O        5.34729240       3.78110717       5.93763686       0.00039101       0.00027537       0.00000087
O        4.38769465       1.06695262       4.27556382       0.00019339      -0.00027242      -0.00033367
O        2.46849749       3.78110744       7.59970959      -0.00018957       0.00026846       0.00033069
O        2.46849782       3.78110688       4.27556351      -0.00019586       0.00027755      -0.00033963
O        4.38769465       1.06695269       7.59970955       0.00018972      -0.00026834       0.00033021
