9
Lattice="5.090118328669973 -3.374310878975042e-08 2.9387810132170613 1.6967060339149187 4.799009831797504 2.9387810891299586 -2.5681799832452738e-08 7.481417572088813e-08 5.8775620709161815" Properties=species:S:1:pos:R:3:forces:R:3 energy=-39.037452697753906 free_energy=-39.037452697753906 stress="1.1462032034614822e-06 -8.443072374575422e-08 -8.196840539653749e-09 -8.443072374575422e-08 1.1581533954085899e-06 -2.1747229794755185e-08 -8.196840539653749e-09 -2.1747229794755185e-08 1.1417624818932381e-06" pbc="T T T"
Cl       1.69670728       1.19975293       2.93878165      -0.00000041       0.00000077       0.00000075
Cl       5.09011679       3.59925690       8.81634244       0.00000130       0.00000080       0.00000167
W        0.00000036       0.00000081       0.00000152      -0.00000205      -0.00000849      -0.00000799
O        1.58753251       1.12255539       5.87756080      -0.00000250      -0.00000310       0.00000039
O        5.19929141       3.67645424       5.87756201       0.00000966       0.00000626      -0.00000128
O        4.29635119       1.12255580       4.31362402       0.00000367      -0.00000566      -0.00000405
O        2.49047293       3.67645345       7.44149995      -0.00000948       0.00001162       0.00001007
O        2.49047292       3.67645348       4.31362421      -0.00000528       0.00000781      -0.00000656
O        4.29635202       1.12255637       7.44150013       0.00000489      -0.00000989       0.00000608
