9
Lattice="4.853963252938789 6.42083095547261e-08 2.8024370428062557 1.6179877874214887 4.5763606581712555 2.8024370845387834 5.426133265459033e-08 8.948024440162295e-08 5.604873991629153" Properties=species:S:1:pos:R:3:forces:R:3 energy=-40.04029846191406 free_energy=-40.04029846191406 stress="9.913550456985831e-05 -4.684548304823011e-09 -3.876162946170325e-09 -4.684548304823011e-09 9.912146197166294e-05 4.063695602241069e-09 -3.876162946170325e-09 4.063695602241069e-09 9.908818901749328e-05" pbc="T T T"
Cl       1.61798788       1.14409035       2.80243725       0.00000005       0.00000053       0.00000182
Cl       4.85396320       3.43227053       8.40731119       0.00000045       0.00000087       0.00000194
Zr       0.00000039       0.00000094       0.00000297       0.00000031       0.00000618       0.00002223
O        1.80232514       1.27443630       5.60487406      -0.00428218      -0.00302845      -0.00000009
O        4.66962528       3.30192380       5.60487408       0.00427759       0.00302470       0.00000001
O        3.95280097       1.27443598       4.36329569       0.00214392      -0.00303233      -0.00371403
O        2.51915090       3.30192350       6.84645054      -0.00213572       0.00302088       0.00369853
O        2.51915017       3.30192457       4.36329591      -0.00214195       0.00302994      -0.00371146
O        3.95280042       1.27443726       6.84645064       0.00213730      -0.00302190       0.00370097
