9
Lattice="5.6697131825998754 -2.830596292325493e-07 3.27340966098437 1.8899042776903479 5.3454568785487275 3.273409400550417 -6.068783263340101e-07 -7.480928018130117e-07 6.546820373112746" Properties=species:S:1:pos:R:3:forces:R:3 energy=-30.04641342163086 free_energy=-30.04641342163086 stress="7.916778486105613e-06 2.2800126231459217e-08 2.873779578749236e-07 2.2800126231459217e-08 7.762267159705516e-06 2.621935948354803e-07 2.873779578749236e-07 2.621935948354803e-07 8.24933795229299e-06" pbc="T T T"
Co       1.88990126       1.33635633       3.27340649      -0.00003707      -0.00007603      -0.00005679
Co       5.66971601       4.00909307       9.82024312       0.00003966       0.00002135       0.00014311
Ag       0.00000019       0.00000021      -0.00000112      -0.00000042       0.00000258      -0.00000044
Se       2.20600317       1.55988024       6.54682500       0.00021324       0.00015207       0.00004748
Se       5.35361174       3.78557825       6.54681052      -0.00023016      -0.00013043      -0.00008702
Se       4.56671446       1.55988267       5.18386715      -0.00006541       0.00016801       0.00019702
Se       2.99290132       3.78557641       7.90976924       0.00005590      -0.00013551      -0.00023092
Se       2.99291008       3.78558111       5.18386704       0.00014685      -0.00009735       0.00020771
Se       4.56670916       1.55987504       7.90977024      -0.00012261       0.00009529      -0.00022016
