9
Lattice="4.521735308285669 -1.0619172842518797e-07 2.6106248447025306 1.5072449704187163 4.26313274496164 2.610624900517213 -6.14766120130769e-08 2.488823549731292e-08 5.221249795885656" Properties=species:S:1:pos:R:3:forces:R:3 energy=-36.15331268310547 free_energy=-36.15331268310547 stress="0.0001783822081051767 9.271790446518935e-08 5.7614890636159544e-08 9.271790446518935e-08 0.0001786394277587533 2.645671202117228e-07 5.7614890636159544e-08 2.645671202117228e-07 0.00017846017726697028" pbc="T T T"
Co       1.50724581       1.06578133       2.61062463       0.00001373      -0.00002872       0.00000013
Co       4.52173538       3.19734905       7.83187126      -0.00000079      -0.00000172      -0.00005467
Au       0.00000014       0.00000035       0.00000024      -0.00000412       0.00000082      -0.00000118
O        1.60389656       1.13412664       5.22124969      -0.00218892      -0.00154299      -0.00000328
O        4.42508295       3.12900706       5.22125208       0.00217867       0.00155929       0.00003453
O        3.71978553       1.13412529       3.99964013       0.00107911      -0.00156319      -0.00189260
O        2.30919421       3.12900695       6.44285945      -0.00107431       0.00155389       0.00189510
O        2.30919328       3.12900762       3.99964042      -0.00109461       0.00155479      -0.00187600
O        3.71978705       1.13412636       6.44286025       0.00109145      -0.00153214       0.00189814
