9
Lattice="4.439028374260983 -1.0135722367386029e-07 2.5628743356338095 1.479676098759709 4.185156003652919 2.562874215140974 1.2426454570864603e-07 -5.970469398733038e-08 5.12574845603515" Properties=species:S:1:pos:R:3:forces:R:3 energy=-34.98432159423828 free_energy=-34.98432159423828 stress="-5.783854066976346e-05 1.5511531614720298e-07 -1.625384129511076e-07 1.5511531614720298e-07 -5.7298209867440164e-05 -1.4529547343045124e-07 -1.625384129511076e-07 -1.4529547343045124e-07 -5.772265649284236e-05" pbc="T T T"
Co       1.47967446       1.04628672       2.56287761      -0.00002043      -0.00003058       0.00004292
Co       4.43902530       3.13886729       7.68862872      -0.00004126       0.00000955       0.00008181
Ag      -0.00000018       0.00000013       0.00000035       0.00000059      -0.00000340      -0.00000030
O        1.59640645       1.12882778       5.12574682       0.00366998       0.00257248      -0.00001723
O        4.32229900       3.05632755       5.12574408      -0.00366229      -0.00257939      -0.00004793
O        3.64082598       1.12882984       3.94540055      -0.00182757       0.00260407       0.00315845
O        2.27787955       3.05632885       6.30609521       0.00184393      -0.00257111      -0.00318319
O        2.27788083       3.05632784       3.94540051       0.00186083      -0.00257730       0.00315756
O        3.64082682       1.12882735       6.30609421      -0.00182363       0.00257623      -0.00319225
