9
Lattice="5.498504708657716 -6.727948276439553e-09 3.1745632111593567 1.8328349326866415 5.184040130350949 3.174563148556286 1.941650819191696e-08 -6.294326497982723e-08 6.349126388688338" Properties=species:S:1:pos:R:3:forces:R:3 energy=-30.738948822021484 free_energy=-30.738948822021484 stress="-2.691366353246849e-05 3.251950886351551e-08 2.9475155649549833e-10 3.251950886351551e-08 -2.696123374335002e-05 5.389010127032634e-09 2.9475155649549833e-10 5.389010127032634e-09 -2.6948435333906673e-05" pbc="T T T"
Co       1.83283618       1.29600995       3.17456317       0.00000905      -0.00000091      -0.00000135
Co       5.49850469       3.88803109       9.52368985      -0.00000093       0.00000640       0.00000494
Ag       0.00000028      -0.00000065      -0.00000062      -0.00001422       0.00001194       0.00001531
S        1.96088567       1.38655527       6.34912633       0.00062001       0.00043425      -0.00000037
S        5.37045381       3.79748445       6.34912617      -0.00061682      -0.00043330      -0.00000234
S        4.51806118       1.38655539       4.87274011      -0.00030974       0.00042862       0.00052604
S        2.81327723       3.79748491       7.82551327       0.00031266      -0.00044411      -0.00054178
S        2.81327818       3.79748462       4.87273985       0.00031441      -0.00043619       0.00053418
S        4.51806139       1.38655523       7.82551294      -0.00031424       0.00043315      -0.00053447
