9
Lattice="5.466673313947139 -2.4597358336030815e-08 3.156185392572815 1.822224428170732 5.15402909970438 3.156185369399779 2.4343240151585144e-08 -1.1167785705365058e-08 6.312370742981903" Properties=species:S:1:pos:R:3:forces:R:3 energy=-31.728397369384766 free_energy=-31.728397369384766 stress="2.464199951646151e-06 -1.5649918694293774e-08 -5.2737489930620995e-09 -1.5649918694293774e-08 2.468193542881636e-06 -2.690675460215175e-09 -5.2737489930620995e-09 -2.690675460215175e-09 2.4628459414088866e-06" pbc="T T T"
Co       1.82222363       1.28850722       3.15618533      -0.00000611      -0.00000049       0.00000023
Co       5.46667355       3.86552154       9.46855660       0.00000124      -0.00000052       0.00000456
Au      -0.00000001      -0.00000010       0.00000017       0.00000256       0.00000323      -0.00000409
S        1.95573081       1.38291039       6.31237068      -0.00002882      -0.00002021       0.00000080
S        5.33316738       3.77111852       6.31237038       0.00002867       0.00001475      -0.00000234
S        4.48880837       1.38291056       4.84989806       0.00001748      -0.00001857      -0.00002399
S        2.80008949       3.77111875       7.77484343      -0.00001794       0.00002161       0.00002235
S        2.80008951       3.77111891       4.84989803      -0.00001483       0.00002176      -0.00002077
S        4.48880833       1.38291042       7.77484341       0.00001778      -0.00002143       0.00002334
