9
Lattice="5.772002749820502 -1.0428793309165373e-07 3.332467582073439 1.9240008989359936 5.441896827852165 3.332467442378681 1.0759057745909728e-07 -9.50123337652575e-08 6.664934977794525" Properties=species:S:1:pos:R:3:forces:R:3 energy=-30.68235206604004 free_energy=-30.68235206604004 stress="-0.00028349534841254354 -1.428094176247896e-08 -8.543928231574682e-09 -1.428094176247896e-08 -0.00028362503508105874 -9.757570751389721e-09 -8.543928231574682e-09 -9.757570751389721e-09 -0.00028352043591439724" pbc="T T T"
Co       1.92399975       1.36047237       3.33246601      -0.00000648      -0.00002198      -0.00000729
Co       5.77200020       4.08142768       9.99739998      -0.00001674       0.00004108      -0.00001378
Au       0.00000053      -0.00000022       0.00000039      -0.00000010      -0.00000043       0.00000055
Se       2.27291226       1.60718771       6.66493593      -0.00624982      -0.00445068       0.00000628
Se       5.42309229       3.83470720       6.66493618       0.00625811       0.00443670       0.00000944
Se       4.63554647       1.60718837       5.30086681       0.00312833      -0.00444624      -0.00541367
Se       3.06045726       3.83470722       8.02900418      -0.00312011       0.00443731       0.00542587
Se       3.06045812       3.83470710       5.30086738      -0.00312444       0.00444261      -0.00542188
Se       4.63554816       1.60718898       8.02900312       0.00313129      -0.00443834       0.00541450
