9
Lattice="6.200607211450865 8.050969204106607e-08 3.5799222752697473 2.0668691428506953 5.845988460636349 3.579922281398117 -2.1416818184134187e-08 -7.638261150710264e-09 7.159844587634453" Properties=species:S:1:pos:R:3:forces:R:3 energy=-27.583158493041992 free_energy=-27.583158493041992 stress="1.1540776540641673e-05 3.79763065438965e-09 5.552049042734097e-09 3.79763065438965e-09 1.1535651537997182e-05 7.092847642553579e-09 5.552049042734097e-09 7.092847642553579e-09 1.1521046872076113e-05" pbc="T T T"
Co       2.06686931       1.46149699       3.57992235       0.00000136      -0.00000114      -0.00000141
Co       6.20060696       4.38449146      10.73976748      -0.00000222       0.00000015       0.00000100
Ag       0.00000006       0.00000018      -0.00000021      -0.00000178      -0.00000090      -0.00000007
Te       2.27255151       1.60693642       7.15984466      -0.00075725      -0.00053611       0.00000043
Te       5.99492477       4.23905202       7.15984424       0.00075946       0.00053757      -0.00000115
Te       5.06433140       1.60693659       5.54800934       0.00037782      -0.00053526      -0.00065705
Te       3.20314507       4.23905192       8.77167961      -0.00037857       0.00053631       0.00065724
Te       3.20314511       4.23905220       5.54800947      -0.00037717       0.00053567      -0.00065629
Te       5.06433118       1.60693639       8.77167965       0.00037838      -0.00053638       0.00065728
