9
Lattice="5.368385138179118 2.4519619719917933e-08 3.099438509066682 1.7894617035553546 5.061361992906944 3.099438564991708 1.1328007885292358e-08 7.650401616210322e-08 6.198876998512681" Properties=species:S:1:pos:R:3:forces:R:3 energy=-32.27161407470703 free_energy=-32.27161407470703 stress="-1.4588575140805915e-05 -3.833199091474171e-09 1.6829226900938465e-10 -3.833199091474171e-09 -1.4533907233271748e-05 -1.7873178492777697e-08 1.6829226900938465e-10 -1.7873178492777697e-08 -1.4506348634313326e-05" pbc="T T T"
Co       1.78946081       1.26533859       3.09943863      -0.00001003      -0.00001992       0.00000103
Co       5.36838553       3.79602301       9.29831394       0.00000285       0.00001596      -0.00001558
Be       0.00000004       0.00000011      -0.00000001      -0.00000076      -0.00000042      -0.00000088
S        1.85468284       1.31145795       6.19887672      -0.00065164      -0.00046989      -0.00000160
S        5.30316403       3.74990397       6.19887820       0.00065438       0.00047017       0.00000934
S        4.44104408       1.31145776       4.70564138       0.00032728      -0.00047259      -0.00056113
S        2.71680339       3.74990432       7.69211292      -0.00032451       0.00047329       0.00056423
S        2.71680250       3.74990434       4.70564157      -0.00032971       0.00047189      -0.00055940
S        4.44104424       1.31145832       7.69211298       0.00033215      -0.00046835       0.00056423
