9
Lattice="5.2675550355136265 -1.764155499740188e-07 3.0412239018092277 1.7558514572482995 4.96630157652271 3.041223996950806 -7.243617580978376e-07 -3.9567699084910987e-07 6.082449058250083" Properties=species:S:1:pos:R:3:forces:R:3 energy=-32.69964599609375 free_energy=-32.69964599609375 stress="0.00031548336846753955 4.611419512912107e-08 -9.190619465471173e-08 4.611419512912107e-08 0.00031568502890877426 -6.859648493673376e-08 -9.190619465471173e-08 -6.859648493673376e-08 0.00031554827000945807" pbc="T T T"
Co       1.75585083       1.24160515       3.04122216      -0.00000630       0.00042152      -0.00002781
Co       5.26755662       3.72471907       9.12363591       0.00003484      -0.00010183      -0.00051305
Be       0.00000042       0.00000140      -0.00000315      -0.00002878       0.00002003       0.00003031
Se       1.56217531       1.10463256       6.08244560       0.00698745       0.00499612       0.00000300
Se       5.46123897       3.86166080       6.08246853      -0.00690019      -0.00509304       0.00024307
Se       4.48646425       1.10461851       4.39411505      -0.00351185       0.00485516       0.00611496
Se       2.53694490       3.86165752       7.77080063       0.00356117      -0.00512701      -0.00593293
Se       2.53692289       3.86166437       4.39410862       0.00332960      -0.00507426       0.00606364
Se       4.48646895       1.10464466       7.77079443      -0.00346556       0.00510323      -0.00598127
