9
Lattice="6.101609880546484 1.2254982736467302e-07 3.5227660521338975 2.0338700447117706 5.7526529221088785 3.5227661058473227 -6.34147640556216e-08 2.094428311103878e-08 7.045532214105422" Properties=species:S:1:pos:R:3:forces:R:3 energy=-28.9498348236084 free_energy=-28.9498348236084 stress="-0.00029889470897614956 1.2087506995328567e-08 -1.656457371268516e-08 1.2087506995328567e-08 -0.00029884063405916095 -1.3065240445087056e-08 -1.656457371268516e-08 -1.3065240445087056e-08 -0.0002988259948324412" pbc="T T T"
Co       2.03387236       1.43816329       3.52276705       0.00001459      -0.00000204       0.00000466
Co       6.10160865       4.31449072      10.56830178      -0.00000810       0.00000643       0.00002119
Be      -0.00000024      -0.00000038       0.00000079       0.00000372       0.00000401      -0.00002356
Te       1.86577603       1.31930187       7.04553327       0.00565824       0.00399366       0.00000353
Te       6.26970386       4.43335097       7.04553206      -0.00566205      -0.00399700      -0.00000674
Te       5.16872113       1.31930316       5.13857294      -0.00283857       0.00401011       0.00489676
Te       2.96675798       4.43335082       8.95248812       0.00282316      -0.00399241      -0.00489712
Te       2.96675903       4.43335040       5.13857328       0.00284097      -0.00400907       0.00489864
Te       5.16872054       1.31930142       8.95248818      -0.00283207       0.00398624      -0.00489753
