9
Lattice="4.033560083237418 1.1042859986780253e-07 2.3287771826167045 1.3445200531038306 3.8028772620328994 2.3287773190244767 -9.537646266892262e-08 9.962338652339611e-08 4.657554530430268" Properties=species:S:1:pos:R:3:forces:R:3 energy=-43.530948638916016 free_energy=-43.530948638916016 stress="0.0007018118631094694 -1.1063939098221454e-07 6.416043163426366e-08 -1.1063939098221454e-07 0.0007017096504569054 -2.6225823290815242e-08 6.416043163426366e-08 -2.6225823290815242e-08 0.0007016546442173421" pbc="T T T"
Co       1.34451653       0.95071752       2.32877830      -0.00001606      -0.00000976       0.00000304
Co       4.03355984       2.85215696       6.98633048      -0.00000521      -0.00000701      -0.00000450
Be      -0.00000004       0.00000012      -0.00000017       0.00000004       0.00000327       0.00000088
O        1.32921107       0.93989433       4.65755442       0.00162564       0.00114878       0.00000147
O        4.04886992       2.86298347       4.65755487      -0.00162230      -0.00114478      -0.00000226
O        3.36895557       0.93989447       3.47990806      -0.00080563       0.00115047       0.00140320
O        2.00912582       2.86298457       5.83520099       0.00081506      -0.00114436      -0.00140481
O        2.00912532       2.86298393       3.47990796       0.00081656      -0.00114730       0.00140530
O        3.36895608       0.93989486       5.83520146      -0.00080784       0.00115079      -0.00140135
