9
Lattice="4.613041914605183 -4.897027731248561e-08 2.663341122877681 1.537680648556715 4.349217544089489 2.6633410249742093 1.880649155854846e-07 1.30751817036546e-08 5.326681920017373" Properties=species:S:1:pos:R:3:forces:R:3 energy=-33.23003005981445 free_energy=-33.23003005981445 stress="0.00013676303206011653 5.756662346811936e-08 -2.4047352553679957e-07 5.756662346811936e-08 0.00013642862904816866 -9.51127674397867e-08 -2.4047352553679957e-07 -9.51127674397867e-08 0.00013660374679602683" pbc="T T T"
Co       1.53768019       1.08730547       2.66333885      -0.00000733       0.00001666      -0.00003131
Co       4.61304186       3.26191144       7.99002519      -0.00000102      -0.00002586       0.00003019
Cd       0.00000009      -0.00000004       0.00000019       0.00000151      -0.00000042       0.00000137
O        1.72268462       1.21812233       5.32668304      -0.00299068      -0.00210243       0.00001772
O        4.42803803       3.13109499       5.32668047       0.00299048       0.00210074      -0.00001993
O        3.75170105       1.21812330       4.15522945       0.00151256      -0.00209199      -0.00259020
O        2.39902209       3.13109432       6.49813468      -0.00150835       0.00209533       0.00258927
O        2.39902355       3.13109574       4.15522956      -0.00148445       0.00211322      -0.00258963
O        3.75169954       1.21812247       6.49813487       0.00148714      -0.00210522       0.00259226
