9
Lattice="4.376129549863135 -5.336856446917014e-08 2.5265591671251673 1.4587097872246366 4.125854439676221 2.5265591886257406 -2.159053496148087e-08 1.1065918868568144e-08 5.053118371646267" Properties=species:S:1:pos:R:3:forces:R:3 energy=-47.84345626831055 free_energy=-47.84345626831055 stress="-0.0006236003828234971 -1.0341021550175356e-07 4.4119776276829725e-08 -1.0341021550175356e-07 -0.0006238063797354698 -1.0456870924713257e-08 4.4119776276829725e-08 -1.0456870924713257e-08 -0.0006235048640519381" pbc="T T T"
Co       1.45871135       1.03146441       2.52655759       0.00002027       0.00000624      -0.00002037
Co       4.37612930       3.09438771       7.57967827      -0.00000506      -0.00003153       0.00000542
Cr       0.00000003      -0.00000006       0.00000017      -0.00000103       0.00000282      -0.00000295
O        1.46159198       1.03350220       5.05311888       0.00142795       0.00102839       0.00000554
O        4.37324679       3.09235315       5.05311732      -0.00143951      -0.00101244      -0.00000685
O        3.64533347       1.03350246       3.79233505      -0.00071645       0.00102544       0.00123700
O        2.18950621       3.09235201       6.31390234       0.00071646      -0.00102177      -0.00123909
O        2.18950586       3.09235262       3.79233510       0.00071625      -0.00101784       0.00124684
O        3.64533243       1.03350265       6.31390202      -0.00071828       0.00102079      -0.00122625
