9
Lattice="4.974244427302163 3.656237867936652e-07 2.871881877965405 1.6580817456160903 4.689762702583492 2.871882007634825 2.4692263199860976e-07 3.334126355658823e-07 5.743763328248284" Properties=species:S:1:pos:R:3:forces:R:3 energy=-36.32541275024414 free_energy=-36.32541275024414 stress="0.00023969409812707454 -3.1413634360433207e-07 -4.1242378756578546e-07 -3.1413634360433207e-07 0.00024149080854840577 -3.7666330854335683e-07 -4.1242378756578546e-07 -3.7666330854335683e-07 0.00023948941088747233" pbc="T T T"
Co       1.65808210       1.17243595       2.87187534      -0.00000003      -0.00016518      -0.00013466
Co       4.97424841       3.51734801       8.61565695       0.00005084       0.00042674       0.00019556
C        0.00000002      -0.00000145      -0.00000023      -0.00001528      -0.00001626      -0.00004369
S        1.49696255       1.05848111       5.74376073       0.00141385       0.00042957      -0.00000533
S        5.13537433       3.63126643       5.74373847      -0.00123653      -0.00067461      -0.00045277
S        4.22576558       1.05848153       4.16829032      -0.00064030       0.00044984       0.00125030
S        2.40654536       3.63125958       7.31924492       0.00039096      -0.00078663      -0.00110021
S        2.40656721       3.63129028       4.16829447       0.00079563      -0.00025934       0.00132048
S        4.22576022       1.05849207       7.31924794      -0.00075893       0.00059611      -0.00102964
