9
Lattice="5.504164582777466 8.321571810824445e-08 3.1778309926860238 1.8347216041680472 5.189376438524249 3.1778309959439413 1.9620023241975823e-08 1.7863591827322536e-08 6.355661951389169" Properties=species:S:1:pos:R:3:forces:R:3 energy=-28.435787200927734 free_energy=-28.435787200927734 stress="-1.5435716704814695e-05 -1.0880442324889827e-08 2.8176602384633043e-08 -1.0880442324889827e-08 -1.5447658370248973e-05 -1.0031933506127189e-08 2.8176602384633043e-08 -1.0031933506127189e-08 -1.540500124974642e-05" pbc="T T T"
Co       1.83472177       1.29734367       3.17783116       0.00000169      -0.00000445      -0.00000138
Co       5.50416475       3.89203308       9.53349395       0.00000051       0.00000628       0.00000872
Cd       0.00000014       0.00000001      -0.00000008      -0.00000107       0.00000008       0.00000048
S        2.01574156       1.42534415       6.35566213       0.00073376       0.00051375       0.00000127
S        5.32314469       3.76403245       6.35566128      -0.00073373      -0.00051597      -0.00000417
S        4.49629382       1.42534443       4.92351411      -0.00036481       0.00051621       0.00063296
S        2.84259187       3.76403218       7.78780945       0.00036256      -0.00051565      -0.00063650
S        2.84259253       3.76403224       4.92351425       0.00036883      -0.00051440       0.00063267
S        4.49629375       1.42534403       7.78780954      -0.00036778       0.00051390      -0.00063445
