9
Lattice="5.306871587384282 -7.021011845874393e-08 3.0639236306234725 1.768957148848148 5.003366294536896 3.0639235972847216 -2.2139253347112337e-08 -5.648623951177613e-08 6.127847299593255" Properties=species:S:1:pos:R:3:forces:R:3 energy=-40.9795036315918 free_energy=-40.9795036315918 stress="8.436471716777305e-07 1.0708639308631973e-08 -1.0287583007695389e-09 1.0708639308631973e-08 8.6519764863624e-07 2.6353580651061748e-08 -1.0287583007695389e-09 2.6353580651061748e-08 8.495885595038999e-07" pbc="T T T"
Co       1.76895717       1.25084152       3.06392376      -0.00000174       0.00000084       0.00000173
Co       5.30687146       3.75252452       9.19177073       0.00000036      -0.00000098      -0.00000322
Cr       0.00000000       0.00000011      -0.00000017       0.00000064      -0.00000074       0.00000045
S        1.82790653       1.29252536       6.12784724       0.00103182       0.00073151      -0.00000047
S        5.24792196       3.71084118       6.12784725      -0.00103301      -0.00073041       0.00000050
S        4.39291834       1.29252508       4.64693764      -0.00051475       0.00072789       0.00089431
S        2.68291083       3.71084083       7.60875724       0.00051720      -0.00072862      -0.00089210
S        2.68291038       3.71084078       4.64693734       0.00051458      -0.00073014       0.00089294
S        4.39291814       1.29252524       7.60875711      -0.00051576       0.00073056      -0.00089428
