9
Lattice="5.35536674816423 -7.735088826259493e-09 3.0919223057196095 1.7851222440493488 5.049087863666259 3.0919223023351976 -5.261634911398717e-10 -4.517097938142788e-09 6.18384461235052" Properties=species:S:1:pos:R:3:forces:R:3 energy=-33.48316955566406 free_energy=-33.48316955566406 stress="-0.00012312459875829518 -3.6142437931374616e-09 -4.5765133904751565e-09 -3.6142437931374616e-09 -0.00012309674639254808 -3.685471483549918e-09 -4.5765133904751565e-09 -3.685471483549918e-09 -0.0001230615598615259" pbc="T T T"
Co       1.78512224       1.26227126       3.09192219       0.00000048      -0.00000808      -0.00000116
Co       5.35536745       3.78681651       9.27576842       0.00000959       0.00000696       0.00001446
Cu       0.00000019       0.00000004       0.00000013      -0.00000336      -0.00000219       0.00000131
S        1.85900541       1.31451505       6.18384462      -0.00087535      -0.00062022       0.00000118
S        5.28148333       3.73457292       6.18384378       0.00087661       0.00062358      -0.00000831
S        4.42586435       1.31451500       4.70186848       0.00044051      -0.00062248      -0.00075740
S        2.71462441       3.73457304       7.66582018      -0.00044444       0.00062370       0.00075084
S        2.71462504       3.73457305       4.70186853      -0.00043753       0.00062600      -0.00075686
S        4.42586350       1.31451455       7.66582064       0.00043356      -0.00062737       0.00075585
