9
Lattice="5.461079527570059 2.2231328560218628e-07 3.152955761694799 1.8203600268500586 5.1487555588284 3.1529558054676565 -1.1276774565302455e-07 -2.612828718973027e-08 6.305911718709123" Properties=species:S:1:pos:R:3:forces:R:3 energy=-31.867843627929688 free_energy=-31.867843627929688 stress="-2.881661021092441e-05 -1.7365735516250425e-07 1.21806493780241e-07 -1.7365735516250425e-07 -2.957538890768774e-05 1.1806544364389993e-07 1.21806493780241e-07 1.1806544364389993e-07 -2.930262235167902e-05" pbc="T T T"
Co       1.82040921       1.28714581       3.15296117       0.00067965      -0.00059655       0.00004797
Co       5.46108325       3.86157408       9.45890026       0.00001437       0.00013335       0.00044900
Cu      -0.00000209       0.00000234      -0.00000001      -0.00002506       0.00001100      -0.00002537
Se       2.06403551       1.45948769       6.30591475      -0.00035748      -0.00037405       0.00002175
Se       5.21738875       3.68928953       6.30589772       0.00014776       0.00065988      -0.00021430
Se       4.42904384       1.45949509       4.94044560      -0.00005521      -0.00024645      -0.00053488
Se       2.85237300       3.68927784       7.67134862      -0.00024280       0.00045031       0.00021590
Se       2.85238780       3.68927093       4.94045767      -0.00003546       0.00041218      -0.00036769
Se       4.42903841       1.45947973       7.67136731      -0.00012574      -0.00044963       0.00040768
