9
Lattice="5.736073594520928 5.998837350577901e-08 3.3117235652145993 1.912024558085163 5.408022284665565 3.311723617140356 -2.9079467833167844e-08 4.30335621689885e-08 6.623447180796296" Properties=species:S:1:pos:R:3:forces:R:3 energy=-37.605445861816406 free_energy=-37.605445861816406 stress="-0.00028653524350374937 -7.370751564650391e-09 9.520702004550685e-10 -7.370751564650391e-09 -0.0002866105642169714 -5.8957039250628895e-09 9.520702004550685e-10 -5.8957039250628895e-09 -0.0002865449641831219" pbc="T T T"
Co       1.91202301       1.35200390       3.31172363      -0.00001237      -0.00001445       0.00000014
Co       5.73607373       4.05601813       9.93516880      -0.00000053       0.00001510      -0.00001672
Cr      -0.00000001       0.00000012       0.00000008       0.00000033      -0.00000070      -0.00000102
Se       1.97271086       1.39491634       6.62344727       0.00099017       0.00069144       0.00000048
Se       5.67538752       4.01310572       6.62344816      -0.00098732      -0.00069427       0.00000849
Se       4.74971864       1.39491629       5.02014169      -0.00049043       0.00068951       0.00086161
Se       2.89838036       4.01310586       8.22675316       0.00049625      -0.00069033      -0.00085458
Se       2.89837949       4.01310610       5.02014180       0.00049197      -0.00069176       0.00085740
Se       4.74971890       1.39491714       8.22675294      -0.00048792       0.00069556      -0.00085582
