9
Lattice="6.027612348705088 1.578308548724076e-07 3.480043624500303 2.009204279683947 5.682887690626243 3.4800435991353376 2.9975539114688994e-08 -9.869750591248141e-09 6.960087197081371" Properties=species:S:1:pos:R:3:forces:R:3 energy=-29.433012008666992 free_energy=-29.433012008666992 stress="-7.048092811601236e-05 -1.72070535597868e-08 -1.0859768195814468e-08 -1.72070535597868e-08 -7.046175596769899e-05 -2.0781669718417106e-09 -1.0859768195814468e-08 -2.0781669718417106e-09 -7.047622057143599e-05" pbc="T T T"
Co       2.00920534       1.42072305       3.48004364       0.00000966       0.00000806       0.00000102
Co       6.02761249       4.26216536      10.44013054       0.00000214      -0.00000270      -0.00000217
Cu       0.00000062       0.00000023       0.00000016      -0.00000357       0.00000031      -0.00000065
Te       2.12009118       1.49913162       6.96008704       0.00010630       0.00007681      -0.00000163
Te       5.91672584       4.18375658       6.96008722      -0.00010563      -0.00007721       0.00000124
Te       4.96756606       1.49913134       5.31609617      -0.00005696       0.00007547       0.00009134
Te       3.06924965       4.18375582       8.60407829       0.00005305      -0.00007930      -0.00009067
Te       3.06924952       4.18375591       5.31609636       0.00005087      -0.00007840       0.00009085
Te       4.96756595       1.49913146       8.60407829      -0.00005587       0.00007696      -0.00008935
