9
Lattice="3.27823114229761 -1.4947405359050012 0.2717852680379736 2.9807745571036244 2.2763785750307495 1.6141639904415248 -0.09857531432140745 -0.1595853892580745 1.4173527647042479" Properties=species:S:1:pos:R:3:forces:R:3 energy=-37218955264.0 free_energy=-37218955264.0 stress="-9217086464.0 5944501248.0 -1778106752.0 5944501248.0 -4998815232.0 -3378173440.0 -1778106752.0 -3378173440.0 0.0" pbc="T T T"
Co       1.58066606       1.58980460       1.62732775 49693634560.00000000 -59808632832.00000000 -21041782784.00000000
Co       5.25410163       3.21139620       2.88253754 -23131021312.00000000 16561585152.00000000 11874925568.00000000
C        0.96062792       0.90594305       1.00142322 35504922624.00000000 29898473472.00000000 -19297183744.00000000
S        1.92645495       0.85375274       2.08408658 47045156864.00000000 16079993856.00000000 -404141568.00000000
S        7.10411469       1.81123766       2.84783201 -50575130624.00000000 -27316336640.00000000 38628458496.00000000
S        5.12010118       0.01012771       1.59640908 -18939287552.00000000 53006659584.00000000 40188194816.00000000
S        4.49537482       2.91546970       3.34409982 -3785615360.00000000 -37974753280.00000000 -30948790272.00000000
S        2.67339829       2.27983770       2.16198339 -27676616704.00000000 -38566895616.00000000 -5019596288.00000000
S        4.52192103      -0.30906779       2.39408135 -8135998464.00000000 48119873536.00000000 -13980080128.00000000
