9
Lattice="5.762567852827878 -1.2900578492643167e-07 3.3270194867997493 1.9208557647370512 5.4330007041581405 3.327019598651642 -3.252971993990899e-07 -9.302970968005784e-08 6.654039537030693" Properties=species:S:1:pos:R:3:forces:R:3 energy=-28.678125381469727 free_energy=-28.678125381469727 stress="6.219894567038864e-05 8.107301141535572e-08 7.416255698444729e-08 8.107301141535572e-08 6.238962669158354e-05 6.280356501520146e-08 7.416255698444729e-08 6.280356501520146e-08 6.229895370779559e-05" pbc="T T T"
Co       1.92085471       1.35825370       3.32701527      -0.00001439       0.00002855      -0.00003693
Co       5.76257099       4.07474769       9.98106092       0.00002901      -0.00002689       0.00002285
Cd      -0.00000044      -0.00000001       0.00000036      -0.00000054      -0.00000068      -0.00000021
Se       2.27751607       1.61045163       6.65404047       0.00327769       0.00235243       0.00001623
Se       5.40590453       3.82255071       6.65403566      -0.00328067      -0.00233838      -0.00002400
Se       4.62381194       1.61044917       5.29940948      -0.00162150       0.00233631       0.00285971
Se       3.05961175       3.82254767       8.00867188       0.00161888      -0.00235775      -0.00284269
Se       3.05961427       3.82255269       5.29940973       0.00163800      -0.00232491       0.00285557
Se       4.62380938       1.61044872       8.00867048      -0.00164647       0.00233139      -0.00285050
