9
Lattice="4.066984918851853 -1.272926702563042e-07 2.348074749041002 1.3556615172478728 3.8343900733246787 2.3480747531230173 -3.1058730617402657e-07 -2.1461897790614115e-07 4.696150036035023" Properties=species:S:1:pos:R:3:forces:R:3 energy=-46.54118728637695 free_energy=-46.54118728637695 stress="-0.00019015968427993357 -1.1859807358405305e-07 -2.775475849148279e-08 -1.1859807358405305e-07 -0.0001902506483020261 -1.7120780171353545e-07 -2.775475849148279e-08 -1.7120780171353545e-07 -0.0001898211194202304" pbc="T T T"
Co       1.35566069       0.95859737       2.34807510      -0.00001048       0.00000072       0.00000370
Co       4.06698364       2.87579192       7.04422665      -0.00001173      -0.00000473       0.00002690
C       -0.00000060       0.00000008       0.00000052      -0.00000694       0.00000084       0.00000376
O        1.24074862       0.87734196       4.69614924       0.00329137       0.00232780      -0.00000550
O        4.18189831       2.95704775       4.69614880      -0.00328112      -0.00232518      -0.00001131
O        3.44661097       0.87734207       3.42259475      -0.00163579       0.00232434       0.00284433
O        1.97603605       2.95704785       5.96970398       0.00164378      -0.00232005      -0.00285459
O        1.97603656       2.95704827       3.42259443       0.00165367      -0.00232005       0.00284243
O        3.44660992       0.87734188       5.96970442      -0.00164390       0.00231898      -0.00284910
