9
Lattice="6.1229484310835085 3.1629028091521077e-08 3.5350860330568916 2.040982872946771 5.772771069322259 3.53508597630535 -2.0089735020964087e-08 -8.371157705485335e-08 7.070172100910156" Properties=species:S:1:pos:R:3:forces:R:3 energy=-34.7945442199707 free_energy=-34.7945442199707 stress="-0.0002894073841162026 4.227752370411508e-08 -6.37193497965427e-09 4.227752370411508e-08 -0.00028941952041350305 4.357004090849159e-09 -6.37193497965427e-09 4.357004090849159e-09 -0.00028947353712283075" pbc="T T T"
Co       2.04098210       1.44319236       3.53508641      -0.00000484      -0.00000258       0.00000301
Co       6.12294747       4.32957796      10.60525675      -0.00000521      -0.00000122      -0.00000508
Cr      -0.00000011      -0.00000012      -0.00000048      -0.00000007      -0.00000112       0.00000806
Te       2.13932288       1.51272959       7.07017206      -0.00748080      -0.00529078      -0.00000102
Te       6.02460807       4.26004140       7.07017254       0.00748441       0.00529227       0.00000225
Te       5.05328734       1.51272975       5.38779413       0.00374155      -0.00529038      -0.00647837
Te       3.11064494       4.26004192       8.75255052      -0.00373577       0.00528854       0.00647683
Te       3.11064456       4.26004134       5.38779396      -0.00374011       0.00529035      -0.00647961
Te       5.05328790       1.51272981       8.75255058       0.00374084      -0.00528513       0.00647396
