9
Lattice="6.120696130084355 -1.0156754835684085e-07 3.5337860277334183 2.0402318117937734 5.770648736893109 3.533786262961251 8.864696935798363e-08 3.5077685948685395e-07 7.067571901925701" Properties=species:S:1:pos:R:3:forces:R:3 energy=-34.950523376464844 free_energy=-34.950523376464844 stress="6.551597834913991e-06 -2.6046524226330803e-07 1.5348247117685787e-09 -2.6046524226330803e-07 6.668003152299207e-06 -2.6274545206206312e-08 1.5348247117685787e-09 -2.6274545206206312e-08 6.8909680521755945e-06" pbc="T T T"
Co       2.04023265       1.44266373       3.53378631       0.00000132       0.00000803       0.00000067
Co       6.12069546       4.32798604      10.60135938      -0.00000146      -0.00000357       0.00000701
Fe      -0.00000054      -0.00000078      -0.00000033       0.00001519       0.00001980      -0.00000094
Te       1.94666882       1.37650406       7.06757234       0.00203720       0.00144303      -0.00000005
Te       6.21425961       4.39414536       7.06757183      -0.00205519      -0.00145638      -0.00000236
Te       5.14736105       1.37650497       5.21965236      -0.00101083       0.00143231       0.00174952
Te       3.01356652       4.39414412       8.91549177       0.00101025      -0.00143638      -0.00175335
Te       3.01356785       4.39414384       5.21965165       0.00101412      -0.00143565       0.00175011
Te       5.14736074       1.37650446       8.91549151      -0.00101056       0.00142883      -0.00175068
