9
Lattice="5.759570069144567 -1.7832261035859528e-07 3.325289471262707 1.9198565627825679 5.430175099864498 3.3252893999163184 8.064291745416907e-08 -3.035799710419734e-08 6.650578802847791" Properties=species:S:1:pos:R:3:forces:R:3 energy=-37.744388580322266 free_energy=-37.744388580322266 stress="4.4164800783619285e-05 -2.167397781249747e-07 -1.7325801238143868e-08 -2.167397781249747e-07 4.4290714868111536e-05 -5.128797386788619e-09 -1.7325801238143868e-08 -5.128797386788619e-09 4.447973697097041e-05" pbc="T T T"
Co       1.91985695       1.35754386       3.32528893       0.00000261      -0.00000086      -0.00000506
Co       5.75956906       4.07263191       9.97586935      -0.00000538       0.00000712       0.00000847
Fe      -0.00000113       0.00000026       0.00000263       0.00003708      -0.00001196      -0.00008679
Se       1.86516416       1.31886899       6.65057943       0.00074846       0.00052275       0.00000300
Se       5.81426423       4.11130604       6.65057814      -0.00076407      -0.00053971      -0.00000382
Se       4.82698846       1.31886926       4.94056826      -0.00038373       0.00054297       0.00066614
Se       2.85243930       4.11130364       8.36058744       0.00035241      -0.00049907      -0.00060880
Se       2.85243859       4.11130526       4.94056876       0.00037773      -0.00053111       0.00065055
Se       4.82698729       1.31887037       8.36058763      -0.00036487       0.00050974      -0.00062355
