9
Lattice="4.364493330232433 -5.331293022320253e-08 2.5198415170580235 1.4548310690706596 4.114883895270021 2.5198415010242674 5.1691012958046257e-08 1.6913802776903213e-08 5.039682944584564" Properties=species:S:1:pos:R:3:forces:R:3 energy=-44.19532012939453 free_energy=-44.19532012939453 stress="-0.0003489792288746685 -7.649099131867843e-08 -2.2477788519381647e-09 -7.649099131867843e-08 -0.00034900117316283286 -6.163947574577833e-08 -2.2477788519381647e-09 -6.163947574577833e-08 -0.00034879951272159815" pbc="T T T"
Co       1.45483147       1.02872213       2.51984031       0.00000212       0.00001184      -0.00001364
Co       4.36449321       3.08616181       7.55952355       0.00000164      -0.00001194      -0.00001007
Fe      -0.00000008      -0.00000006       0.00000015      -0.00000236       0.00000176      -0.00000562
O        1.45849388       1.03131110       5.03968348      -0.00193785      -0.00136633       0.00000673
O        4.36083050       3.08357259       5.03968355       0.00193988       0.00137108       0.00000154
O        3.63524658       1.03131130       3.78293480       0.00097256      -0.00137088      -0.00167881
O        2.18407795       3.08357196       6.29643172      -0.00097604       0.00136683       0.00168756
O        2.18407795       3.08357227       3.78293462      -0.00097211       0.00136943      -0.00168090
O        3.63524637       1.03131221       6.29643176       0.00097175      -0.00137171       0.00169332
