9
Lattice="4.393850495215157 -9.417550992143186e-08 2.53679087187376 1.4646167200915756 4.1425620195186825 2.5367909114637044 -9.56387999584919e-08 -1.9139192688414876e-08 5.073581909398739" Properties=species:S:1:pos:R:3:forces:R:3 energy=-44.182334899902344 free_energy=-44.182334899902344 stress="-0.0001343434996670112 -4.693906419106497e-08 1.2481224054283757e-08 -4.693906419106497e-08 -0.00013470073463395238 -6.056151580224878e-09 1.2481224054283757e-08 -6.056151580224878e-09 -0.00013486175157595426" pbc="T T T"
Co       1.46461213       1.03564152       2.53679073      -0.00006405       0.00001341      -0.00000189
Co       4.39384753       3.10692211       7.61037355      -0.00003863       0.00001231       0.00000868
Ge      -0.00000031       0.00000011      -0.00000018       0.00000302       0.00000341       0.00000499
O        1.49646174       1.05815652       5.07358223      -0.00071514      -0.00052416       0.00000270
O        4.36200734       3.08440342       5.07358142       0.00073469       0.00049710      -0.00000709
O        3.64562171       1.05815772       3.83276491       0.00038779      -0.00051260      -0.00062454
O        2.21284848       3.08440455       6.31439988      -0.00034934       0.00051355       0.00063324
O        2.21284786       3.08440423       3.83276368      -0.00034875       0.00051236      -0.00063443
O        3.64562170       1.05815756       6.31439835       0.00038964      -0.00051564       0.00061852
