9
Lattice="5.8179731733523825 -8.661307139727487e-08 3.359008482256427 1.9393243180432442 5.485237829364816 3.3590084673861234 -2.7205609864593363e-08 -3.7449580607744214e-08 6.718017011634344" Properties=species:S:1:pos:R:3:forces:R:3 energy=-31.840457916259766 free_energy=-31.840457916259766 stress="-0.00016922941722441465 -1.1895850526855156e-08 4.219766314150775e-09 -1.1895850526855156e-08 -0.00016921960923355073 -7.240568589139684e-09 4.219766314150775e-09 -7.240568589139684e-09 -0.00016926736861933023" pbc="T T T"
Co       1.93932273       1.37130852       3.35900809      -0.00001476      -0.00000706      -0.00000279
Co       5.81797279       4.11392955      10.07702452      -0.00000268       0.00001320      -0.00000818
Ge      -0.00000007      -0.00000012       0.00000032       0.00000212       0.00000274      -0.00000370
Se       2.01140396       1.42227667       6.71801699      -0.00058845      -0.00042439       0.00000106
Se       5.74589424       4.06296069       6.71801722       0.00059077       0.00041546       0.00000347
Se       4.81227201       1.42227639       5.10093606       0.00030017      -0.00042316      -0.00050423
Se       2.94502663       4.06296087       8.33509865      -0.00029229       0.00042348       0.00051223
Se       2.94502621       4.06296122       5.10093566      -0.00029484       0.00042159      -0.00050846
Se       4.81227136       1.42227706       8.33509837       0.00029999      -0.00042171       0.00051071
