9
Lattice="4.132756235874847 -2.6034901343889964e-09 2.38604788087832 1.377585422811574 3.8963998611455657 2.38604785782839 1.919688551001755e-08 -1.4656038756460744e-08 4.7720957285066605" Properties=species:S:1:pos:R:3:forces:R:3 energy=-49.45611572265625 free_energy=-49.45611572265625 stress="0.00016614342166576535 5.62026443162722e-08 -1.5551384180412242e-08 5.62026443162722e-08 0.0001663213479332626 7.507478017032554e-08 -1.5551384180412242e-08 7.507478017032554e-08 0.00016618699009995908" pbc="T T T"
Co       1.37758540       0.97409990       2.38604786       0.00000003      -0.00000135       0.00000008
Co       4.13275626       2.92229992       7.15814373       0.00000100      -0.00000095       0.00000055
Ge       0.00000002      -0.00000001       0.00000007       0.00000179      -0.00000264       0.00000121
N        1.54265048       1.09081864       4.77209572       0.00152132       0.00107646      -0.00000051
N        3.96769110       2.80558130       4.77209563      -0.00152254      -0.00107549      -0.00000075
N        3.36143102       1.09081861       3.72202234      -0.00076105       0.00107813       0.00131859
N        2.14891068       2.80558130       5.82216899       0.00075991      -0.00107484      -0.00131960
N        2.14891071       2.80558125       3.72202242       0.00076053      -0.00107547       0.00131904
N        3.36143103       1.09081848       5.82216909      -0.00076093       0.00107598      -0.00131830
