9
Lattice="6.251900684732286 -2.4813187538876778e-08 3.6095365972453 2.083966877529104 5.89434862328886 3.60953658683137 -3.581905506877546e-08 -3.8082285693598175e-08 7.219073256531007" Properties=species:S:1:pos:R:3:forces:R:3 energy=-29.217159271240234 free_energy=-29.217159271240234 stress="-4.157553121331148e-05 8.53525516930631e-09 2.097556572877579e-10 8.53525516930631e-09 -4.1578001400921494e-05 2.3462076725877523e-09 2.097556572877579e-10 2.3462076725877523e-09 -4.1561976104276255e-05" pbc="T T T"
Co       2.08396658       1.47358695       3.60953688      -0.00000158      -0.00000085       0.00000110
Co       6.25190064       4.42076136      10.82861088       0.00000118      -0.00000007       0.00000262
Ge      -0.00000012      -0.00000003       0.00000018      -0.00000035      -0.00000080      -0.00000031
Te       2.28232328       1.61384666       7.21907321       0.00131842       0.00093241      -0.00000013
Te       6.05354427       4.28050254       7.21907270      -0.00131865      -0.00093284      -0.00000107
Te       5.11073918       1.61384642       5.58608659      -0.00065859       0.00093354       0.00114328
Te       3.22512863       4.28050197       8.85205869       0.00065882      -0.00093128      -0.00114292
Te       3.22512898       4.28050186       5.58608719       0.00065987      -0.00093277       0.00114153
Te       5.11073868       1.61384656       8.85205942      -0.00065910       0.00093264      -0.00114398
