9
Lattice="6.291948053260054 -8.930006698561842e-08 3.6326579570121407 2.0973159513108364 5.932105647964277 3.6326579262675183 -8.817379467396127e-08 -1.0000259584291873e-07 7.2653160667457675" Properties=species:S:1:pos:R:3:forces:R:3 energy=-26.815032958984375 free_energy=-26.815032958984375 stress="-6.056359052308835e-05 -2.0848400339446016e-08 7.553784264757724e-09 -2.0848400339446016e-08 -6.056120037101209e-05 8.571737097895493e-09 7.553784264757724e-09 8.571737097895493e-09 -6.057861901354045e-05" pbc="T T T"
Co       2.09731616       1.48302598       3.63265757       0.00000087      -0.00000125      -0.00000190
Co       6.29194711       4.44907928      10.89797377      -0.00000380       0.00000098       0.00000014
Mg       0.00000007      -0.00000009       0.00000009       0.00000012       0.00000011       0.00000009
Te       2.34865766       1.66075114       7.26531546       0.00370232       0.00261503      -0.00000107
Te       6.04060629       4.27135422       7.26531557      -0.00370144      -0.00261570      -0.00000185
Te       5.11761931       1.66075171       5.66665537      -0.00184939       0.00261633       0.00320488
Te       3.27164505       4.27135345       8.86397723       0.00185157      -0.00261807      -0.00320188
Te       3.27164516       4.27135428       5.66665545       0.00185143      -0.00261463       0.00320429
Te       5.11761887       1.66075189       8.86397727      -0.00185163       0.00261714      -0.00320273
