9
Lattice="5.445893189138012 1.0269682518092839e-07 3.1441879587652517 1.8152977018290435 5.134438024414241 3.1441881747643206 -1.789871279225714e-07 1.3798073895573922e-07 6.288376227545275" Properties=species:S:1:pos:R:3:forces:R:3 energy=-41.3272590637207 free_energy=-41.3272590637207 stress="-5.109141784487292e-05 2.8848903710354534e-08 -1.4901303302394808e-08 2.8848903710354534e-08 -5.1165021432098e-05 6.39395310031432e-08 -1.4901303302394808e-08 6.39395310031432e-08 -5.113660517963581e-05" pbc="T T T"
Co       1.81529646       1.28360904       3.14418796      -0.00001008      -0.00000812      -0.00000117
Co       5.44589379       3.85082888       9.43256363       0.00000747       0.00000258      -0.00000424
Mn       0.00000010       0.00000007      -0.00000011      -0.00000058      -0.00000340       0.00000027
S        1.81994219       1.28689393       6.28837620      -0.00154811      -0.00109333       0.00000004
S        5.44124818       3.84754461       6.28837629       0.00154799       0.00109789       0.00000163
S        4.53592253       1.28689366       4.72030501       0.00077873      -0.00109768      -0.00133622
S        2.72526872       3.84754470       7.85644789      -0.00077561       0.00109887       0.00133991
S        2.72526828       3.84754462       4.72030478      -0.00077665       0.00109640      -0.00133461
S        4.53592244       1.28689359       7.85644785       0.00077650      -0.00109318       0.00133377
