9
Lattice="5.800922166310143 -1.7346723474402117e-07 3.349163903300632 1.9336405964357144 5.469161594887265 3.349163837692646 4.8462482343140626e-08 -4.60849297256278e-08 6.698327722661718" Properties=species:S:1:pos:R:3:forces:R:3 energy=-38.256317138671875 free_energy=-38.256317138671875 stress="-4.635490768123418e-05 4.816455856371249e-08 -1.0119399540542418e-08 4.816455856371249e-08 -4.631145566236228e-05 -1.0796016303160627e-09 -1.0119399540542418e-08 -1.0796016303160627e-09 -4.633471689885482e-05" pbc="T T T"
Co       1.93364104       1.36728964       3.34916403       0.00000430      -0.00000690       0.00000019
Co       5.80092141       4.10187148      10.04749164      -0.00000835       0.00000509       0.00000327
Mn       0.00000006       0.00000028       0.00000021      -0.00000335      -0.00000801      -0.00000013
Se       1.91758596       1.35593717       6.69832761       0.00138405       0.00097287      -0.00000092
Se       5.81697672       4.11322424       6.69832761      -0.00137806      -0.00096841      -0.00000180
Se       4.84212918       1.35593757       5.00984167      -0.00069229       0.00097808       0.00119641
Se       2.89243387       4.11322370       8.38681383       0.00069290      -0.00097449      -0.00119403
Se       2.89243372       4.11322383       5.00984157       0.00069323      -0.00097390       0.00119424
Se       4.84212925       1.35593759       8.38681367      -0.00069220       0.00097607      -0.00119737
