9
Lattice="5.637152660921645 -7.903912576327434e-07 3.2546094243415475 1.8790498592401306 5.314757333012187 3.254609913725449 -2.8903991456805627e-06 -1.444450433690189e-06 6.5092238550013" Properties=species:S:1:pos:R:3:forces:R:3 energy=-29.60818099975586 free_energy=-29.60818099975586 stress="-4.4868884288007393e-05 2.7718572326307367e-08 1.372322799397807e-06 2.7718572326307367e-08 -4.357362922746688e-05 9.797611255635275e-07 1.372322799397807e-06 9.797611255635275e-07 -4.454915688256733e-05" pbc="T T T"
Co       1.87904887       1.32869394       3.25458827      -0.00002013       0.00008738      -0.00031173
Co       5.63715156       3.98604828       9.76386952       0.00002483      -0.00021426       0.00044948
Mg      -0.00000067       0.00000098      -0.00000160       0.00000304       0.00000600      -0.00000569
Se       2.18548315       1.54538674       6.50923578      -0.00654869      -0.00445616       0.00018462
Se       5.33070827       3.76937876       6.50918553       0.00648893       0.00454399      -0.00035589
Se       4.54442479       1.54539032       5.14730431       0.00344694      -0.00439784      -0.00562106
Se       2.97178244       3.76936236       7.87114500      -0.00340161       0.00440344       0.00564292
Se       2.97180592       3.76938325       5.14730181      -0.00311510       0.00462346      -0.00562845
Se       4.54439415       1.54537581       7.87114408       0.00312184      -0.00459607       0.00564574
