9
Lattice="5.491109851977256 2.8409644545526315e-08 3.1702937157026034 1.8303699772703157 5.177068054888961 3.170293716003357 3.999864673991351e-08 2.8651634654282345e-08 6.340587362125597" Properties=species:S:1:pos:R:3:forces:R:3 energy=-30.77667999267578 free_energy=-30.77667999267578 stress="-0.0002121871366398409 -4.943844889027105e-09 -2.236333607186225e-08 -4.943844889027105e-09 -0.00021224383090157062 -9.261669653426452e-09 -2.236333607186225e-08 -9.261669653426452e-09 -0.00021210570412222296" pbc="T T T"
Co       1.83037022       1.29426701       3.17029351       0.00000014       0.00000138      -0.00000173
Co       5.49110981       3.88280125       9.51088166      -0.00000003       0.00000022       0.00000315
Mg       0.00000009      -0.00000011       0.00000023       0.00000048      -0.00000092      -0.00000181
S        1.97340874       1.39541077       6.34058746      -0.00456829      -0.00323013       0.00000348
S        5.34807115       3.78165734       6.34058695       0.00456850       0.00323019      -0.00000481
S        4.50440555       1.39541079       4.87931564       0.00228309      -0.00322988      -0.00395524
S        2.81707424       3.78165724       7.80185911      -0.00228570       0.00322980       0.00395747
S        2.81707446       3.78165759       4.87931565      -0.00228200       0.00323118      -0.00395594
S        4.50440526       1.39541063       7.80185904       0.00228382      -0.00323167       0.00395538
