9
Lattice="6.048730162059013 -1.460545653657979e-07 3.4922360618589368 2.0162432698875663 5.702796941779956 3.492236026808947 3.052542756841317e-08 -2.134257487859441e-08 6.984472070846173" Properties=species:S:1:pos:R:3:forces:R:3 energy=-34.96914291381836 free_energy=-34.96914291381836 stress="-7.466488796126214e-07 1.2099101276419333e-08 -1.6537349267764512e-08 1.2099101276419333e-08 -7.403074278045096e-07 9.418916313563841e-09 -1.6537349267764512e-08 9.418916313563841e-09 -7.567264788121975e-07" pbc="T T T"
Co       2.01624250       1.42569838       3.49223624      -0.00000501      -0.00000600       0.00000102
Co       6.04872927       4.27709832      10.47670756      -0.00000532       0.00000603      -0.00000371
Mn      -0.00000018      -0.00000010      -0.00000001      -0.00000114      -0.00000063      -0.00000134
Te       2.04900564       1.44886458       6.98447210       0.00042856       0.00029844       0.00000010
Te       6.01596802       4.25393176       6.98447271      -0.00042492      -0.00029987       0.00000295
Te       5.02422784       1.44886510       5.26672694      -0.00021227       0.00030005       0.00037086
Te       3.04074641       4.25393218       8.70221736       0.00021502      -0.00029817      -0.00036848
Te       3.04074635       4.25393177       5.26672665       0.00021589      -0.00030084       0.00036991
Te       5.02422803       1.44886509       8.70221716      -0.00021066       0.00030102      -0.00037125
