9
Lattice="4.210550824024918 -1.6977203718654926e-07 2.4309620917550685 1.4035167807034707 3.9697452443683625 2.4309620927519022 -1.310604412629271e-07 -9.145279395222853e-08 4.861924410513425" Properties=species:S:1:pos:R:3:forces:R:3 energy=-38.19565963745117 free_energy=-38.19565963745117 stress="0.0005947588360868394 5.828867415402783e-07 4.5164711082179565e-07 5.828867415402783e-07 0.000596048659645021 3.43826116022683e-07 4.5164711082179565e-07 3.43826116022683e-07 0.000596998434048146" pbc="T T T"
Co       1.40352910       0.99243343       2.43096175       0.00018470      -0.00004228       0.00000278
Co       4.21054985       2.97730668       7.29288033      -0.00001866      -0.00002996      -0.00009698
Mg       0.00000022      -0.00000015      -0.00000014       0.00001000       0.00000245      -0.00000876
O        1.51156115       1.06883644       4.86192399      -0.00065003      -0.00044639      -0.00000464
O        4.10250188       2.90091448       4.86192753       0.00058347       0.00051998       0.00004946
O        3.45476465       1.06883519       3.74001116       0.00024448      -0.00046112      -0.00059174
O        2.15929980       2.90090784       5.98383816      -0.00029197       0.00044313       0.00059517
O        2.15929686       2.90090848       3.74001292      -0.00033369       0.00044109      -0.00055696
O        3.45476641       1.06883750       5.98383864       0.00027136      -0.00042677       0.00061211
