9
Lattice="4.580023533923212 -2.3103997098815673e-08 2.6442777799584607 1.5266745703797948 4.31808761403723 2.6442776399140167 5.424356914711865e-08 -1.331627352902211e-07 5.288555465964321" Properties=species:S:1:pos:R:3:forces:R:3 energy=-48.98313522338867 free_energy=-48.98313522338867 stress="-1.1824148714367766e-05 -8.544926544118425e-08 8.311534571703305e-08 -8.544926544118425e-08 -1.1702974006766453e-05 -2.881384375541529e-07 8.311534571703305e-08 -2.881384375541529e-07 -1.2074531696271151e-05" pbc="T T T"
Co       1.52667483       1.07952180       2.64427777       0.00000334       0.00000205       0.00000261
Co       4.58002341       3.23856557       7.93283299      -0.00000200      -0.00000158       0.00000283
Mn       0.00000003       0.00000006       0.00000012       0.00000088      -0.00000807      -0.00001636
O        1.52761550       1.08018740       5.28855519      -0.00114244      -0.00081429       0.00000580
O        4.57908271       3.23790018       5.28855538       0.00114733       0.00080636      -0.00000414
O        3.81621576       1.08018744       3.96723136       0.00056726      -0.00080395      -0.00097775
O        2.29048241       3.23789986       6.60987950      -0.00057572       0.00081295       0.00099567
O        2.29048217       3.23790004       3.96723180      -0.00057402       0.00082076      -0.00100091
O        3.81621580       1.08018747       6.60987940       0.00057510      -0.00081474       0.00099206
