9
Lattice="4.598696879921144 -2.791322337968447e-08 2.6550588499361396 1.5328989263041366 4.335693027358524 2.6550588626714617 -4.958363388165464e-08 -1.946339106322506e-08 5.3101177857536355" Properties=species:S:1:pos:R:3:forces:R:3 energy=-53.34406661987305 free_energy=-53.34406661987305 stress="0.00012694075121544302 -3.925536518067929e-08 -3.805827653025062e-09 -3.925536518067929e-08 0.00012712129682768136 3.447126317723814e-08 -3.805827653025062e-09 3.447126317723814e-08 0.00012705470726359636" pbc="T T T"
Co       1.53289917       1.08392145       2.65505932       0.00000212      -0.00002367       0.00000388
Co       4.59869720       3.25177008       7.96517587       0.00000425       0.00000397      -0.00000734
Nb      -0.00000002       0.00000011      -0.00000011      -0.00000025      -0.00000148       0.00000122
O        1.60319064       1.13362768       5.31011800      -0.00043023      -0.00030100      -0.00000038
O        4.52840470       3.20206586       5.31011803       0.00042510       0.00030673       0.00000364
O        3.79710073       1.13362689       4.04346273       0.00020808      -0.00030464      -0.00036895
O        2.33449475       3.20206647       6.57677237      -0.00020969       0.00031483       0.00036728
O        2.33449450       3.20206640       4.04346327      -0.00021261       0.00030810      -0.00036585
O        3.79710124       1.13362692       6.57677250       0.00021309      -0.00030249       0.00036609
