9
Lattice="4.212843855539282 -4.435752131260446e-08 2.43228661411396 1.4042812792721546 3.971907311613735 2.432286551910698 1.445654461733595e-09 -7.516087949195584e-08 4.86457322572397" Properties=species:S:1:pos:R:3:forces:R:3 energy=-40.64717483520508 free_energy=-40.64717483520508 stress="-8.872155376593582e-06 -1.1542733346914247e-07 5.2756497836981e-08 -1.1542733346914247e-07 -8.777099537837785e-06 -6.733453261631439e-08 5.2756497836981e-08 -6.733453261631439e-08 -8.937623533711303e-06" pbc="T T T"
Co       1.40428142       0.99297668       2.43228672       0.00000126      -0.00000110      -0.00000068
Co       4.21284396       2.97893127       7.29685972       0.00000029       0.00000793      -0.00000114
Ni       0.00000009      -0.00000002       0.00000014       0.00000222      -0.00000140      -0.00000156
O        1.43786180       1.01672113       4.86457325      -0.00414147      -0.00293450       0.00000172
O        4.17926342       2.95518583       4.86457332       0.00414470       0.00293256       0.00000136
O        3.49391303       1.01672126       3.67751144       0.00207100      -0.00293337      -0.00358788
O        2.12321194       2.95518581       6.05163490      -0.00207532       0.00293467       0.00359049
O        2.12321190       2.95518553       3.67751115      -0.00207476       0.00293114      -0.00359299
O        3.49391300       1.01672120       6.05163486       0.00207202      -0.00293623       0.00359100
