9
Lattice="6.016205503369415 1.479958545588228e-09 3.473457999766454 2.0054018438329333 5.67213299561702 3.4734579859426877 1.2492445218132295e-08 -8.09707542508648e-09 6.946915977895362" Properties=species:S:1:pos:R:3:forces:R:3 energy=-31.71278190612793 free_energy=-31.71278190612793 stress="0.00014886674762237817 2.8190245693338056e-09 2.2296438029201227e-09 2.8190245693338056e-09 0.00014888272562529892 1.0956770601922017e-08 2.2296438029201227e-09 1.0956770601922017e-08 0.00014886213466525078" pbc="T T T"
Co       2.00540175       1.41803445       3.47345768      -0.00000054       0.00000793      -0.00000254
Co       6.01620508       4.25410066      10.42037211      -0.00000360       0.00000640      -0.00001471
Ni      -0.00000003      -0.00000023      -0.00000037       0.00000162       0.00000124       0.00000405
Te       2.06420314       1.45961112       6.94691600      -0.00033756      -0.00024518       0.00000094
Te       5.95740507       4.21252096       6.94691667       0.00034166       0.00023737       0.00000589
Te       4.98410406       1.45961113       5.26111033       0.00016983      -0.00024500      -0.00029168
Te       3.03750345       4.21252108       8.63272294      -0.00016715       0.00023653       0.00029800
Te       3.03750249       4.21252103       5.26110997      -0.00017358       0.00023778      -0.00029400
Te       4.98410442       1.45961180       8.63272255       0.00016920      -0.00023701       0.00029396
