9
Lattice="4.141010387877937 3.7268244063307486e-08 2.3908135236922146 1.3803368207776137 3.9041823203429376 2.390813541564443 -1.8566075243060117e-08 8.760720316017046e-09 4.781627079541813" Properties=species:S:1:pos:R:3:forces:R:3 energy=-49.953521728515625 free_energy=-49.953521728515625 stress="0.0001444653607904911 -1.2726522413686325e-07 1.4801302938849403e-07 -1.2726522413686325e-07 0.00014403268869500607 -4.313362111929564e-08 1.4801302938849403e-07 -4.313362111929564e-08 0.00014392223965842277" pbc="T T T"
Co       1.38033984       0.97604714       2.39081223       0.00006381       0.00003230      -0.00003166
Co       4.14100741       2.92813409       7.17244367      -0.00006359      -0.00005177       0.00006160
Ni      -0.00000000      -0.00000001      -0.00000003      -0.00000090      -0.00000361       0.00000642
N        1.49403016       1.05643903       4.78162841      -0.00045762      -0.00032142       0.00002709
N        4.02731680       2.84774345       4.78162509       0.00045491       0.00032822      -0.00003808
N        3.39399479       1.05644144       3.68467954       0.00022187      -0.00027391      -0.00043863
N        2.12735227       2.84774235       5.87857367      -0.00022423       0.00029319       0.00042220
N        2.12735403       2.84774230       3.68467980      -0.00018581       0.00030601      -0.00043695
N        3.39399347       1.05643965       5.87857419       0.00019147      -0.00030896       0.00042861
