9
Lattice="5.697353580517808 2.0294387430144077e-08 3.2893685494514115 1.8991179053121816 5.371516355912716 3.289368504407889 7.986835883668326e-08 1.3086940108989305e-09 6.578736960566689" Properties=species:S:1:pos:R:3:forces:R:3 energy=-34.2249755859375 free_energy=-34.2249755859375 stress="-1.4849460967525374e-05 1.960312090432126e-08 1.1012953216038568e-08 1.960312090432126e-08 -1.4857444512017537e-05 -6.296749788248235e-09 1.1012953216038568e-08 -6.296749788248235e-09 -1.4853067114017904e-05" pbc="T T T"
Co       1.89911820       1.34287711       3.28936911       0.00000151      -0.00001938       0.00000545
Co       5.69735325       4.02863680       9.86810452      -0.00000189      -0.00000339      -0.00000848
Ni       0.00000014      -0.00000042       0.00000007       0.00000179       0.00001329       0.00000292
Se       1.89103831       1.33716628       6.57873667      -0.00106958      -0.00075544      -0.00000157
Se       5.70543298       4.03435118       6.57873799       0.00105706       0.00075832       0.00000626
Se       4.75183414       1.33716582       4.92705526       0.00052914      -0.00075401      -0.00092635
Se       2.84463746       4.03435142       8.23041831      -0.00052561       0.00075622       0.00091514
Se       2.84463717       4.03435112       4.92705563      -0.00052883       0.00075653      -0.00091574
Se       4.75183468       1.33716617       8.23041841       0.00053632      -0.00075212       0.00092253
