9
Lattice="5.714159415464799 0.26230484815190624 2.773310867025034 0.03658899946174904 4.6871009613565455 4.027836418611901 -0.06614006023181833 -0.7419619181752233 6.251937856963276" Properties=species:S:1:pos:R:3:forces:R:3 energy=-42.615455627441406 free_energy=-42.615455627441406 stress="3.5625700547825545e-05 -1.4408838069357444e-05 4.3125601223437116e-05 -1.4408838069357444e-05 -8.919604624679778e-06 1.4799646123719867e-05 4.3125601223437116e-05 1.4799646123719867e-05 6.594118167413399e-05" pbc="T T T"
Co      -0.23689715       0.90213495       3.46780731       0.00098911       0.00337808      -0.00260104
Co       4.46359572       3.26067067       9.58777112      -0.00113243      -0.00154717       0.00080158
Ni       0.21870784       0.04093870      -0.00277179       0.00067855      -0.00142978      -0.00042879
Se       1.56616796       0.72950653       4.96789361      -0.00117925       0.00317404      -0.00196457
Se       4.62890428       3.08076626       7.22606580       0.00067398      -0.00253141       0.00099440
Se       5.05062747       2.00103837       4.14014778      -0.00105953       0.00140247       0.00066239
Se       2.13868127       3.05885201       9.15616064      -0.00196118      -0.00110751       0.00059953
Se       0.87037493       3.88688368       6.24752807       0.00043482      -0.00162598       0.00026719
Se       4.03809340      -0.13125408       7.42379773       0.00255609       0.00028705       0.00166938
