9
Lattice="5.442703532842752 2.5629536902715348e-08 3.1423463699800447 1.8142345494146248 5.131430060507981 3.1423463452060147 -4.368636628119785e-08 -6.123278512322513e-08 6.284692815627076" Properties=species:S:1:pos:R:3:forces:R:3 energy=-43.70261001586914 free_energy=-43.70261001586914 stress="-0.0003259785007685423 5.7687508103754226e-08 3.033502116167597e-09 5.7687508103754226e-08 -0.0003259750083088875 -1.4881471166461324e-08 3.033502116167597e-09 -1.4881471166461324e-08 -0.00032598894904367626" pbc="T T T"
Co       1.81423463       1.28285791       3.14234652       0.00000202       0.00000223       0.00000228
Co       5.44270348       3.84857212       9.42703889      -0.00000133      -0.00000267      -0.00000117
Nb       0.00000031       0.00000016      -0.00000018      -0.00000294      -0.00000092       0.00000303
S        1.92912931       1.36410066       6.28469284      -0.00781499      -0.00552386       0.00000014
S        5.32780866       3.76732940       6.28469303       0.00781566       0.00552469       0.00000124
S        4.47813868       1.36410027       4.81302101       0.00390504      -0.00552341      -0.00676833
S        2.77879895       3.76732986       7.75636457      -0.00390365       0.00552283       0.00676432
S        2.77879922       3.76732939       4.81302107      -0.00390561       0.00552344      -0.00676812
S        4.47813886       1.36410028       7.75636440       0.00390583      -0.00552231       0.00676657
