9
Lattice="4.213000462284793 1.45212416408193e-07 2.4323769280585252 1.404333568861853 3.97205519159206 2.4323770241422236 -1.9348412997219848e-08 1.0399663829737953e-07 4.8647538896293545" Properties=species:S:1:pos:R:3:forces:R:3 energy=-40.647186279296875 free_energy=-40.647186279296875 stress="-1.4709813740410027e-06 -2.517278119285038e-08 7.127611389989852e-09 -2.517278119285038e-08 -1.3045769264863338e-06 4.6274980292082546e-08 7.127611389989852e-09 4.6274980292082546e-08 -1.4655973927801824e-06" pbc="T T T"
Co       1.40433470       0.99301505       2.43237819       0.00001411       0.00001327       0.00001177
Co       4.21300315       2.97904427       7.29713062       0.00002580       0.00002560      -0.00000076
Ni      -0.00000002       0.00000007       0.00000013       0.00000574       0.00000127       0.00000158
O        1.43776493       1.01665289       4.86475349       0.00016155       0.00011129      -0.00000508
O        4.17956917       2.95540254       4.86475439      -0.00016915      -0.00011825       0.00000313
O        3.49411673       1.01665231       3.67751800      -0.00009197       0.00010336       0.00014120
O        2.12321470       2.95540146       6.05198966       0.00006938      -0.00011807      -0.00014259
O        2.12321498       2.95540091       3.67751762       0.00006744      -0.00012450       0.00014123
O        3.49411789       1.01665234       6.05198929      -0.00008307       0.00010597      -0.00015062
