9
Lattice="6.309432043174727 -3.86684617855297e-08 3.6427522897007094 2.1031439788634434 5.948589432263067 3.6427522880919114 3.43134069490359e-08 2.2292878220767733e-08 7.285504519968827" Properties=species:S:1:pos:R:3:forces:R:3 energy=-35.930938720703125 free_energy=-35.930938720703125 stress="-4.1502084059175104e-05 -2.28811476432611e-08 -3.8945993097172504e-09 -2.28811476432611e-08 -4.149291999056004e-05 -1.071601141156009e-09 -3.8945993097172504e-09 -1.071601141156009e-09 -4.1464893001830205e-05" pbc="T T T"
Co       2.10314418       1.48714705       3.64275230       0.00000006      -0.00000144       0.00000097
Co       6.30943216       4.46144223      10.92825713       0.00000012       0.00000077       0.00000154
Nb      -0.00000008      -0.00000028       0.00000018       0.00000128       0.00000253      -0.00000191
Te       2.22601476       1.57403006       7.28550452      -0.00089769      -0.00063495      -0.00000084
Te       6.18656143       4.37455957       7.28550441       0.00089422       0.00063262      -0.00000116
Te       5.19642458       1.57403008       5.57053765       0.00044921      -0.00063475      -0.00077851
Te       3.21615132       4.37455929       9.00047134      -0.00044937       0.00063645       0.00077776
Te       3.21615138       4.37455950       5.57053745      -0.00044771       0.00063475      -0.00077702
Te       5.19642449       1.57403016       9.00047143       0.00044994      -0.00063597       0.00077920
