9
Lattice="5.355386458246815 -4.253480932655986e-09 3.091933786410015 1.7851288080955534 5.04910703903838 3.091933799070963 -2.2995682119248748e-09 1.3880420974511632e-08 6.1838675768029585" Properties=species:S:1:pos:R:3:forces:R:3 energy=-36.998931884765625 free_energy=-36.998931884765625 stress="-8.768918632995337e-05 2.2472970151454774e-09 -5.155727844652347e-09 2.2472970151454774e-09 -8.77160273375921e-05 -1.3269621845779511e-08 -5.155727844652347e-09 -1.3269621845779511e-08 -8.775394962867722e-05" pbc="T T T"
Co       1.78512948       1.26227525       3.09193399       0.00000725      -0.00001734       0.00000327
Co       5.35538523       3.78682956       9.27579867      -0.00001138      -0.00000912      -0.00002753
Ni       0.00000021       0.00000004       0.00000003      -0.00000560      -0.00000467       0.00001104
S        1.76433914       1.24757622       6.18386736      -0.00736213      -0.00520703      -0.00000240
S        5.37617535       3.80153145       6.18386903       0.00736454       0.00521851       0.00001418
S        4.47321660       1.24757611       4.61989642       0.00367989      -0.00521162      -0.00638166
S        2.66729963       3.80153124       7.74783910      -0.00366823       0.00521353       0.00637949
S        2.66729816       3.80153093       4.61989674      -0.00368628       0.00521311      -0.00637871
S        4.47321721       1.24757740       7.74783934       0.00368208      -0.00519526       0.00638217
