9
Lattice="5.885294285726333 1.3913866874454098e-07 3.397876153156555 1.9617648441661817 5.5487086216435655 3.397876237895109 5.161826984247177e-08 1.402827846653683e-07 6.795752216907609" Properties=species:S:1:pos:R:3:forces:R:3 energy=-39.33002471923828 free_energy=-39.33002471923828 stress="-3.053147520404309e-05 4.912803674983479e-08 -2.3692917849871264e-08 4.912803674983479e-08 -3.054376793443225e-05 1.8881696206562992e-08 -2.3692917849871264e-08 1.8881696206562992e-08 -3.055719207623042e-05" pbc="T T T"
Co       1.96176426       1.38717805       3.39787678      -0.00000422       0.00000527       0.00000299
Co       5.88529475       4.16153101      10.19362987       0.00000381      -0.00000520       0.00001229
Nb       0.00000016      -0.00000006      -0.00000000      -0.00000163       0.00000266      -0.00000141
Se       2.03458784       1.43867150       6.79575230      -0.00033245      -0.00023135      -0.00000042
Se       5.81247125       4.11003718       6.79575187       0.00033231       0.00023173      -0.00000571
Se       4.86800047       1.43867105       5.15988067       0.00016473      -0.00022984      -0.00028718
Se       2.97905826       4.11003797       8.43162330      -0.00016820       0.00023262       0.00028158
Se       2.97905879       4.11003776       5.15988032      -0.00016109       0.00022785      -0.00028408
Se       4.86800090       1.43867115       8.43162330       0.00016667      -0.00023377       0.00028195
