9
Lattice="6.016480665191935 1.1197554056551429e-08 3.47361678722535 2.0054935377864584 5.672392620512438 3.4736168354363106 1.8459043401337545e-08 7.20987225635004e-08 6.947233542478657" Properties=species:S:1:pos:R:3:forces:R:3 energy=-31.712770462036133 free_energy=-31.712770462036133 stress="0.00023474899353459477 2.8092001613799766e-08 2.1562771568284234e-09 2.8092001613799766e-08 0.00023473420878872275 2.9465017092888957e-08 2.1562771568284234e-09 2.9465017092888957e-08 0.00023472486645914614" pbc="T T T"
Co       2.00549343       1.41809879       3.47361632      -0.00000113       0.00000606      -0.00000168
Co       6.01648045       4.25429450      10.42085051      -0.00000036      -0.00000195       0.00000120
Ni      -0.00000042       0.00000004       0.00000030       0.00000567      -0.00000317      -0.00000244
Te       2.06469468       1.45996024       6.94723357      -0.00334635      -0.00236292       0.00000128
Te       5.95727978       4.21243259       6.94723318       0.00334440       0.00236034      -0.00000159
Te       4.98413342       1.45995988       5.26169528       0.00167244      -0.00236294      -0.00289427
Te       3.03784127       4.21243238       8.63277221      -0.00167372       0.00236306       0.00289996
Te       3.03784114       4.21243282       5.26169502      -0.00167141       0.00236345      -0.00289596
Te       4.98413315       1.45995955       8.63277228       0.00167041      -0.00236195       0.00289337
