9
Lattice="4.424582709826554 1.6418163010788097e-08 2.5545340178240012 1.474860878257879 4.171536709321386 2.5545340879665557 -7.20118926009254e-08 3.498663924323143e-08 5.109068160376311" Properties=species:S:1:pos:R:3:forces:R:3 energy=-40.87088394165039 free_energy=-40.87088394165039 stress="4.542988244793378e-05 -5.278602799307919e-08 -2.6476865144786643e-08 -5.278602799307919e-08 4.5377160859061405e-05 3.2560198093278814e-08 -2.6476865144786643e-08 3.2560198093278814e-08 4.545279443846084e-05" pbc="T T T"
Co       1.47486090       1.04288448       2.55453466      -0.00000033       0.00000370       0.00001029
Co       4.42458227       3.12865254       7.66360251      -0.00000309       0.00000088       0.00000042
Pd      -0.00000017       0.00000010      -0.00000001       0.00000444      -0.00000791      -0.00000823
O        1.56853336       1.10912091       5.10906813       0.00007223       0.00005290      -0.00000336
O        4.33091019       3.06241560       5.10906822      -0.00007042      -0.00005246       0.00000177
O        3.64031555       1.10912065       3.91292407      -0.00004016       0.00004986       0.00006314
O        2.25912780       3.06241641       6.30521195       0.00003442      -0.00004457      -0.00006017
O        2.25912829       3.06241549       3.91292339       0.00003996      -0.00005338       0.00005866
O        3.64031584       1.10912085       6.30521209      -0.00003706       0.00005101      -0.00006264
