9
Lattice="5.5035112392730365 1.2856724116836597e-07 3.177453690973897 1.8345038424266782 5.1887602588325885 3.1774537346424196 1.1202552459923811e-07 1.3269680486703562e-07 6.354907187913914" Properties=species:S:1:pos:R:3:forces:R:3 energy=-35.84632110595703 free_energy=-35.84632110595703 stress="0.0003915298730134964 5.3175103431613024e-08 -9.230602415755129e-08 5.3175103431613024e-08 0.00039153717807494104 -9.974107939569876e-08 -9.230602415755129e-08 -9.974107939569876e-08 0.000391577574191615" pbc="T T T"
Co       1.83449997       1.29718939       3.17745355      -0.00004298      -0.00000942       0.00000507
Co       5.50351150       3.89157077       9.53235331       0.00000502       0.00000444      -0.00007898
P       -0.00000003       0.00000004      -0.00000005      -0.00000008       0.00000032       0.00000016
S        1.78156546       1.25975726       6.35490748      -0.00703573      -0.00497389      -0.00000200
S        5.55645008       3.92900328       6.35491059       0.00703859       0.00497109       0.00003487
S        4.61272790       1.25975338       4.72033706       0.00351369      -0.00500262      -0.00606680
S        2.72528740       3.92900351       7.98948067      -0.00350571       0.00497663       0.00609535
S        2.72528584       3.92900450       4.72033593      -0.00352734       0.00498384      -0.00607747
S        4.61273271       1.25975999       7.98947997       0.00355411      -0.00495017       0.00608975
