9
Lattice="4.11320435687589 1.5465853779840272e-08 2.3747597592996903 1.3710681464017946 3.8779663525950308 2.3747597370223574 -3.3582816986204156e-09 -2.9658715836261854e-08 4.749519524416104" Properties=species:S:1:pos:R:3:forces:R:3 energy=-53.29045104980469 free_energy=-53.29045104980469 stress="5.07702243339736e-05 1.1495496465840915e-07 2.340240445874997e-09 1.1495496465840915e-07 5.056549343862571e-05 2.055191039573856e-08 2.340240445874997e-09 2.055191039573856e-08 5.064445940661244e-05" pbc="T T T"
Co       1.37106817       0.96949172       2.37476002      -0.00000128       0.00000246       0.00000050
Co       4.11320466       2.90847486       7.12427920       0.00000057      -0.00000143      -0.00000354
P       -0.00000015       0.00000010      -0.00000002      -0.00000043      -0.00000504       0.00000426
N        1.41315011       0.99924830       4.74951964       0.00246346       0.00174087       0.00000030
N        4.07112231       2.87871787       4.74951972      -0.00245655      -0.00173831       0.00000074
N        3.40662939       0.99924793       3.59858387      -0.00123340       0.00173944       0.00213408
N        2.07764295       2.87871833       5.90045495       0.00122935      -0.00174063      -0.00213087
N        2.07764311       2.87871804       3.59858363       0.00123209      -0.00174153       0.00213075
N        3.40662957       0.99924822       5.90045525      -0.00123382       0.00174320      -0.00213516
