9
Lattice="5.465277328309216 4.3589617364816085e-07 3.155379984864103 1.8217595768296726 5.152712746579263 3.1553798871307213 8.38923723472424e-07 4.735101644352163e-07 6.310758516669799" Properties=species:S:1:pos:R:3:forces:R:3 energy=-33.42398452758789 free_energy=-33.42398452758789 stress="8.220248128054664e-05 -2.749858367678826e-07 -7.837184057279956e-07 -2.749858367678826e-07 8.225447527365759e-05 -5.551463004849211e-07 -7.837184057279956e-07 -5.551463004849211e-07 8.150940993800759e-05" pbc="T T T"
Co       1.82174781       1.28817366       3.15535622      -0.00015266      -0.00006287      -0.00030686
Co       5.46528426       3.86454103       9.46615455       0.00008177       0.00007482       0.00021085
P        0.00000034      -0.00000009       0.00000037       0.00000190      -0.00000130       0.00000161
Se       2.10786231       1.49048301       6.31076948       0.00195220       0.00137241       0.00013989
Se       5.17917628       3.66222989       6.31075204      -0.00193605      -0.00138623      -0.00009541
Se       4.41135579       1.49048373       4.98084597      -0.00085807       0.00138247       0.00174758
Se       2.87568468       3.66222845       7.64067554       0.00089467      -0.00139791      -0.00171220
Se       2.87569403       3.66223688       4.98084497       0.00101879      -0.00128540       0.00173634
Se       4.41134552       1.49047807       7.64067439      -0.00100258       0.00130399      -0.00172174
