9
Lattice="3.938630144636533 -3.971232417659216e-08 2.273969188869808 1.3128767049926573 3.713376002881931 2.2739691411432403 9.070222452264407e-08 5.683284506245077e-09 4.547938220638756" Properties=species:S:1:pos:R:3:forces:R:3 energy=-52.35858917236328 free_energy=-52.35858917236328 stress="-3.924570410163142e-05 -3.198676381543919e-07 2.6597581381793134e-07 -3.198676381543919e-07 -3.903796095983125e-05 3.1853182314023343e-09 2.6597581381793134e-07 3.1853182314023343e-09 -3.9164937334135175e-05" pbc="T T T"
Co       1.31287692       0.92834366       2.27396794      -0.00003915       0.00006793       0.00026653
Co       3.93863042       2.78503176       6.82190602      -0.00004146       0.00006580       0.00027886
P       -0.00000253       0.00000372       0.00001535       0.00050879      -0.00078838      -0.00313241
O        1.39246905       0.98462457       4.54793897      -0.00122666      -0.00093126      -0.00016283
O        3.85903723       2.72875153       4.54793922       0.00134373       0.00089651      -0.00018654
O        3.24239884       0.98461986       3.47987812      -0.00001752       0.00001889      -0.00012541
O        2.00911480       2.72874687       5.61598861      -0.00130904       0.00182956       0.00212163
O        2.00910942       2.72875463       3.47988069      -0.00024095       0.00033045      -0.00065428
O        3.24239363       0.98462734       5.61599132       0.00102136      -0.00148886       0.00159341
