9
Lattice="5.8048962150194106 1.0245946897667087e-07 3.3514581822465064 1.9349654296810868 5.472908712866867 3.3514583068243975 -3.889153925066186e-08 1.2507567722138307e-07 6.702916431855133" Properties=species:S:1:pos:R:3:forces:R:3 energy=-33.51896286010742 free_energy=-33.51896286010742 stress="-0.00032735441345721483 -3.9161935916354196e-09 6.8672765252131285e-09 -3.9161935916354196e-09 -0.0003273210022598505 1.3908092455494625e-08 6.8672765252131285e-09 1.3908092455494625e-08 -0.00032735735294409096" pbc="T T T"
Co       1.93496591       1.36822734       3.35145827       0.00000277       0.00000022       0.00000056
Co       5.80489609       4.10468062      10.05437438       0.00000077      -0.00000918      -0.00000130
Pd      -0.00000011       0.00000014      -0.00000035       0.00000139       0.00000199       0.00000205
Se       2.04237405       1.44417711       6.70291680      -0.00726238      -0.00513324      -0.00000145
Se       5.69748719       4.02873275       6.70291712       0.00725928       0.00513527       0.00000183
Se       4.78370946       1.44417736       5.12020596       0.00363089      -0.00513111      -0.00629279
Se       2.95615200       4.02873182       8.28562641      -0.00363247       0.00513381       0.00628951
Se       2.95615228       4.02873160       5.12020638      -0.00363207       0.00513390      -0.00628990
Se       4.78370950       1.44417706       8.28562677       0.00363174      -0.00513159       0.00629160
