9
Lattice="5.43656300845713 2.3264554111109855e-08 3.1388010425312083 1.8121877050048478 5.125640726753137 3.1388010190010633 1.2832859007918477e-08 -1.9744194047062395e-08 6.277602062835243" Properties=species:S:1:pos:R:3:forces:R:3 energy=-35.88011932373047 free_energy=-35.88011932373047 stress="-0.00018756893405225128 3.088248234917046e-08 2.642475038783232e-08 3.088248234917046e-08 -0.00018758686201181263 5.66334801277435e-09 2.642475038783232e-08 5.66334801277435e-09 -0.00018751254538074136" pbc="T T T"
Co       1.81218748       1.28141024       3.13880092      -0.00000336       0.00000138      -0.00000118
Co       5.43656347       3.84423073       9.41640375       0.00000474       0.00000055       0.00000510
Pd      -0.00000001       0.00000003      -0.00000021       0.00000040      -0.00000171       0.00000065
S        1.91117152       1.35140221       6.27760218      -0.00314635      -0.00222313       0.00000177
S        5.33757927       3.77423840       6.27760169       0.00314748       0.00222319      -0.00000342
S        4.48097752       1.35140235       4.79392391       0.00157514      -0.00222266      -0.00272435
S        2.76777308       3.77423852       7.76128010      -0.00157589       0.00222409       0.00272197
S        2.76777323       3.77423842       4.79392412      -0.00157490       0.00222456      -0.00272316
S        4.48097740       1.35140198       7.76128009       0.00157297      -0.00222605       0.00272214
