9
Lattice="5.456558718092495 -1.4414520836467853e-07 3.150345618371437 1.8188527984698961 5.144492743499928 3.150345569284317 1.035085830796084e-08 -5.2800033519993874e-08 6.300691218814674" Properties=species:S:1:pos:R:3:forces:R:3 energy=-36.007972717285156 free_energy=-36.007972717285156 stress="8.192728273570538e-05 1.9009082308230063e-08 -3.6769819189430564e-08 1.9009082308230063e-08 8.185001934180036e-05 -2.824811318191678e-08 -3.6769819189430564e-08 -2.824811318191678e-08 8.191255619749427e-05" pbc="T T T"
Co       1.81885272       1.28612068       3.15034591       0.00000043      -0.00002184       0.00000252
Co       5.45655887       3.85836910       9.45103369      -0.00000027      -0.00000515      -0.00002927
Si       0.00000007      -0.00000014      -0.00000020      -0.00000015      -0.00000123       0.00000214
S        1.83610568       1.29832341       6.30069111       0.00068480       0.00048694      -0.00000280
S        5.43930525       3.84616991       6.30069291      -0.00068974      -0.00047985       0.00001740
S        4.53850546       1.29832280       4.74045966      -0.00034592       0.00048420       0.00059479
S        2.73690742       3.84617106       7.86092268       0.00035906      -0.00047475      -0.00059712
S        2.73690495       3.84617058       4.74046068       0.00033590      -0.00047800       0.00060502
S        4.53850571       1.29832270       7.86092311      -0.00034407       0.00048983      -0.00059301
