9
Lattice="4.269712065465586 -2.1317321965103447e-07 2.4651199893186098 1.423237090112216 4.025523308311676 2.4651201002761343 -1.1097976040913787e-07 5.742010993743734e-08 4.930240170859792" Properties=species:S:1:pos:R:3:forces:R:3 energy=-46.110557556152344 free_energy=-46.110557556152344 stress="-0.00031433795811608434 1.189216547459182e-07 3.1194363714348583e-07 1.189216547459182e-07 -0.0003145474474877119 1.0753421264553253e-07 3.1194363714348583e-07 1.0753421264553253e-07 -0.0003143368230666965" pbc="T T T"
Co       1.42323607       1.00638151       2.46511928      -0.00000436       0.00000804      -0.00000680
Co       4.26971488       3.01914328       7.39536246       0.00003755       0.00001172       0.00002964
S        0.00000016      -0.00000005       0.00000032      -0.00001099       0.00000530      -0.00001002
O        1.32780992       0.93890414       4.93023987       0.00696969       0.00493491      -0.00000657
O        4.36513865       3.08661898       4.93023917      -0.00697136      -0.00493622      -0.00000790
O        3.60580714       0.93890375       3.61503865      -0.00348306       0.00492609       0.00603747
O        2.08714186       3.08661898       6.24544180       0.00347638      -0.00493288      -0.00603962
O        2.08714171       3.08661927       3.61503862       0.00347948      -0.00493264       0.00604129
O        3.60580512       0.93890263       6.24544151      -0.00349140       0.00491548      -0.00603795
