9
Lattice="4.45395532928956 1.9120585100308986e-07 2.571492262698431 1.4846519636050264 4.199229372322338 2.571492250739368 1.768740149415154e-07 1.1042201197347379e-07 5.142984219042099" Properties=species:S:1:pos:R:3:forces:R:3 energy=-42.757591247558594 free_energy=-42.757591247558594 stress="0.0008842092356644571 -2.6435003519509337e-08 -2.956220725991443e-07 -2.6435003519509337e-08 0.0008838128997012973 -2.236487119944286e-07 -2.956220725991443e-07 -2.236487119944286e-07 0.0008844803087413311" pbc="T T T"
Co       1.48464241       1.04979881       2.57147818      -0.00014033      -0.00012187      -0.00024708
Co       4.45395172       3.14942371       7.71444322      -0.00006535       0.00001275      -0.00050037
Se      -0.00000116      -0.00000029      -0.00000584      -0.00002731      -0.00001526      -0.00008466
O        1.48529770       1.05026347       5.14299205      -0.00149179      -0.00107038       0.00013389
O        4.45331185       3.14896708       5.14299839       0.00152779       0.00108218       0.00021709
O        3.71131068       1.05025671       3.85780685       0.00081730      -0.00114477      -0.00116491
O        2.22730795       3.14896827       6.42817830      -0.00064540       0.00109088       0.00141108
O        2.22729882       3.14897140       3.85780463      -0.00076985       0.00114858      -0.00118208
O        3.71130997       1.05026948       6.42817935       0.00079679      -0.00098264       0.00141811
