9
Lattice="5.558380506130961 -8.728954670311223e-08 3.209132225481808 1.852793438323017 5.240491398535929 3.2091321933059476 -2.895772840134244e-09 -4.1454829145448386e-08 6.418264455979246" Properties=species:S:1:pos:R:3:forces:R:3 energy=-33.23112487792969 free_energy=-33.23112487792969 stress="5.268776658340357e-05 9.168557113525821e-08 4.121524099787166e-08 9.168557113525821e-08 5.262706690700725e-05 3.892370159519487e-08 4.121524099787166e-08 3.892370159519487e-08 5.290972694638185e-05" pbc="T T T"
Co       1.85280400       1.31013163       3.20912420       0.00012498       0.00010288      -0.00007904
Co       5.55836633       3.93035741       9.62738186      -0.00016628      -0.00012851      -0.00015577
Si       0.00000025      -0.00000008       0.00000104       0.00000131       0.00000373       0.00000950
Se       2.13766385       1.51155693       6.41826742      -0.00065863      -0.00046043       0.00003424
Se       5.27351008       3.72893437       6.41827125       0.00066254       0.00046146       0.00007385
Se       4.48954679       1.51155920       5.06040053       0.00030474      -0.00043227      -0.00060827
Se       2.92163147       3.72892856       7.77613445      -0.00025632       0.00039576       0.00066838
Se       2.92162698       3.72893189       5.06040064      -0.00030982       0.00042666      -0.00060898
Se       4.48954611       1.51156517       7.77613407       0.00029746      -0.00036931       0.00066616
