9
Lattice="6.326412186086481 -2.311969438444858e-07 3.652555882398356 2.108803831847902 5.96459878753009 3.6525559035403568 -2.785340638193472e-08 6.198232894277338e-09 7.305111813040124" Properties=species:S:1:pos:R:3:forces:R:3 energy=-33.007057189941406 free_energy=-33.007057189941406 stress="9.448305718251504e-06 -2.7312243133792435e-08 6.174242006551367e-09 -2.7312243133792435e-08 9.466774827160407e-06 -2.0797254196569526e-10 6.174242006551367e-09 -2.0797254196569526e-10 9.509691153652966e-06" pbc="T T T"
Co       2.10880400       1.49114903       3.65255610      -0.00000146      -0.00000289       0.00000127
Co       6.32641214       4.47344927      10.95766873       0.00000102       0.00000187       0.00000298
Sc      -0.00000016      -0.00000005       0.00000037       0.00000068       0.00000107      -0.00000739
Te       2.29322564       1.62155493       7.30511192      -0.00066538      -0.00047118       0.00000027
Te       6.14199043       4.34304345       7.30511156       0.00066523       0.00047185      -0.00000020
Te       5.17979933       1.62155555       5.63854771       0.00033370      -0.00047202      -0.00057894
Te       3.25541655       4.34304326       8.97167531      -0.00033571       0.00047508       0.00057800
Te       3.25541684       4.34304346       5.63854737      -0.00033326       0.00047134      -0.00057684
Te       5.17979923       1.62155536       8.97167529       0.00033517      -0.00047520       0.00058088
