9
Lattice="4.516036583268 4.122811954031104e-11 2.6073348806835535 1.5053455304150323 4.257760057338082 2.6073348761453436 4.024258730657694e-08 2.289764395819866e-08 5.21466969166493" Properties=species:S:1:pos:R:3:forces:R:3 energy=-45.971473693847656 free_energy=-45.971473693847656 stress="1.0971431947837118e-05 1.0297535624204102e-07 -1.828228590738945e-07 1.0297535624204102e-07 1.0829191523953341e-05 -4.623180771545776e-08 -1.828228590738945e-07 -4.623180771545776e-08 1.085640542441979e-05" pbc="T T T"
Co       1.50534526       1.06444120       2.60733396      -0.00000399       0.00002019      -0.00002000
Co       4.51603545       3.19331912       7.82200801      -0.00001715      -0.00001673       0.00005631
Sc       0.00000014      -0.00000003      -0.00000006      -0.00000868       0.00000603       0.00000835
O        1.61694879       1.14335543       5.21467005      -0.00701305      -0.00495410       0.00001164
O        4.40443367       3.11440414       5.21466811       0.00701988       0.00495195      -0.00002794
O        3.70756275       1.14335654       4.00765313       0.00352195      -0.00494224      -0.00608435
O        2.31381955       3.11440438       6.42168598      -0.00351119       0.00494276       0.00606802
O        2.31382102       3.11440432       4.00765268      -0.00348665       0.00495468      -0.00608334
O        3.70756195       1.14335520       6.42168589       0.00349881      -0.00496252       0.00607133
