9
Lattice="4.105857652096088 -4.5650470523856565e-08 2.3705180618135158 1.3686192284675975 3.871039594019875 2.3705179680369586 1.319512825960203e-07 -2.1548713062718403e-08 4.741035895080682" Properties=species:S:1:pos:R:3:forces:R:3 energy=-52.61359405517578 free_energy=-52.61359405517578 stress="4.0323284338228405e-06 2.0179717452606383e-08 8.609907098389158e-08 2.0179717452606383e-08 3.7991276258253492e-06 -2.0081327534171578e-07 8.609907098389158e-08 -2.0081327534171578e-07 4.507796802499797e-06" pbc="T T T"
Co       1.36861937       0.96775939       2.37051718      -0.00000254      -0.00000244       0.00000456
Co       4.10585800       2.90327941       7.11155292      -0.00000027      -0.00000409       0.00000365
Se      -0.00000059       0.00000208       0.00000035       0.00005694      -0.00020439       0.00001897
N        1.53893963       1.08819481       4.74103621       0.00055099       0.00035000      -0.00000249
N        3.93553639       2.78284479       4.74103604      -0.00042272      -0.00034595       0.00000901
N        3.33638816       1.08819447       3.70327864      -0.00029016       0.00039315       0.00052476
N        2.13808956       2.78284443       5.77879268       0.00019991      -0.00030184      -0.00033879
N        2.13808952       2.78284437       3.70328035       0.00019515      -0.00029135       0.00031877
N        3.33638806       1.08819436       5.77879417      -0.00028849       0.00040698      -0.00053978
