9
Lattice="5.727658023596566 -1.8062824604354436e-07 3.306864917671953 1.9092192161447779 5.40008736477086 3.3068648393072593 -1.508959783400522e-08 -1.0664667100129432e-07 6.6137298614798175" Properties=species:S:1:pos:R:3:forces:R:3 energy=-35.1292839050293 free_energy=-35.1292839050293 stress="0.00022476869344245642 -2.8374628868732543e-08 4.537584885611068e-08 -2.8374628868732543e-08 0.0002250078396173194 5.5127536313648307e-08 4.537584885611068e-08 5.5127536313648307e-08 0.00022492055722977966" pbc="T T T"
Co       1.90921925       1.35002311       3.30686549      -0.00000463       0.00001402       0.00000636
Co       5.72765898       4.05006386       9.92059712       0.00001037      -0.00001269       0.00002434
Sc      -0.00000043       0.00000015       0.00000061       0.00000386      -0.00000247      -0.00000969
Se       2.13331672       1.50848353       6.61372979      -0.00475391      -0.00334820       0.00000374
Se       5.50356034       3.89160366       6.61372882       0.00475089       0.00334917      -0.00000761
Se       4.66099917       1.50848422       5.15437109       0.00237434      -0.00334378      -0.00411638
Se       2.97587575       3.89160399       8.07308710      -0.00239615       0.00335449       0.00410979
Se       2.97587869       3.89160342       5.15437141      -0.00236990       0.00335078      -0.00411835
Se       4.66100051       1.50848237       8.07308706       0.00238531      -0.00336127       0.00410769
