9
Lattice="4.124054086044181 -2.961862485174538e-08 2.381023659629434 1.3746846751930906 3.8881954899498576 2.381023646171869 -6.997555052930604e-10 -1.6976902355519966e-08 4.762047320470896" Properties=species:S:1:pos:R:3:forces:R:3 energy=-53.35976028442383 free_energy=-53.35976028442383 stress="0.00019870830874424428 3.3959741685407607e-09 1.943101608503639e-07 3.3959741685407607e-09 0.00019862614863086492 -4.97148668898717e-08 1.943101608503639e-07 -4.97148668898717e-08 0.000198568741325289" pbc="T T T"
Co       1.37468476       0.97204897       2.38102345       0.00000164       0.00000029      -0.00000458
Co       4.12405403       2.91614637       7.14307058      -0.00000211      -0.00000255       0.00000147
Si      -0.00000010      -0.00000006       0.00000021       0.00000065       0.00000061      -0.00000329
N        1.46723252       1.03749007       4.76204754      -0.00310543      -0.00219741      -0.00000282
N        4.03150620       2.85070534       4.76204721       0.00311023       0.00219610       0.00000567
N        3.39043785       1.03749032       3.65168435       0.00155048      -0.00219703      -0.00268933
N        2.10830090       2.85070543       5.87241018      -0.00155288       0.00219956       0.00269464
N        2.10830135       2.85070527       3.65168468      -0.00155887       0.00219813      -0.00269550
N        3.39043737       1.03749005       5.87241007       0.00155523      -0.00219747       0.00269371
