9
Lattice="5.446555439346645 7.88410136529486e-09 3.1445701640557493 1.81551853324125 5.135061517192305 3.144570084336682 7.408826512572007e-08 -4.524720851646613e-08 6.289140199786864" Properties=species:S:1:pos:R:3:forces:R:3 energy=-32.48203659057617 free_energy=-32.48203659057617 stress="0.00024219641636591405 -3.32374945344327e-08 1.1290211432424258e-08 -3.32374945344327e-08 0.00024208847025875002 1.4128066716523335e-08 1.1290211432424258e-08 1.4128066716523335e-08 0.0002421220560790971" pbc="T T T"
Co       1.81552121       1.28376473       3.14457005       0.00002947      -0.00000557      -0.00000190
Co       5.44655467       3.85129898       9.43371259      -0.00001074       0.00003128       0.00002488
Se       0.00000014       0.00000046       0.00000026       0.00000599       0.00000250      -0.00000088
S        1.79725733       1.27085047       6.28914067      -0.00014463      -0.00012669       0.00000229
S        5.46481732       3.86421067       6.28913911       0.00014949       0.00012073      -0.00001438
S        4.54792542       1.27085114       4.70103925       0.00005856      -0.00011519      -0.00013804
S        2.71414620       3.86420930       7.87724085      -0.00008734       0.00011349       0.00013804
S        2.71414808       3.86420973       4.70103858      -0.00006245       0.00010878      -0.00014332
S        4.54792582       1.27085050       7.87724043       0.00006139      -0.00012919       0.00013366
