9
Lattice="3.952461658884825 -2.3126615922396293e-08 2.2819547791289456 1.3174871923363716 3.726416660298723 2.2819547886342937 -2.5803138634548112e-08 -6.603942108957408e-09 4.563909602950238" Properties=species:S:1:pos:R:3:forces:R:3 energy=-52.0790901184082 free_energy=-52.0790901184082 stress="-0.00016300864808727056 4.420022747808616e-08 9.088741137475154e-08 4.420022747808616e-08 -0.00016256367962341756 2.5232927214347e-07 9.088741137475154e-08 2.5232927214347e-07 -0.00016253761714324355" pbc="T T T"
Co       1.31748731       0.93160369       2.28195350      -0.00002252       0.00006645       0.00026072
Co       3.95246168       2.79481205       6.84586294      -0.00000856       0.00006233       0.00027151
Si      -0.00000084       0.00000315       0.00001459       0.00014762      -0.00055319      -0.00252426
O        1.41620903       1.00141144       4.56391063       0.00371015       0.00255817      -0.00019220
O        3.85373833       2.72500500       4.56391077      -0.00345170      -0.00250459      -0.00022240
O        3.24435992       1.00140729       3.50842374      -0.00234655       0.00329113       0.00388616
O        2.02559541       2.72500083       5.61938612       0.00121841      -0.00178611      -0.00231868
O        2.02558998       2.72500813       3.50842617       0.00216669      -0.00308597       0.00351113
O        3.24435442       1.00141489       5.61938815      -0.00141221       0.00195128      -0.00267267
