9
Lattice="4.34945138662667 6.94392154388481e-08 2.5111570624342026 1.4498172180013313 4.100702234678305 2.5111570214575716 1.5472115134561837e-07 5.921847543454458e-08 5.022313856883486" Properties=species:S:1:pos:R:3:forces:R:3 energy=-47.93581771850586 free_energy=-47.93581771850586 stress="0.00047356943832710385 1.1930949561644866e-08 -9.640558573664748e-09 1.1930949561644866e-08 0.0004736262490041554 -4.0877694118535146e-08 -9.640558573664748e-09 -4.0877694118535146e-08 0.00047376376460306346" pbc="T T T"
Co       1.44981748       1.02517276       2.51115712       0.00000416      -0.00004761       0.00000455
Co       4.34945286       3.07552654       7.53347027       0.00002555      -0.00000467      -0.00001272
S        0.00000086      -0.00000270       0.00000421       0.00000694      -0.00002287       0.00003940
N        1.40361516       0.99250717       5.02231375       0.00075626       0.00055325      -0.00000815
N        4.39565267       3.10819744       5.02231365      -0.00077915      -0.00052202      -0.00000225
N        3.64764308       0.99250608       3.72672341      -0.00038970       0.00054145       0.00065672
N        2.15162496       3.10819735       6.31790287       0.00038207      -0.00051928      -0.00068355
N        2.15162440       3.10819755       3.72672391       0.00037515      -0.00051987       0.00066888
N        3.64764333       0.99250715       6.31790287      -0.00038147       0.00054348      -0.00066411
