9
Lattice="5.487992469146347 -2.481195262171108e-08 3.1684939707828095 1.829330811450213 5.17412871294164 3.1684939503543803 -1.85706899475859e-08 -3.815108495951774e-08 6.336987973731001" Properties=species:S:1:pos:R:3:forces:R:3 energy=-37.97828674316406 free_energy=-37.97828674316406 stress="-0.00017357422620989382 -1.8019296277316244e-08 -6.127314833292985e-08 -1.8019296277316244e-08 -0.00017354900774080306 5.144188008898709e-08 -6.127314833292985e-08 5.144188008898709e-08 -0.00017363765800837427" pbc="T T T"
Co       1.82933066       1.29353207       3.16849421      -0.00000012      -0.00000160       0.00000153
Co       5.48799256       3.88059670       9.50548128       0.00000008       0.00000122      -0.00000282
Sc      -0.00000007       0.00000002      -0.00000012       0.00000191       0.00000205       0.00000138
S        1.98407633       1.40295259       6.33698774       0.00074529       0.00052248      -0.00000177
S        5.33324762       3.77117533       6.33698852      -0.00074473      -0.00052737       0.00000133
S        4.49595407       1.40295341       4.88675385      -0.00037413       0.00052452       0.00064172
S        2.82136902       3.77117531       7.78722191       0.00037135      -0.00052323      -0.00064490
S        2.82136846       3.77117570       4.88675387       0.00037218      -0.00052597       0.00064624
S        4.49595445       1.40295345       7.78722235      -0.00037192       0.00052788      -0.00064277
