9
Lattice="4.270368474168315 -1.4307830899102548e-08 2.4654985080391683 1.4234561539223018 4.026142165313005 2.465498491834526 2.8928193466993273e-08 6.087729846536984e-10 4.930996965973252" Properties=species:S:1:pos:R:3:forces:R:3 energy=-46.110557556152344 free_energy=-46.110557556152344 stress="0.0003589394618757069 -1.8553842551227717e-07 -4.969131168763852e-07 -1.8553842551227717e-07 0.00035825648228637874 -2.6191315782853053e-07 -4.969131168763852e-07 -2.6191315782853053e-07 0.00035847487743012607" pbc="T T T"
Co       1.42345985       1.00653352       2.46550448       0.00004557      -0.00001649       0.00006980
Co       4.27036944       3.01961123       7.39649287       0.00001648       0.00005227      -0.00002276
S       -0.00000023      -0.00000013      -0.00000011      -0.00000063       0.00000024      -0.00000324
O        1.32808614       0.93909781       4.93099651      -0.00181556      -0.00129294      -0.00001351
O        4.36573743       3.08704462       4.93099886       0.00180173       0.00129128       0.00001006
O        3.60632325       0.93909790       3.61565395       0.00088024      -0.00129271      -0.00158024
O        2.08749921       3.08704449       6.24633812      -0.00091231       0.00129330       0.00156069
O        2.08749814       3.08704178       3.61565361      -0.00091696       0.00126255      -0.00157857
O        3.60632548       0.93909724       6.24633771       0.00090158      -0.00129783       0.00155759
