9
Lattice="5.440642327671305 -7.309999831147752e-09 3.1411564204036426 1.8135474453858536 5.129486809922097 3.1411564035669146 7.430537882776019e-08 3.192112251904572e-08 6.282312712106588" Properties=species:S:1:pos:R:3:forces:R:3 energy=-41.391876220703125 free_energy=-41.391876220703125 stress="-0.00026041280943900347 -1.7854469902545134e-08 -7.876559848796205e-09 -1.7854469902545134e-08 -0.0002603650209493935 -2.2705552993329547e-08 -7.876559848796205e-09 -2.2705552993329547e-08 -0.00026033708127215505" pbc="T T T"
Co       1.81354685       1.28237193       3.14115655      -0.00000562       0.00000198       0.00000036
Co       5.44064260       3.84711547       9.42346881       0.00000385       0.00000180      -0.00000450
Ti      -0.00000004       0.00000000      -0.00000007      -0.00000114      -0.00000166      -0.00000062
S        1.89980171       1.34336260       6.28231274      -0.00341949      -0.00241870      -0.00000030
S        5.35438834       3.78612408       6.28231297       0.00342217       0.00241892       0.00000145
S        4.49074150       1.34336261       4.78643302       0.00171186      -0.00242075      -0.00296125
S        2.76344850       3.78612417       7.77819274      -0.00171101       0.00242002       0.00296481
S        2.76344812       3.78612394       4.78643305      -0.00171344       0.00241905      -0.00296251
S        4.49074181       1.34336254       7.77819237       0.00171292      -0.00242059       0.00296283
