9
Lattice="5.815136237981508 -4.273243297430906e-08 3.3573703670128885 1.9383786454233154 5.482563206091778 3.3573704714243533 -1.5578600385018889e-07 1.7720032451345482e-08 6.714741003855114" Properties=species:S:1:pos:R:3:forces:R:3 energy=-37.77254867553711 free_energy=-37.77254867553711 stress="-0.00013873314310330898 2.9619954489135125e-08 1.1392899956774727e-08 2.9619954489135125e-08 -0.0001387474621878937 1.6453288509410413e-08 1.1392899956774727e-08 1.6453288509410413e-08 -0.00013877601304557174" pbc="T T T"
Co       1.93837909       1.37063909       3.35736958       0.00000413      -0.00001559      -0.00000796
Co       5.81513520       4.11192045      10.07211118      -0.00000855      -0.00001591      -0.00000231
Ti      -0.00000015       0.00000006       0.00000030       0.00000042       0.00000349       0.00000012
Se       2.00787521       1.41978311       6.71474078      -0.00383569      -0.00270589      -0.00000000
Se       5.74563909       4.06278131       6.71474052       0.00382820       0.00271561       0.00000046
Se       4.81119888       1.41978304       5.09624181       0.00191826      -0.00270403      -0.00332005
Se       2.94231671       4.06278065       8.33324016      -0.00191038       0.00270948       0.00331818
Se       2.94231701       4.06278173       5.09624229      -0.00190997       0.00271530      -0.00331292
Se       4.81119792       1.41978331       8.33324076       0.00191361      -0.00270235       0.00332453
