9
Lattice="4.455147296584524 -1.90959176704317e-07 2.572180575659071 1.4850489796553852 4.200352757826602 2.5721804702950983 -1.3898300189805143e-07 -2.273198185524435e-07 5.14436139204378" Properties=species:S:1:pos:R:3:forces:R:3 energy=-50.68613052368164 free_energy=-50.68613052368164 stress="5.164911272004247e-06 2.54648483632991e-07 -4.567063616178757e-09 2.54648483632991e-07 5.207845788390841e-06 8.107824633896143e-09 -4.567063616178757e-09 8.107824633896143e-09 5.170329131942708e-06" pbc="T T T"
Co       1.48505351       1.05008880       2.57218312       0.00006557       0.00000708       0.00003069
Co       4.45514660       3.15026561       7.71654625      -0.00000700       0.00002243       0.00005939
Ti       0.00000014       0.00000028      -0.00000047      -0.00000286      -0.00000225       0.00000422
O        1.53369756       1.08448585       5.14436131      -0.00582826      -0.00413835      -0.00000872
O        4.40649758       3.11586720       5.14435904       0.00582170       0.00414515      -0.00002415
O        3.68829707       1.08448783       3.90039855       0.00288936      -0.00411445      -0.00507414
O        2.25189591       3.11586478       6.38832188      -0.00292686       0.00411087       0.00504345
O        2.25189740       3.11586397       3.90039889      -0.00291592       0.00410318      -0.00506800
O        3.68829875       1.08448531       6.38832086       0.00290367      -0.00413340       0.00503755
