9
Lattice="6.223989116790148 1.8662288811589002e-07 3.5934216448841663 2.0746631900775636 5.868033243480276 3.593421687842979 4.0423845840831335e-09 5.547191609097679e-08 7.186843282766679" Properties=species:S:1:pos:R:3:forces:R:3 energy=-34.57384490966797 free_energy=-34.57384490966797 stress="-5.28102318639867e-05 9.16228302116906e-08 -4.031250000480213e-09 9.16228302116906e-08 -5.2889532526023686e-05 5.996007579334162e-10 -4.031250000480213e-09 5.996007579334162e-10 -5.2938205044483766e-05" pbc="T T T"
Co       2.07466272       1.46700802       3.59342172      -0.00000271      -0.00000127       0.00000055
Co       6.22398887       4.40102567      10.78026514      -0.00000052       0.00000239      -0.00000002
Ti       0.00000081       0.00000043      -0.00000064      -0.00000691      -0.00000550       0.00000615
Te       2.19048691       1.54890777       7.18684338      -0.00283445      -0.00200524       0.00000022
Te       6.10816483       4.31912476       7.18684348       0.00284524       0.00201121       0.00000167
Te       5.12874600       1.54890803       5.49043842       0.00141700      -0.00200460      -0.00245374
Te       3.16990623       4.31912611       8.88324841      -0.00141513       0.00200115       0.00245017
Te       3.16990654       4.31912577       5.49043839      -0.00141694       0.00200383      -0.00245402
Te       5.12874632       1.54890738       8.88324817       0.00141440      -0.00200196       0.00244905
