9
Lattice="4.386247473297049 -1.8633118408565026e-07 2.5324011269219717 1.4620823923918491 4.135393537062753 2.5324009936102727 4.874420734073336e-08 -1.2880547017036996e-07 5.064802169416462" Properties=species:S:1:pos:R:3:forces:R:3 energy=-49.835426330566406 free_energy=-49.835426330566406 stress="-0.00011518151586642489 -1.1792570830948534e-07 -3.63796921476478e-08 -1.1792570830948534e-07 -0.00011529317271197215 -1.4473331866327044e-08 -3.63796921476478e-08 -1.4473331866327044e-08 -0.00011525661830091849" pbc="T T T"
Co       1.46208271       1.03384640       2.53240048       0.00000394      -0.00002021      -0.00000514
Co       4.38624755       3.10154376       7.59720397       0.00000333      -0.00001336       0.00000975
V       -0.00000009      -0.00000001       0.00000003      -0.00000019      -0.00000026      -0.00000294
O        1.49325120       1.05588847       5.06480230      -0.00066817      -0.00046748       0.00000171
O        4.35507838       3.07950589       5.06480175       0.00066561       0.00047767      -0.00000356
O        3.63962181       1.05588840       3.82559489       0.00033522      -0.00046790      -0.00058305
O        2.20870814       3.07950540       6.30400904      -0.00034004       0.00048280       0.00058216
O        2.20870843       3.07950598       3.82559510      -0.00033352       0.00048018      -0.00058120
O        3.63962154       1.05588840       6.30400953       0.00033402      -0.00047076       0.00058222
