9
Lattice="5.380547546569854 -3.6412008824512814e-08 3.10646059168964 1.7935157997669815 5.0728289030877685 3.1064606172547675 -2.525832207265554e-08 1.3450464367603952e-08 6.212921227127943" Properties=species:S:1:pos:R:3:forces:R:3 energy=-41.65235900878906 free_energy=-41.65235900878906 stress="-0.00022734107915312052 -2.249087582839593e-09 -2.7807704583437953e-08 -2.249087582839593e-09 -0.0002273431746289134 7.253719402910974e-09 -2.7807704583437953e-08 7.253719402910974e-09 -0.00022733293008059263" pbc="T T T"
Co       1.79351498       1.26820668       3.10646109      -0.00000905      -0.00000561       0.00000252
Co       5.38054818       3.80462265       9.31938016       0.00000485       0.00001155      -0.00002007
V        0.00000030       0.00000014      -0.00000008      -0.00000401      -0.00000098      -0.00000247
S        1.84532198       1.30483924       6.21292099      -0.00500667      -0.00354460      -0.00000275
S        5.32874110       3.76798899       6.21292245       0.00501424       0.00354496       0.00001178
S        4.45788667       1.30483906       4.70455675       0.00250533      -0.00355121      -0.00433442
S        2.71617677       3.76798948       7.72128579      -0.00250489       0.00354663       0.00433797
S        2.71617650       3.76798958       4.70455668      -0.00250855       0.00354490      -0.00433230
S        4.45788678       1.30483975       7.72128588       0.00250885      -0.00354558       0.00433955
