9
Lattice="6.129170773406413 -3.5112304683569744e-08 3.5386782983795793 2.0430569644752574 5.778637397190471 3.5386781717481286 2.4500012681425282e-08 -1.3776700058921366e-07 7.077356554323841" Properties=species:S:1:pos:R:3:forces:R:3 energy=-34.608062744140625 free_energy=-34.608062744140625 stress="-0.00017764157382771373 -1.3088147454709542e-08 -5.7042188750244804e-09 -1.3088147454709542e-08 -0.00017762198694981635 -1.0378410131295368e-08 -5.7042188750244804e-09 -1.0378410131295368e-08 -0.00017761808703653514" pbc="T T T"
Co       2.04305785       1.44465974       3.53867899       0.00000562       0.00000190       0.00000382
Co       6.12917123       4.33397784      10.61603434       0.00000305       0.00000022      -0.00000136
V        0.00000016      -0.00000017      -0.00000031       0.00000187       0.00000273       0.00000307
Te       2.15102484       1.52100412       7.07735696       0.00746964       0.00528248       0.00000127
Te       6.02120351       4.25763352       7.07735743      -0.00747468      -0.00528491       0.00000246
Te       5.05365753       1.52100380       5.40151954      -0.00373922       0.00528276       0.00646853
Te       3.11856840       4.25763362       8.75319288       0.00373545      -0.00528427      -0.00647451
Te       3.11856913       4.25763277       5.40151960       0.00373472      -0.00528441       0.00646826
Te       5.05365841       1.52100364       8.75319268      -0.00373645       0.00528351      -0.00647147
