9
Lattice="5.820839754049671 9.136897661880321e-08 3.3606633747400227 1.9402800244246574 5.487940169745166 3.3606633396407073 -1.9760337880281162e-08 -5.6960374933396806e-08 6.721326783705968" Properties=species:S:1:pos:R:3:forces:R:3 energy=-37.81359100341797 free_energy=-37.81359100341797 stress="-7.89643163443543e-05 -9.773236442356392e-09 2.32200103589264e-09 -9.773236442356392e-09 -7.891035784268752e-05 -1.3806807919181097e-09 2.32200103589264e-09 -1.3806807919181097e-09 -7.892644498497248e-05" pbc="T T T"
Co       1.94027947       1.37198689       3.36066389      -0.00000352       0.00001639       0.00000360
Co       5.82084002       4.11595472      10.08199044       0.00000042      -0.00000297       0.00000172
V       -0.00000008       0.00000002      -0.00000020      -0.00000046       0.00000067      -0.00000176
Se       1.96437151       1.38902076       6.72132725      -0.00102457      -0.00072189       0.00000109
Se       5.79674850       4.09891909       6.72132715       0.00102592       0.00071768       0.00000245
Se       4.83865400       1.38902087       5.06185875       0.00051183      -0.00072019      -0.00088678
Se       2.92246557       4.09891962       8.38079437      -0.00051210       0.00072058       0.00088634
Se       2.92246576       4.09891881       5.06185829      -0.00051123       0.00071572      -0.00088972
Se       4.83865427       1.38902006       8.38079399       0.00051390      -0.00072619       0.00088315
