9
Lattice="5.603970421321236 2.3332934922320592e-07 3.235454358294999 1.8679905041853853 5.283475834659994 3.235454109295458 2.444005837265957e-07 -1.3214352511628451e-07 6.47090829327577" Properties=species:S:1:pos:R:3:forces:R:3 energy=-28.632007598876953 free_energy=-28.632007598876953 stress="0.0002721326018217951 -8.245564231401659e-08 -8.459429778895355e-08 -8.245564231401659e-08 0.0002706897212192416 -3.524304403867973e-08 -8.459429778895355e-08 -3.524304403867973e-08 0.00027200550539419055" pbc="T T T"
Co       1.86799050       1.32085652       3.23546114       0.00000725      -0.00016210       0.00007579
Co       5.60396875       3.96262423       9.70636611      -0.00002795       0.00021431       0.00003720
Zn      -0.00000003      -0.00000014       0.00000012       0.00000184      -0.00000178      -0.00000657
Se       2.12044284       1.49936867       6.47090679      -0.00120203      -0.00099073      -0.00003000
Se       5.35151904       3.78410700       6.47090870       0.00121105       0.00097649      -0.00000624
Se       4.54374728       1.49937028       5.07180931       0.00057863      -0.00097054      -0.00106159
Se       2.92821172       3.78410642       7.87000496      -0.00060180       0.00098756       0.00104773
Se       2.92821279       3.78410301       5.07180674      -0.00058937       0.00094369      -0.00108351
Se       4.54375177       1.49936771       7.87000323       0.00062238      -0.00099693       0.00102714
