9
Lattice="4.29542487711241 6.017896092067178e-08 2.4799645616290427 1.4318082203026876 4.0497658609917195 2.479964784726426 -5.268557433904657e-08 2.3598305935089733e-07 4.95992921451215" Properties=species:S:1:pos:R:3:forces:R:3 energy=-35.629756927490234 free_energy=-35.629756927490234 stress="2.0229912479408085e-05 4.184122417427716e-07 -5.029023668612354e-07 4.184122417427716e-07 2.0325825971667655e-05 -4.6129986230880604e-07 -5.029023668612354e-07 -4.6129986230880604e-07 2.141833829227835e-05" pbc="T T T"
Co       1.43181592       1.01244124       2.47996471       0.00010440      -0.00000545      -0.00000637
Co       4.29542562       3.03732253       7.43989967       0.00000574      -0.00003222       0.00008273
Zn       0.00000017      -0.00000006       0.00000044       0.00000228      -0.00000717      -0.00000002
O        1.52425230       1.07781176       4.95992971       0.00026433       0.00020943       0.00000699
O        4.20297788       2.97195719       4.95992739      -0.00028564      -0.00016321      -0.00003138
O        3.53329567       1.07781250       3.80000368      -0.00017315       0.00022639       0.00019307
O        2.19393258       2.97195517       6.11985074       0.00010800      -0.00020766      -0.00023870
O        2.19393720       2.97195546       3.80000557       0.00016029      -0.00020056       0.00021234
O        3.53329444       1.07780923       6.11985226      -0.00018638       0.00018030      -0.00021832
