9
Lattice="5.432150948208226 3.06376850636616e-08 3.136253930639328 1.8107170396801213 5.121481201377194 3.1362538820405232 -2.278226403697162e-08 -7.563066283321778e-08 6.272507900738682" Properties=species:S:1:pos:R:3:forces:R:3 energy=-30.42664909362793 free_energy=-30.42664909362793 stress="0.00022560730576515198 1.5158405641813033e-09 2.4240083718041205e-08 1.5158405641813033e-09 0.00022555053874384612 5.82467807319631e-09 2.4240083718041205e-08 5.82467807319631e-09 0.00022558755881618708" pbc="T T T"
Co       1.81071707       1.28037137       3.13625404       0.00000060       0.00001102       0.00000016
Co       5.43215071       3.84111013       9.40876145      -0.00000028      -0.00000738      -0.00000335
Zn       0.00000008       0.00000055       0.00000047       0.00000209      -0.00001011      -0.00000502
S        1.90823527       1.34932634       6.27250813      -0.00472611      -0.00333793       0.00000141
S        5.33463254       3.77215466       6.27250836       0.00473024       0.00333969       0.00000293
S        4.47803357       1.34932664       4.78883385       0.00236178      -0.00333603      -0.00409183
S        2.76483461       3.77215437       7.75618117      -0.00236649       0.00334063       0.00409991
S        2.76483458       3.77215393       4.78883386      -0.00236674       0.00333775      -0.00409824
S        4.47803349       1.34932665       7.75618150       0.00236489      -0.00333770       0.00409396
