9
Lattice="6.162834101392312 1.2712119641627118e-07 3.5581139958042574 2.0542781552701905 5.810376317862683 3.5581139929952816 -5.788564678247048e-08 -4.437149922082647e-08 7.116228091869327" Properties=species:S:1:pos:R:3:forces:R:3 energy=-26.137346267700195 free_energy=-26.137346267700195 stress="-1.9820729448838392e-06 5.195375507582867e-08 5.504074529483205e-09 5.195375507582867e-08 -2.0491393115662504e-06 1.4436138506823681e-08 5.504074529483205e-09 1.4436138506823681e-08 -2.1052624106232543e-06" pbc="T T T"
Co       2.05427844       1.45259401       3.55811382       0.00000484       0.00000076      -0.00000111
Co       6.16283439       4.35778382      10.67434423      -0.00000227       0.00000667       0.00001145
Zn      -0.00000024       0.00000067       0.00000315       0.00000148      -0.00000444      -0.00002388
Te       2.20370142       1.55825164       7.11622766      -0.00006215      -0.00004742      -0.00000083
Te       6.01341170       4.25212369       7.11622632       0.00006489       0.00004375      -0.00000694
Te       5.06098360       1.55825034       5.46657255       0.00002400      -0.00003894      -0.00004636
Te       3.15612799       4.25212452       8.76588157      -0.00003686       0.00004838       0.00005928
Te       3.15612877       4.25212554       5.46657296      -0.00002342       0.00004062      -0.00004970
Te       5.06098276       1.55825135       8.76588213       0.00002945      -0.00004945       0.00005811
