9
Lattice="4.587881702381148 -6.709780110297404e-08 2.6488148271013365 1.5292938128580704 4.325496221663332 2.648814869840142 3.915321901023685e-09 5.5112649270830456e-08 5.297629647421168" Properties=species:S:1:pos:R:3:forces:R:3 energy=-45.633201599121094 free_energy=-45.633201599121094 stress="-0.0005019905511289835 9.150103608135396e-08 -3.680997195942837e-08 9.150103608135396e-08 -0.0005017923540435731 -5.18566345419913e-08 -3.680997195942837e-08 -5.18566345419913e-08 -0.0005019508535042405" pbc="T T T"
Cr       1.52929457       1.08137260       2.64881455       0.00001042      -0.00001838      -0.00000535
Cr       4.58788133       3.24412320       7.94644511      -0.00000421       0.00001163       0.00000327
Au      -0.00000017       0.00000007      -0.00000019       0.00001309      -0.00000348       0.00000293
O        1.61072107       1.13895137       5.29762973      -0.00287509      -0.00203526       0.00000351
O        4.50645399       3.18654505       5.29762925       0.00286579       0.00204009      -0.00000503
O        3.78252077       1.13895119       4.04374042       0.00143158      -0.00203717      -0.00248629
O        2.33465486       3.18654486       6.55151923      -0.00143576       0.00203735       0.00248826
O        2.33465453       3.18654488       4.04374008      -0.00143611       0.00203973      -0.00248855
O        3.78252104       1.13895159       6.55151923       0.00142986      -0.00203449       0.00248778
