9
Lattice="5.824558451688387 2.4841618362764093e-08 3.3628103012283432 1.9415194808772611 5.491446165316948 3.3628103470233763 -2.608487085713742e-09 5.424271473770606e-08 6.725620606974734" Properties=species:S:1:pos:R:3:forces:R:3 energy=-37.662620544433594 free_energy=-37.662620544433594 stress="-0.000310733012156561 -2.5242480106157927e-08 -2.344212468585738e-08 -2.5242480106157927e-08 -0.00031073932768777013 4.849384449556737e-09 -2.344212468585738e-08 4.849384449556737e-09 -0.00031078935717232525" pbc="T T T"
Cr       1.94152121       1.37286266       3.36280915       0.00001314       0.00000942      -0.00000774
Cr       5.82455693       4.11858577      10.08843151      -0.00001345       0.00000867       0.00000283
Au      -0.00000006       0.00000002       0.00000008      -0.00000036      -0.00000051       0.00000046
Se       2.09585903       1.48199482       6.72562151      -0.00051698      -0.00037289       0.00000536
Se       5.67021941       4.00945054       6.72562077       0.00052032       0.00036676      -0.00000097
Se       4.77662867       1.48199585       5.17787668       0.00025640      -0.00036815      -0.00045389
Se       2.98944886       4.00944971       8.27336472      -0.00025937       0.00036250       0.00045538
Se       2.98944949       4.00945021       5.17787640      -0.00025544       0.00036509      -0.00045246
Se       4.77662818       1.48199541       8.27336418       0.00025566      -0.00037062       0.00045100
