9
Lattice="6.16508420018311 -4.4094435132396e-08 3.5594131783328606 2.0550280526922804 5.812497114751439 3.5594131306370613 4.885879197194277e-08 -2.3866838022012337e-08 7.118826272039775" Properties=species:S:1:pos:R:3:forces:R:3 energy=-35.61068344116211 free_energy=-35.61068344116211 stress="-4.490299761528149e-05 -2.805342802503219e-08 1.9320363975339205e-08 -2.805342802503219e-08 -4.489456114242785e-05 -2.4724425173872078e-08 1.9320363975339205e-08 -2.4724425173872078e-08 -4.4864314986625686e-05" pbc="T T T"
Cr       2.05502809       1.45312385       3.55941338       0.00000047      -0.00000160       0.00000160
Cr       6.16508406       4.35937243      10.67823908      -0.00000155      -0.00000043      -0.00000222
Ag       0.00000003      -0.00000040      -0.00000016       0.00000009       0.00000631      -0.00000064
Te       2.21713287       1.56774971       7.11882612      -0.00252067      -0.00178166      -0.00000056
Te       6.00297934       4.24474761       7.11882662       0.00251645       0.00178090       0.00000135
Te       5.05651770       1.56775008       5.47950674       0.00126053      -0.00178304      -0.00218388
Te       3.16359462       4.24474758       8.75814598      -0.00125692       0.00178080       0.00218062
Te       3.16359472       4.24474728       5.47950677      -0.00126012       0.00178264      -0.00218213
Te       5.05651779       1.56775007       8.75814580       0.00126167      -0.00178381       0.00218579
