9
Lattice="4.4805247181953 -1.2107265640500982e-07 2.5868321233500344 1.4935081182415904 4.224279536946471 2.5868321354889976 -3.921165940036409e-08 -1.285972688971352e-08 5.173664314616693" Properties=species:S:1:pos:R:3:forces:R:3 energy=-44.56416320800781 free_energy=-44.56416320800781 stress="-8.867287397151813e-05 1.6952018455640427e-08 1.0949266737725338e-07 1.6952018455640427e-08 -8.914829231798649e-05 6.799437102245065e-08 1.0949266737725338e-07 6.799437102245065e-08 -8.871109457686543e-05" pbc="T T T"
Cr       1.49350774       1.05607189       2.58683322      -0.00000353       0.00001728       0.00000903
Cr       4.48052441       3.16820787       7.76049501       0.00000188      -0.00001249      -0.00001226
Ag       0.00000034       0.00000026      -0.00000027      -0.00000331      -0.00000533       0.00002482
O        1.60198532       1.13277590       5.17366430       0.00199354       0.00142497      -0.00000242
O        4.37204780       3.09150373       5.17366479      -0.00199497      -0.00142384       0.00000257
O        3.67953136       1.13277498       3.97419261      -0.00099814       0.00141132       0.00172395
O        2.29450185       3.09150436       6.37313638       0.00100988      -0.00142062      -0.00173295
O        2.29450063       3.09150371       3.97419257       0.00099194      -0.00141525       0.00172472
O        3.67953191       1.13277499       6.37313595      -0.00099832       0.00142354      -0.00173646
