9
Lattice="5.581782900389006 -6.574380597843913e-08 3.222643816562551 1.8605942516180503 5.262555208467644 3.2226437932279657 -2.0187523382440695e-08 -4.285365429500394e-08 6.445287668090895" Properties=species:S:1:pos:R:3:forces:R:3 energy=-39.11114501953125 free_energy=-39.11114501953125 stress="-4.9165613745572045e-05 -1.681037353762349e-08 -1.6752879972159462e-08 -1.681037353762349e-08 -4.9106460210168734e-05 3.5763629835372512e-09 -1.6752879972159462e-08 3.5763629835372512e-09 -4.918100967188366e-05" pbc="T T T"
Cr       1.86059391       1.31563856       3.22264371      -0.00000127      -0.00000102      -0.00000204
Cr       5.58178277       3.94691596       9.66793120      -0.00000049      -0.00000207       0.00000043
Ag      -0.00000012      -0.00000021       0.00000002       0.00000094       0.00000444      -0.00000065
S        1.98482701       1.40348474       6.44528782      -0.00117093      -0.00082743       0.00000034
S        5.45755013       3.85907051       6.44528786       0.00117016       0.00082594      -0.00000001
S        4.58936951       1.40348482       4.94155461       0.00058651      -0.00082669      -0.00101385
S        2.85300788       3.85907055       7.94902064      -0.00058565       0.00082722       0.00101337
S        2.85300790       3.85907070       4.94155464      -0.00058445       0.00082785      -0.00101200
S        4.58936946       1.40348473       7.94902063       0.00058541      -0.00082785       0.00101408
