9
Lattice="5.984032249020245 1.5720706548617847e-07 3.454882741693625 1.9946775253503035 5.641799853939938 3.454882809600487 -2.4797939539132062e-08 6.5633804844459e-08 6.909765526338549" Properties=species:S:1:pos:R:3:forces:R:3 energy=-37.5826301574707 free_energy=-37.5826301574707 stress="-6.022739762556739e-05 -1.2967078966141798e-08 -2.7593028306682754e-08 -1.2967078966141798e-08 -6.021197623340413e-05 -1.4483730659264893e-08 -2.7593028306682754e-08 -1.4483730659264893e-08 -6.027224662830122e-05" pbc="T T T"
Cr       1.99467638       1.41044707       3.45488227      -0.00000880      -0.00001757      -0.00000375
Cr       5.98403375       4.23135057      10.36465086       0.00000910       0.00000366       0.00001489
Be       0.00000026      -0.00000031       0.00000039      -0.00000313       0.00000370      -0.00000340
Te       1.95563074       1.38283995       6.90976610       0.00229401       0.00162365       0.00000233
Te       6.02307824       4.25896093       6.90976444      -0.00229714      -0.00161812      -0.00000752
Te       5.00621748       1.38284001       5.14850879      -0.00114340       0.00162258       0.00198867
Te       2.97249192       4.25896135       8.67102110       0.00114333      -0.00161666      -0.00199676
Te       2.97249314       4.25896162       5.14850917       0.00115141      -0.00161719       0.00199598
Te       5.00621710       1.38283912       8.67102117      -0.00114536       0.00161600      -0.00199053
