9
Lattice="4.134067126723944 -3.401313942450103e-08 2.3868044547032166 1.3780223928482858 3.897636264585934 2.3868043692412564 5.75834041182271e-08 -6.395149971244296e-08 4.773608809669108" Properties=species:S:1:pos:R:3:forces:R:3 energy=-52.02614974975586 free_energy=-52.02614974975586 stress="-0.00030397973023355007 1.6517462597676058e-07 -7.01384763601709e-08 1.6517462597676058e-07 -0.0003041450690943748 7.91900163221726e-08 -7.01384763601709e-08 7.91900163221726e-08 -0.00030404829885810614" pbc="T T T"
Cr       1.37802447       0.97441350       2.38680512       0.00001464       0.00003284       0.00000678
Cr       4.13406398       2.92322609       7.16041563      -0.00002342      -0.00000528       0.00001816
Be      -0.00000015      -0.00000015       0.00000007       0.00000065       0.00000380       0.00000070
O        1.35786912       0.96015805       4.77360859       0.00364667       0.00257581       0.00000165
O        4.15422091       2.93747689       4.77360673      -0.00364155      -0.00258362      -0.00001632
O        3.45513198       0.96015847       3.56275279      -0.00182712       0.00257313       0.00315183
O        2.05695801       2.93747698       5.98446467       0.00182772      -0.00258327      -0.00315690
O        2.05695729       2.93747628       3.56275187       0.00182432      -0.00259149       0.00315195
O        3.45513263       0.96015878       5.98446425      -0.00182083       0.00257766      -0.00315779
