9
Lattice="5.103744026879205 -1.0845160059257934e-08 2.9466483357984696 1.7012480063861073 4.811856398425857 2.946648322545959 -8.924625288433575e-08 -7.933746941933864e-08 5.893296826175891" Properties=species:S:1:pos:R:3:forces:R:3 energy=-42.1268310546875 free_energy=-42.1268310546875 stress="2.2119505956652574e-05 -4.238092987662867e-09 7.690975079022166e-10 -4.238092987662867e-09 2.2116289983387105e-05 -2.2867274296345386e-08 7.690975079022166e-10 -2.2867274296345386e-08 2.195154047512915e-05" pbc="T T T"
Cr       1.70124696       1.20296466       2.94664846      -0.00001068       0.00000475       0.00000096
Cr       5.10374525       3.60889385       8.83994530       0.00001324       0.00001049       0.00000041
Be      -0.00000011       0.00000011       0.00000048       0.00000066       0.00000124       0.00000057
S        1.71000429       1.20915506       5.89329716       0.00029930       0.00020984       0.00000156
S        5.09498715       3.60269990       5.89329708      -0.00029466      -0.00020936       0.00000164
S        4.24874259       1.20915561       4.42755612      -0.00014731       0.00020552       0.00025856
S        2.55624907       3.60270059       7.35903676       0.00014211      -0.00021327      -0.00026333
S        2.55624964       3.60270033       4.42755590       0.00014229      -0.00021324       0.00026014
S        4.24874291       1.20915523       7.35903655      -0.00014497       0.00020370      -0.00026032
