9
Lattice="6.019348146883658 -5.7869273119863736e-08 3.475272303545306 2.0064493743100913 5.675095717827592 3.4752722228746213 9.940436329728891e-08 -2.8511524737158217e-08 6.950544434917234" Properties=species:S:1:pos:R:3:forces:R:3 energy=-37.6507682800293 free_energy=-37.6507682800293 stress="-0.00014996706158854067 -8.697885078845502e-09 -7.450112526896646e-09 -8.697885078845502e-09 -0.00014996960817370564 3.6931862013034333e-09 -7.450112526896646e-09 3.6931862013034333e-09 -0.00014995264064054936" pbc="T T T"
Cr       2.00644972       1.41877389       3.47527220       0.00000303      -0.00000078      -0.00000033
Cr       6.01934848       4.25632183      10.42581671       0.00000284       0.00000173      -0.00000010
Cu       0.00000011      -0.00000005       0.00000017       0.00000025       0.00000025      -0.00000195
Te       2.10119569       1.48576953       6.95054448      -0.00415519      -0.00293760      -0.00000042
Te       5.92460207       4.18932617       6.95054442       0.00415277       0.00293772      -0.00000020
Te       4.96875021       1.48576950       5.29496099       0.00207556      -0.00293727      -0.00359818
Te       3.05704714       4.18932603       8.60612795      -0.00207853       0.00293784       0.00359821
Te       3.05704694       4.18932613       5.29496094      -0.00207748       0.00293703      -0.00359590
Te       4.96875017       1.48576946       8.60612802       0.00207675      -0.00293882       0.00359881
