9
Lattice="6.306052919529343 4.219334557563939e-08 3.640801339152075 2.1020176574784917 5.945403802509032 3.640801377508211 -2.873417211664391e-08 2.6658359044015986e-08 7.281602728073216" Properties=species:S:1:pos:R:3:forces:R:3 energy=-33.273338317871094 free_energy=-33.273338317871094 stress="-4.347193316789344e-05 -1.1045962367006723e-08 -8.914743609977904e-09 -1.1045962367006723e-08 -4.346728019299917e-05 -7.223499132180677e-09 -8.914743609977904e-09 -7.223499132180677e-09 -4.3492604163475335e-05" pbc="T T T"
Cr       2.10201889       1.48635156       3.64080155       0.00000675       0.00000196       0.00000127
Cr       6.30605234       4.45905267      10.92240250      -0.00000273      -0.00000103      -0.00000924
Cd      -0.00000008      -0.00000010      -0.00000004       0.00000071       0.00000041       0.00000042
Te       2.30807002       1.63205195       7.28160281       0.00101724       0.00071891      -0.00000057
Te       6.10000046       4.31335193       7.28160364      -0.00101870      -0.00071914       0.00000485
Te       5.15201723       1.63205193       5.63964829      -0.00051229       0.00071929       0.00087968
Te       3.25605346       4.31335164       8.92355723       0.00051128      -0.00071940      -0.00087780
Te       3.25605236       4.31335129       5.63964837       0.00050740      -0.00072241       0.00087987
Te       5.15201747       1.63205259       8.92355740      -0.00050953       0.00072131      -0.00087842
