9
Lattice="5.643725988089787 -2.9529721338373364e-08 3.258406830212075 1.881242033609378 5.320955930317897 3.258406716900707 -6.268813065753828e-08 -1.8310471954660398e-07 6.516813769003169" Properties=species:S:1:pos:R:3:forces:R:3 energy=-39.58678436279297 free_energy=-39.58678436279297 stress="-4.3140713387401775e-05 1.0455063481629168e-09 1.2498833079632732e-09 1.0455063481629168e-09 -4.3162130168639123e-05 6.201754221279998e-09 1.2498833079632732e-09 6.201754221279998e-09 -4.317457933211699e-05" pbc="T T T"
Cr       1.88124101       1.33024010       3.25840785      -0.00000846       0.00000704       0.00000749
Cr       5.64372601       3.99071575       9.77522074      -0.00000083      -0.00000530       0.00000379
Cu       0.00000003      -0.00000022      -0.00000021      -0.00000017       0.00000230      -0.00000157
Se       1.97699883       1.39794973       6.51681346       0.00064218       0.00045642      -0.00000279
Se       5.54796919       3.92300612       6.51681339      -0.00064114      -0.00045937      -0.00000152
Se       4.65522654       1.39794979       4.97053802      -0.00031967       0.00045764       0.00055623
Se       2.86974148       3.92300622       8.06308935       0.00032206      -0.00045633      -0.00055742
Se       2.86974164       3.92300616       4.97053784       0.00032212      -0.00045791       0.00055501
Se       4.65522709       1.39794920       8.06308878      -0.00031629       0.00045547      -0.00055927
