9
Lattice="4.084205623823864 -4.541468748034672e-08 2.358017291890038 1.3614018561577501 3.8506259337972346 2.358017249684858 3.670626866623479e-09 -4.9095056256661765e-08 4.716034577422369" Properties=species:S:1:pos:R:3:forces:R:3 energy=-61.46348571777344 free_energy=-61.46348571777344 stress="2.9549290047725663e-05 8.16950063153854e-08 -2.3648805580478438e-08 8.16950063153854e-08 2.996330840687733e-05 5.4405184357619873e-08 -2.3648805580478438e-08 5.4405184357619873e-08 2.9649248972418718e-05" pbc="T T T"
Cr       1.36140234       0.96265626       2.35801722       0.00000719      -0.00000092      -0.00000033
Cr       4.08420554       2.88796995       7.07405205       0.00000049       0.00000702       0.00000084
C       -0.00000081       0.00000140      -0.00000019      -0.00001217       0.00001446      -0.00000305
N        1.29992976       0.91918890       4.71603461       0.00070226       0.00049603      -0.00000090
N        4.14567779       2.93143679       4.71603447      -0.00070500      -0.00049663      -0.00000076
N        3.43424088       0.91918849       3.48378930      -0.00035137       0.00049078       0.00060439
N        2.01136679       2.93143670       5.94827936       0.00035477      -0.00050116      -0.00061440
N        2.01136689       2.93143643       3.48378963       0.00035584      -0.00050187       0.00061512
N        3.43424068       0.91918858       5.94828027      -0.00035167       0.00049186      -0.00060070
