9
Lattice="5.39436988680286 -3.218125248552951e-08 3.114440823798943 1.798123268985888 5.085860553144431 3.1144408173458413 2.2899828632864294e-09 -6.284154427520915e-09 6.228881643631531" Properties=species:S:1:pos:R:3:forces:R:3 energy=-41.78766632080078 free_energy=-41.78766632080078 stress="-0.000498712994158268 -1.262133952906197e-08 -6.436404742515833e-09 -1.262133952906197e-08 -0.0004986779531463981 9.6274321848e-09 -6.436404742515833e-09 9.6274321848e-09 -0.0004987079300917685" pbc="T T T"
Cr       1.79812342       1.27146480       3.11444049       0.00000274      -0.00000087      -0.00000171
Cr       5.39436968       3.81439527       9.34332239      -0.00000235      -0.00000162       0.00000258
Cu      -0.00000023       0.00000017       0.00000103       0.00000051      -0.00000187      -0.00001400
S        1.85052827       1.30852097       6.22888210      -0.00735736      -0.00520188       0.00000199
S        5.34196476       3.77733967       6.22888158       0.00735742       0.00520456      -0.00000192
S        4.46910576       1.30852074       4.71704472       0.00367466      -0.00519812      -0.00636959
S        2.72338755       3.77733916       7.74071793      -0.00368074       0.00520551       0.00637597
S        2.72338748       3.77733999       4.71704490      -0.00367492       0.00519973      -0.00636911
S        4.46910590       1.30852128       7.74071790       0.00368014      -0.00520539       0.00637621
