9
Lattice="4.666306845348525 2.727512635706069e-08 2.6940934542397086 1.5554356283873334 4.399436315828313 2.694093475793485 -4.522014453450945e-08 -5.577590494965707e-09 5.388186986803006" Properties=species:S:1:pos:R:3:forces:R:3 energy=-42.245460510253906 free_energy=-42.245460510253906 stress="0.00020861430675722659 1.3648971730617632e-08 8.11150115964665e-08 1.3648971730617632e-08 0.00020851167209912091 8.325826428290384e-08 8.11150115964665e-08 8.325826428290384e-08 0.00020852984744124115" pbc="T T T"
Cr       1.55543549       1.09985944       2.69409434       0.00000082       0.00000316       0.00000917
Cr       4.66630723       3.29957704       8.08227945       0.00000449      -0.00000383      -0.00000933
Cd       0.00000011       0.00000002      -0.00000019      -0.00000308       0.00000146       0.00000280
O        1.74475690       1.23372992       5.38818734      -0.00163472      -0.00115034       0.00000008
O        4.47698545       3.16570639       5.38818757       0.00163573       0.00115252       0.00000497
O        3.79392769       1.23372950       4.20509728       0.00081053      -0.00115618      -0.00141627
O        2.42781447       3.16570745       6.57127638      -0.00081256       0.00115755       0.00140983
O        2.42781376       3.16570608       4.20509721      -0.00082162       0.00114799      -0.00141406
O        3.79392855       1.23372955       6.57127638       0.00082067      -0.00115237       0.00141281
