9
Lattice="4.3929480743403735 7.144373453237806e-09 2.536269566788308 1.4643160053923558 4.14171133348843 2.5362696120356203 -1.705893949858701e-07 -6.520850554581156e-08 5.072539429046106" Properties=species:S:1:pos:R:3:forces:R:3 energy=-48.80223846435547 free_energy=-48.80223846435547 stress="-6.316722283372656e-05 1.0886692791700625e-07 1.3599121473362175e-07 1.0886692791700625e-07 -6.29258865956217e-05 5.4063626464539993e-08 1.3599121473362175e-07 5.4063626464539993e-08 -6.347562884911895e-05" pbc="T T T"
Cr       1.46431667       1.03542534       2.53627159       0.00000939      -0.00002564       0.00001984
Cr       4.39294843       3.10628535       7.60880750       0.00000509       0.00001778      -0.00001336
Cu      -0.00000006       0.00000016      -0.00000006       0.00000113      -0.00000188       0.00000102
O        1.50510167       1.06426750       5.07253818      -0.00497681      -0.00352111      -0.00001029
O        4.35216205       3.07744423       5.07254027       0.00497162       0.00352547       0.00000844
O        3.64039640       1.06426674       3.83972566       0.00247842      -0.00352395      -0.00430590
O        2.21686695       3.07744451       6.30535253      -0.00248426       0.00352743       0.00430280
O        2.21686675       3.07744442       3.83972612      -0.00248921       0.00352320      -0.00430357
O        3.64039685       1.06426682       6.30535259       0.00248465      -0.00352117       0.00430214
