9
Lattice="5.722904234230305 5.991872158948762e-08 3.304120425986021 1.9076348025378183 5.395605715458279 3.3041204237300086 -1.407091226146578e-08 -1.2712637420950673e-08 6.608240876343598" Properties=species:S:1:pos:R:3:forces:R:3 energy=-35.59831237792969 free_energy=-35.59831237792969 stress="5.223985681368504e-06 1.7367964844083872e-08 -2.8664020490509756e-08 1.7367964844083872e-08 5.389114448917098e-06 1.1627968810046241e-08 -2.8664020490509756e-08 1.1627968810046241e-08 5.212234100326896e-06" pbc="T T T"
Cr       1.90763384       1.34890379       3.30412019      -0.00000798       0.00001914      -0.00000059
Cr       5.72290410       4.04670362       9.91236117      -0.00000042      -0.00000547      -0.00000194
Cd      -0.00000010       0.00000014      -0.00000019      -0.00000076      -0.00000172       0.00000026
Se       2.17449116       1.53759799       6.60824106       0.00002727       0.00002404      -0.00000038
Se       5.45604823       3.85800676       6.60824083      -0.00002271      -0.00002652      -0.00000130
Se       4.63565907       1.53759812       5.18728572      -0.00001071       0.00002183       0.00002562
Se       2.99488063       3.85800697       8.02919667       0.00001408      -0.00002633      -0.00002192
Se       2.99488034       3.85800717       5.18728501       0.00001313      -0.00002830       0.00002259
Se       4.63565871       1.53759846       8.02919643      -0.00001194       0.00002325      -0.00002247
