9
Lattice="5.347647132642144 -1.1231674910626993e-07 3.0874655731216536 1.7825489908710184 5.041809877386493 3.087465482101946 4.256537175540374e-08 -8.137759423088338e-08 6.17493107251793" Properties=species:S:1:pos:R:3:forces:R:3 energy=-47.188594818115234 free_energy=-47.188594818115234 stress="-1.5518240843448439e-06 2.2710779035151063e-08 -1.4103781253993475e-08 2.2710779035151063e-08 -1.5120622265385464e-06 2.6824615861897882e-09 -1.4103781253993475e-08 2.6824615861897882e-09 -1.5544868574579596e-06" pbc="T T T"
Cr       1.78255007       1.26045334       3.08746527       0.00000718       0.00000885      -0.00000350
Cr       5.34764623       3.78135642       9.26239739      -0.00000673      -0.00000748       0.00000790
Co      -0.00000022      -0.00000012      -0.00000023       0.00000029       0.00000096       0.00000084
S        1.76392923       1.24728622       6.17493100      -0.00222605      -0.00157177       0.00000021
S        5.36626722       3.79452346       6.17493051       0.00222450       0.00157097      -0.00000382
S        4.46568253       1.24728647       4.61507268       0.00111291      -0.00156894      -0.00192958
S        2.66451327       3.79452306       7.73478966      -0.00111233       0.00156727       0.00192812
S        2.66451406       3.79452353       4.61507256      -0.00110868       0.00157040      -0.00192949
S        4.46568227       1.24728636       7.73478968       0.00110894      -0.00157028       0.00192955
