9
Lattice="4.139949481619037 2.780354335474941e-08 2.390201004217462 1.379983168440881 3.9031819440204383 2.3902010359351715 -1.0589712740662695e-08 3.135805520580492e-08 4.780402026776821" Properties=species:S:1:pos:R:3:forces:R:3 energy=-62.27742385864258 free_energy=-62.27742385864258 stress="7.930649735499173e-05 -1.2972049034942756e-07 -1.3417842836815908e-08 -1.2972049034942756e-07 7.905563688836992e-05 2.437154122958418e-08 -1.3417842836815908e-08 2.437154122958418e-08 7.929655839689076e-05" pbc="T T T"
Cr       1.37998195       0.97579525       2.39020092      -0.00002202      -0.00000474      -0.00000340
Cr       4.13994952       2.92738607       7.17060338      -0.00000046      -0.00000773       0.00000362
Co      -0.00000007       0.00000016       0.00000028      -0.00000302      -0.00000631      -0.00001922
N        1.41748908       1.00231596       4.78040198      -0.00127917      -0.00090323      -0.00000086
N        4.10244387       2.90086569       4.78040154       0.00128802       0.00090759      -0.00000200
N        3.43120544       1.00231643       3.61778272       0.00064642      -0.00090193      -0.00110552
N        2.08872776       2.90086587       5.94302135      -0.00064542       0.00091702       0.00111888
N        2.08872785       2.90086622       3.61778273      -0.00063919       0.00090827      -0.00110623
N        3.43120520       1.00231636       5.94302143       0.00065457      -0.00090869       0.00111428
