9
Lattice="5.607586295643204 3.1869019001501788e-09 3.2375416737707647 1.869195474797529 5.286883227974596 3.23754160464145 7.390383434293843e-08 -3.240781942387115e-08 6.475083219536323" Properties=species:S:1:pos:R:3:forces:R:3 energy=-43.973812103271484 free_energy=-43.973812103271484 stress="6.338523235172033e-05 -5.369264144405861e-09 -1.777717528739231e-09 -5.369264144405861e-09 6.336634396575391e-05 -1.0584968457294508e-08 -1.777717528739231e-09 -1.0584968457294508e-08 6.334466888802126e-05" pbc="T T T"
Cr       1.86919525       1.32172101       3.23754173      -0.00000170       0.00000036       0.00000061
Cr       5.60758674       3.96516246       9.71262485       0.00000244       0.00000133      -0.00000216
Co       0.00000005      -0.00000015      -0.00000059      -0.00000012       0.00000039       0.00000253
Se       1.87076093       1.32282809       6.47508299      -0.00595225      -0.00420683      -0.00000047
Se       5.60602070       3.96405525       6.47508343       0.00595121       0.00420796       0.00000036
Se       4.67220608       1.32282759       4.85766842       0.00297549      -0.00420973      -0.00515477
Se       2.80457606       3.96405540       8.09249853      -0.00297504       0.00420678       0.00515363
Se       2.80457582       3.96405569       4.85766839      -0.00297625       0.00420949      -0.00515302
Se       4.67220575       1.32282752       8.09249829       0.00297624      -0.00420963       0.00515333
