9
Lattice="5.546879889178346 -5.913422481500847e-08 3.2024925840947396 1.8489599172783442 5.229648275554976 3.202492566824132 4.5680839039804794e-08 1.114918097799083e-08 6.40498508906786" Properties=species:S:1:pos:R:3:forces:R:3 energy=-36.9090576171875 free_energy=-36.9090576171875 stress="-0.000465130724478513 1.017486805920953e-08 2.2289483592174975e-09 1.017486805920953e-08 -0.0004651144554372877 -1.1447256476060375e-08 2.2289483592174975e-09 -1.1447256476060375e-08 -0.00046514460700564086" pbc="T T T"
Cr       1.84896067       1.30741141       3.20249273       0.00000182      -0.00000411      -0.00000103
Cr       5.54687934       3.92223732       9.60747821      -0.00000213       0.00000806       0.00000350
Cd      -0.00000028       0.00000023       0.00000017       0.00000329      -0.00000239       0.00000161
S        1.98963921       1.40688714       6.40498538       0.00791118       0.00558946       0.00000112
S        5.40620061       3.82276130       6.40498485      -0.00791118      -0.00559135      -0.00000141
S        4.55206037       1.40688687       4.92557043      -0.00395621       0.00559181       0.00685140
S        2.84377985       3.82276112       7.88439930       0.00395517      -0.00559014      -0.00684890
S        2.84377963       3.82276103       4.92557049       0.00395580      -0.00559065       0.00684705
S        4.55206005       1.40688650       7.88439943      -0.00395758       0.00558926      -0.00685325
