9
Lattice="5.15846151949354 5.2809927467899505e-08 2.9782390896758906 1.7194872667320629 4.8634440423041685 2.9782390138502874 1.8687662741651732e-07 3.927480950975393e-08 5.956477855671905" Properties=species:S:1:pos:R:3:forces:R:3 energy=-44.051170349121094 free_energy=-44.051170349121094 stress="-0.00012580402835737914 6.292734155977087e-08 -4.1743771106439453e-08 6.292734155977087e-08 -0.00012582771887537092 -1.0113558346347418e-07 -4.1743771106439453e-08 -1.0113558346347418e-07 -0.0001257446565432474" pbc="T T T"
Cr       1.71948657       1.21586041       2.97823935      -0.00003295      -0.00000648       0.00004855
Cr       5.15846320       3.64758265       8.93472236      -0.00001497      -0.00000177       0.00009501
C        0.00006442       0.00000068      -0.00012668       0.00202250       0.00001657      -0.00397892
S        1.61267938       1.14033721       5.95647782       0.00103176       0.00073463       0.00000077
S        5.26522625       3.72307800       5.95647491      -0.00235486      -0.00166219      -0.00002781
S        4.35209003       1.14038550       4.37491945      -0.00155360       0.00222611       0.00271732
S        2.52581287       3.72312416       7.53811653       0.00011259      -0.00018424      -0.00022650
S        2.52585040       3.72307576       4.37490159       0.00124758      -0.00174934       0.00215924
S        4.35212267       1.14033236       7.53809859      -0.00045782       0.00062633      -0.00078672
