9
Lattice="4.088250856084492 8.677591342835946e-08 2.3603534208265162 1.3627503790172726 3.8544403071897753 2.36035340031446 1.2833316736996738e-08 -1.6047525183283944e-08 4.720706819425097" Properties=species:S:1:pos:R:3:forces:R:3 energy=-56.346031188964844 free_energy=-56.346031188964844 stress="-0.0005451429169625044 -2.2233361107737437e-07 -1.9408895468586707e-07 -2.2233361107737437e-07 -0.0005456636426970363 -2.7111806844004604e-07 -1.9408895468586707e-07 -2.7111806844004604e-07 -0.0005451894248835742" pbc="T T T"
Cr       1.36274849       0.96361038       2.36035245      -0.00002420       0.00000028      -0.00001193
Cr       4.08825040       2.89082825       7.08106118      -0.00000604      -0.00001239       0.00000045
C       -0.00000154       0.00000025      -0.00000163      -0.00002355      -0.00000639      -0.00001614
O        1.25668491       0.88861085       4.72070782       0.00288868       0.00204527       0.00000657
O        4.19431728       2.96583040       4.72070677      -0.00287879      -0.00203884       0.00000283
O        3.45990913       0.88861071       3.44867490      -0.00143319       0.00204492       0.00249553
O        1.99109299       2.96583007       5.99273931       0.00144958      -0.00203443      -0.00248587
O        1.99109363       2.96582994       3.44867484       0.00145108      -0.00203967       0.00249660
O        3.45990973       0.88861068       5.99273933      -0.00142491       0.00204265      -0.00248694
