9
Lattice="5.684914361304986 -4.923647018524756e-08 3.2821869555411354 1.8949714503073845 5.359788387891909 3.282186881132844 9.155198305553797e-08 -2.6394144121582604e-08 6.564373752509609" Properties=species:S:1:pos:R:3:forces:R:3 energy=-45.82498550415039 free_energy=-45.82498550415039 stress="-4.334239929448813e-05 5.5046680103032486e-08 1.5315443135932583e-08 5.5046680103032486e-08 -4.334646655479446e-05 1.2595192666609023e-09 1.5315443135932583e-08 1.2595192666609023e-09 -4.3423828174127266e-05" pbc="T T T"
Cr       1.89496988       1.33994636       3.28218614      -0.00000912      -0.00000498      -0.00000508
Cr       5.68491489       4.01984149       9.84655932       0.00000247       0.00000333      -0.00001048
Fe       0.00000016       0.00000002       0.00000009      -0.00000571      -0.00000173      -0.00000391
Se       1.86608391       1.31952059       6.56437439      -0.00017944      -0.00012703       0.00000315
Se       5.71380183       4.04026765       6.56437476       0.00018576       0.00012973       0.00000487
Se       4.75187304       1.31952017       4.89826285       0.00009131      -0.00012669      -0.00014979
Se       2.82801352       4.04026849       8.23048510      -0.00008805       0.00012760       0.00015524
Se       2.82801322       4.04026827       4.89826288      -0.00008915       0.00012770      -0.00015011
Se       4.75187320       1.31952017       8.23048472       0.00009203      -0.00012799       0.00015622
