9
Lattice="5.428634863697723 1.687988138204783e-07 3.13422377431602 1.8095451736186925 5.118166397823125 3.134223670552794 1.2165212498943524e-07 -4.106242759093946e-08 6.268447337924375" Properties=species:S:1:pos:R:3:forces:R:3 energy=-48.59825897216797 free_energy=-48.59825897216797 stress="4.247184915584512e-05 1.408324123985949e-08 5.015627024818059e-08 1.408324123985949e-08 4.2436957301106304e-05 -9.05692587593876e-08 5.015627024818059e-08 -9.05692587593876e-08 4.2426134314155206e-05" pbc="T T T"
Cr       1.80954559       1.27954171       3.13422379       0.00000226       0.00000116       0.00000002
Cr       5.42863551       3.83862503       9.40267129       0.00000398       0.00000035      -0.00000207
Fe       0.00000011      -0.00000139       0.00000061      -0.00000156       0.00003369      -0.00001128
S        1.78460849       1.26190840       6.26844727       0.00118619       0.00084212      -0.00000029
S        5.45357211       3.85625771       6.26844753      -0.00120127      -0.00085029       0.00000039
S        4.53633092       1.26190813       4.67973947      -0.00059980       0.00084189       0.00103498
S        2.70184877       3.85625897       7.85715549       0.00060055      -0.00085038      -0.00104684
S        2.70184917       3.85625810       4.67973886       0.00060210      -0.00085360       0.00104499
S        4.53633006       1.26190946       7.85715483      -0.00059259       0.00083512      -0.00101942
