9
Lattice="4.511764110769537 -1.6098314958233345e-07 2.6048680973919343 1.5039211840065618 4.253732095753922 2.604868157101886 -1.2280754404624936e-07 -1.3708584949517489e-08 5.209736407492741" Properties=species:S:1:pos:R:3:forces:R:3 energy=-52.919471740722656 free_energy=-52.919471740722656 stress="1.157353472081013e-05 6.210674285966888e-08 -5.124708479797846e-08 6.210674285966888e-08 1.1750345947802998e-05 1.5773224504300742e-07 -5.124708479797846e-08 1.5773224504300742e-07 1.155826794274617e-05" pbc="T T T"
Cr       1.50392121       1.06343266       2.60486858       0.00000200       0.00000045       0.00000435
Cr       4.51176527       3.19029851       7.81460562       0.00001233      -0.00000836       0.00001522
Fe      -0.00000012       0.00000005       0.00000022      -0.00000199      -0.00000259      -0.00000407
O        1.45706297       1.03029981       5.20973616       0.00352794       0.00249879      -0.00000365
O        4.55862162       3.22343213       5.20973608      -0.00352627      -0.00249021      -0.00000395
O        3.78323220       1.03030030       3.86672151      -0.00176547       0.00249572       0.00305524
O        2.23245245       3.22343232       6.55275006       0.00175636      -0.00249000      -0.00306033
O        2.23245279       3.22343249       3.86672180       0.00176048      -0.00249572       0.00305973
O        3.78323197       1.03029943       6.55275045      -0.00176533       0.00249173      -0.00306225
