9
Lattice="5.768169965661863 -7.242899899552455e-08 3.330254500036113 1.9227232780653043 5.438282601744626 3.330254457662004 3.202769463258044e-08 -2.9250478276498193e-08 6.66050894459873" Properties=species:S:1:pos:R:3:forces:R:3 energy=-40.15576171875 free_energy=-40.15576171875 stress="-0.0001586897997185588 -2.7649234013438218e-08 1.2203718924297391e-08 -2.7649234013438218e-08 -0.00015866592002566904 -1.3472826410065863e-08 1.2203718924297391e-08 -1.3472826410065863e-08 -0.00015869499475229532" pbc="T T T"
Cr       1.92272391       1.35957048       3.33025440       0.00000368      -0.00000309       0.00000000
Cr       5.76817060       4.07871318       9.99076269       0.00000537       0.00001068      -0.00000561
Ge      -0.00000001      -0.00000019       0.00000008      -0.00000112       0.00000363      -0.00000053
Se       1.99263932       1.40900824       6.66050873      -0.00016502      -0.00011927      -0.00000093
Se       5.69825420       4.02927387       6.66050952       0.00016516       0.00011697       0.00000316
Se       4.77184976       1.40900794       5.05593103       0.00008093      -0.00012363      -0.00014268
Se       2.91904265       4.02927410       8.26508719      -0.00008512       0.00011779       0.00014235
Se       2.91904284       4.02927386       5.05593092      -0.00008494       0.00011815      -0.00014119
Se       4.77184985       1.40900850       8.26508706       0.00008103      -0.00012116       0.00014551
