9
Lattice="4.410735845508897 -2.262875457576148e-07 2.546539481473797 1.4702451481113292 4.158481048715917 2.5465393435662182 2.56530323076756e-08 -1.5076217018756866e-07 5.093078918515254" Properties=species:S:1:pos:R:3:forces:R:3 energy=-53.83709716796875 free_energy=-53.83709716796875 stress="-0.00014431188174057752 -3.9427973774763814e-08 -3.977193330229056e-08 -3.9427973774763814e-08 -0.00014437166100833565 -1.867893573148649e-08 -3.977193330229056e-08 -1.867893573148649e-08 -0.0001441984495613724" pbc="T T T"
Cr       1.47024570       1.03961983       2.54653922       0.00000276      -0.00000311       0.00000075
Cr       4.41073527       3.11885927       7.63961835      -0.00000439      -0.00001306      -0.00000098
Ge       0.00000004       0.00000006      -0.00000006       0.00000489       0.00000053      -0.00000128
O        1.50709844       1.06567927       5.09307883      -0.00170946      -0.00120586      -0.00000099
O        4.37388254       3.09280168       5.09307900       0.00170231       0.00120848       0.00000097
O        3.65718661       1.06567984       3.85172470       0.00085598      -0.00120068      -0.00148392
O        2.22379457       3.09280162       6.33443297      -0.00085396       0.00120807       0.00148010
O        2.22379450       3.09280176       3.85172481      -0.00085181       0.00121248      -0.00147820
O        3.65718656       1.06567939       6.33443300       0.00085396      -0.00120658       0.00148439
