9
Lattice="6.222851244492847 -4.1103268276663546e-08 3.5927647372289484 2.074283701834144 5.866960331915034 3.5927647503537665 -6.299153076555444e-08 -2.846721436192256e-08 7.185529583562468" Properties=species:S:1:pos:R:3:forces:R:3 energy=-37.3236083984375 free_energy=-37.3236083984375 stress="-4.231625553074991e-06 -2.3811473681689677e-08 -8.040631493955175e-10 -2.3811473681689677e-08 -4.220867140247719e-06 1.1874713656823133e-08 -8.040631493955175e-10 1.1874713656823133e-08 -4.212237854517298e-06" pbc="T T T"
Cr       2.07428360       1.46673951       3.59276444      -0.00000166      -0.00000204      -0.00000097
Cr       6.22285169       4.40022059      10.77829323       0.00000399       0.00000119      -0.00000389
Ge      -0.00000011      -0.00000003      -0.00000022       0.00000248       0.00000066      -0.00000005
Te       2.21173324       1.56393126       7.18552931       0.00007018       0.00005016      -0.00000012
Te       6.08540181       4.30302904       7.18552990      -0.00007376      -0.00005147       0.00000204
Te       5.11698486       1.56393113       5.50818242      -0.00003443       0.00004884       0.00006399
Te       3.18014984       4.30302910       8.86287727       0.00003473      -0.00004984      -0.00006272
Te       3.18014996       4.30302909       5.50818222       0.00003441      -0.00004949       0.00006334
Te       5.11698462       1.56393139       8.86287768      -0.00003584       0.00005206      -0.00006156
