9
Lattice="4.051296526505492 -1.9359739336923274e-06 2.3390174126986456 1.350430522485764 3.8195998727586327 2.339017114375036 -8.108918847880603e-08 -4.2270903245689364e-07 4.678034965847897" Properties=species:S:1:pos:R:3:forces:R:3 energy=-58.15977096557617 free_energy=-58.15977096557617 stress="2.5097194793488597e-06 7.267518412845675e-06 9.62578269536607e-07 7.267518412845675e-06 5.698253971786471e-06 1.1248038163103047e-06 9.62578269536607e-07 1.1248038163103047e-06 1.2290688573557418e-05" pbc="T T T"
Cr       1.35041253       0.95490291       2.33902835      -0.00031558       0.00004494       0.00015785
Cr       4.05132118       2.86469621       7.01706726       0.00038740      -0.00002051       0.00023352
Ge      -0.00000011       0.00000070      -0.00000316      -0.00000174      -0.00001053      -0.00001974
N        1.55979772       1.10295491       4.67803388      -0.00033528       0.00001967      -0.00001292
N        3.84192202       2.71663566       4.67802854       0.00027186      -0.00007105      -0.00010462
N        3.27140272       1.10295117       3.68985524       0.00030971      -0.00012389      -0.00003439
N        2.13031416       2.71666029       5.66620916      -0.00044113       0.00028989      -0.00007421
N        2.13032631       2.71665118       3.68985234      -0.00026721       0.00018483      -0.00005776
N        3.27141086       1.10293672       5.66620668       0.00039160      -0.00031364      -0.00008798
