9
Lattice="5.719956136669533 1.1209057275578537e-07 3.302418253517236 1.9066521367905578 5.39282632413113 3.3024182785383585 -2.021090883825246e-08 1.6353215444607134e-08 6.60483654204083" Properties=species:S:1:pos:R:3:forces:R:3 energy=-46.61591720581055 free_energy=-46.61591720581055 stress="-8.739448094274849e-05 -1.4169985185219502e-09 1.620530021284594e-08 -1.4169985185219502e-09 -8.742739737499505e-05 -1.7412286723583748e-08 1.620530021284594e-08 -1.7412286723583748e-08 -8.740475459489971e-05" pbc="T T T"
Cr       1.90665267       1.34820659       3.30241835       0.00000089       0.00000012      -0.00000073
Cr       5.71995581       4.04461972       9.90725406       0.00000023      -0.00000170      -0.00000283
Mn      -0.00000005       0.00000026      -0.00000017       0.00000201      -0.00001009      -0.00000482
Se       1.90087888       1.34412465       6.60483666       0.00642094       0.00454044      -0.00000009
Se       5.72572897       4.04870193       6.60483694      -0.00641647      -0.00453687       0.00000117
Se       4.76951671       1.34412412       4.94862723      -0.00321363       0.00454387       0.00556353
Se       2.85709179       4.04870188       8.26104576       0.00320944      -0.00453693      -0.00555521
Se       2.85709134       4.04870220       4.94862777       0.00320871      -0.00453898       0.00555897
Se       4.76951690       1.34412439       8.26104566      -0.00321193       0.00454029      -0.00556007
