9
Lattice="5.4788490235828755 -6.83170384062569e-08 3.163215062502808 1.8262829150425652 5.16550836850689 3.163215111707734 -6.642580279218813e-08 1.32933792521135e-08 6.3264302400584915" Properties=species:S:1:pos:R:3:forces:R:3 energy=-49.88180160522461 free_energy=-49.88180160522461 stress="-0.0003381060669198632 -2.543744770377998e-08 -1.6163500760058014e-08 -2.543744770377998e-08 -0.00033807571162469685 9.69469571288073e-09 -1.6163500760058014e-08 9.69469571288073e-09 -0.0003380895359441638" pbc="T T T"
Cr       1.82628293       1.29137616       3.16321518      -0.00000090      -0.00000649       0.00000146
Cr       5.47884901       3.87413183       9.48964436       0.00000109       0.00000525      -0.00000844
Mn      -0.00000043       0.00000027       0.00000039       0.00000765      -0.00000212      -0.00000720
S        1.80739903       1.27802406       6.32643025       0.00752610       0.00532064       0.00000024
S        5.49773291       3.88748454       6.32643090      -0.00753272      -0.00532407       0.00000418
S        4.57514911       1.27802372       4.72846900      -0.00376612       0.00532249       0.00652295
S        2.72998291       3.88748436       7.92439117       0.00376341      -0.00531736      -0.00651479
S        2.72998243       3.88748433       4.72846911       0.00376359      -0.00532088       0.00652057
S        4.57514942       1.27802397       7.92439123      -0.00376201       0.00532252      -0.00651884
