9
Lattice="5.6532739845890605 2.71399994297807e-08 3.2639189162212 1.884424630170991 5.32995775005175 3.263919014855358 -3.630161415353414e-08 9.513268477082428e-08 6.527837895318494" Properties=species:S:1:pos:R:3:forces:R:3 energy=-37.468021392822266 free_energy=-37.468021392822266 stress="0.00016224500723183155 -1.2510087188388752e-08 -4.234669859215501e-08 -1.2510087188388752e-08 0.00016216713993344456 2.089743666999766e-08 -4.234669859215501e-08 2.089743666999766e-08 0.0001623585121706128" pbc="T T T"
Cr       1.88442375       1.33248776       3.26391911      -0.00000605      -0.00001249      -0.00000025
Cr       5.65327328       3.99746888       9.79175442      -0.00000626       0.00000530      -0.00001594
Mg      -0.00000004       0.00000026       0.00000004      -0.00000148      -0.00000075       0.00000251
Se       2.08135977       1.47174312       6.52783756      -0.00465017      -0.00329366      -0.00000131
Se       5.45633842       3.85821480       6.52783883       0.00465220       0.00329604       0.00000725
Se       4.61259430       1.47174292       5.06643050       0.00232886      -0.00329871      -0.00402523
Se       2.92510564       3.85821514       7.98924618      -0.00231888       0.00329641       0.00403007
Se       2.92510449       3.85821459       5.06643010      -0.00232822       0.00329589      -0.00402680
Se       4.61259469       1.47174400       7.98924658       0.00233015      -0.00328799       0.00402982
