9
Lattice="6.224977890054406 -1.2485284855728743e-07 3.593992601800613 2.074992515521879 5.868965494868681 3.5939925962300774 -4.374915253556973e-08 -3.775776343093779e-08 7.187985279376919" Properties=species:S:1:pos:R:3:forces:R:3 energy=-35.00028610229492 free_energy=-35.00028610229492 stress="-5.0305974582443014e-05 2.1296906460577247e-09 5.8027915805780594e-09 2.1296906460577247e-09 -5.027344377595e-05 4.68047933743776e-10 5.8027915805780594e-09 4.68047933743776e-10 -5.026652797823772e-05" pbc="T T T"
Cr       2.07499212       1.46724205       3.59399264      -0.00000300       0.00000441      -0.00000004
Cr       6.22497857       4.40172344      10.78197802       0.00000344      -0.00000408       0.00000053
Mg      -0.00000023      -0.00000030      -0.00000151       0.00000002       0.00000251       0.00001417
Te       2.25123780       1.59186602       7.18798524      -0.00105140      -0.00074039       0.00000054
Te       6.04873278       4.27709935       7.18798514       0.00104989       0.00073910       0.00000064
Te       5.09935885       1.59186639       5.54362253       0.00053014      -0.00074594      -0.00091385
Te       3.20061100       4.27709981       8.83234850      -0.00052375       0.00073701       0.00090434
Te       3.20061149       4.27709907       5.54362268      -0.00052968       0.00074557      -0.00091278
Te       5.09935907       1.59186549       8.83234864       0.00052435      -0.00073828       0.00090641
