9
Lattice="4.406618976151558 8.606138093996025e-08 2.544162789075376 1.4688730901665026 4.154600200949785 2.5441627596711505 3.078471603771024e-08 -1.4244582790938257e-08 5.088325524830062" Properties=species:S:1:pos:R:3:forces:R:3 energy=-47.43301773071289 free_energy=-47.43301773071289 stress="-5.2743627747986466e-05 -9.245044196859453e-08 1.4210975507467083e-08 -9.245044196859453e-08 -5.2410527132451534e-05 7.884114694434174e-08 1.4210975507467083e-08 7.884114694434174e-08 -5.271549889585003e-05" pbc="T T T"
Cr       1.46887425       1.03864892       2.54416343       0.00001254      -0.00001259       0.00001128
Cr       4.40662124       3.11595133       7.63248762       0.00003106       0.00001500      -0.00000629
Mg       0.00000006       0.00000006       0.00000009       0.00000586      -0.00000088      -0.00000144
O        1.56388847       1.10583597       5.08832519       0.00014296       0.00009954      -0.00000591
O        4.31160317       3.04876472       5.08832610      -0.00015217      -0.00009631       0.00000266
O        3.62467405       1.10583580       3.89853014      -0.00008172       0.00009495       0.00012678
O        2.25081647       3.04876425       6.27812026       0.00005898      -0.00009561      -0.00013009
O        2.25081630       3.04876395       3.89853041       0.00006038      -0.00010094       0.00012964
O        3.62467444       1.10583605       6.27812113      -0.00007792       0.00009689      -0.00012699
