9
Lattice="6.018977468740333 -2.254313957757229e-09 3.475058149153035 2.006325845562271 5.674746297376992 3.4750581062428956 3.881795777786586e-08 -2.5105595974918484e-08 6.95011623107142" Properties=species:S:1:pos:R:3:forces:R:3 energy=-43.37514877319336 free_energy=-43.37514877319336 stress="-0.0001369931997032836 1.1459348137066172e-08 -4.417869181594369e-09 1.1459348137066172e-08 -0.00013699893315788358 7.261991008533641e-10 -4.417869181594369e-09 7.261991008533641e-10 -0.00013698521070182323" pbc="T T T"
Cr       2.00632612       1.41868543       3.47505807       0.00000312      -0.00000659      -0.00000088
Cr       6.01897793       4.25605953      10.42517357       0.00000216      -0.00000020      -0.00000321
Mn       0.00000026       0.00000003      -0.00000026      -0.00000420      -0.00000208      -0.00000094
Te       2.03610867       1.43974652       6.95011618       0.00804260       0.00568727      -0.00000028
Te       5.98919410       4.23500041       6.95011683      -0.00804065      -0.00568238       0.00000035
Te       5.00092307       1.43974602       5.23837998      -0.00402139       0.00568701       0.00696573
Te       3.02438034       4.23500023       8.66185233       0.00402019      -0.00568391      -0.00696377
Te       3.02438000       4.23500051       5.23838051       0.00402027      -0.00568572       0.00696592
Te       5.00092290       1.43974639       8.66185277      -0.00402207       0.00568654      -0.00696287
