9
Lattice="4.333007021349929 2.3195250869963765e-07 2.5016627135868847 1.4443358882005373 4.0851979145257715 2.5016627209821722 1.7712606562061905e-07 1.343044057434804e-07 5.00332512038238" Properties=species:S:1:pos:R:3:forces:R:3 energy=-48.65020751953125 free_energy=-48.65020751953125 stress="-0.0003886226622853428 -9.794103306148827e-08 -3.529676462221687e-08 -9.794103306148827e-08 -0.00038856081664562225 -3.059982489617141e-08 -3.529676462221687e-08 -3.059982489617141e-08 -0.00038885074900463223" pbc="T T T"
Cr       1.44433319       1.02129874       2.50166288      -0.00002271      -0.00000338       0.00000273
Cr       4.33300822       3.06389981       7.50498994       0.00000628       0.00000612       0.00001930
Ni      -0.00000004       0.00000038      -0.00000022       0.00000992      -0.00001395       0.00001234
O        1.44839726       1.02417142       5.00332476       0.00548598       0.00387587      -0.00000111
O        4.32894660       3.06102624       5.00332477      -0.00548448      -0.00388044      -0.00000596
O        3.60880922       1.02417164       3.75601177      -0.00273346       0.00387335       0.00475138
O        2.16853380       3.06102722       6.25063847       0.00273845      -0.00386905      -0.00475746
O        2.16853507       3.06102630       3.75601111       0.00274421      -0.00386692       0.00474036
O        3.60880918       1.02417131       6.25063882      -0.00274441       0.00387831      -0.00476130
