9
Lattice="5.384322061290942 3.604619569478914e-08 3.1086396964457292 1.794774030919576 5.076387590027137 3.108639737141 -2.8875650361518017e-08 2.9423140352799165e-08 6.217279442905577" Properties=species:S:1:pos:R:3:forces:R:3 energy=-45.67652893066406 free_energy=-45.67652893066406 stress="-4.0304057620232925e-05 -3.0444198273471557e-09 3.147821558968644e-08 -3.0444198273471557e-09 -4.029836054542102e-05 -2.5672891368344608e-08 3.147821558968644e-08 -2.5672891368344608e-08 -4.029166666441597e-05" pbc="T T T"
Cr       1.79477274       1.26909738       3.10864017      -0.00000982       0.00000226       0.00000339
Cr       5.38432306       3.80729078       9.32591934       0.00000825       0.00000117       0.00000100
Ni       0.00000028       0.00000016      -0.00000063      -0.00001291      -0.00000285       0.00001887
S        1.77153215       1.25266276       6.21727932      -0.00113142      -0.00079602       0.00000071
S        5.40756370       3.82372433       6.21727916       0.00114155       0.00080302      -0.00000207
S        4.49855576       1.25266263       4.64283218       0.00057182      -0.00080824      -0.00098532
S        2.68053994       3.82372538       7.79172713      -0.00056434       0.00079590       0.00097162
S        2.68053999       3.82372458       4.64283229      -0.00057343       0.00080642      -0.00098515
S        4.49855663       1.25266264       7.79172660       0.00057033      -0.00080147       0.00097674
