9
Lattice="4.581459878880853 1.572633115666052e-08 2.645107141712 1.5271532816162035 4.319442073135219 2.645107187041528 -6.200000975202452e-08 1.1676479948473941e-08 5.290214390811155" Properties=species:S:1:pos:R:3:forces:R:3 energy=-61.78364562988281 free_energy=-61.78364562988281 stress="0.0002824098919518292 -4.773834305638047e-08 1.723678622056468e-08 -4.773834305638047e-08 0.0002820868685375899 -7.409356328480499e-08 1.723678622056468e-08 -7.409356328480499e-08 0.0002821556117851287" pbc="T T T"
Cr       1.52715306       1.07986101       2.64510733      -0.00000180       0.00000659       0.00000031
Cr       4.58146119       3.23958070       7.93532115       0.00000939      -0.00001041      -0.00000234
Nb       0.00000015       0.00000005      -0.00000007      -0.00000369       0.00000148      -0.00000239
O        1.60359933       1.13391669       5.29021445      -0.00418687      -0.00295317       0.00000060
O        4.50501323       3.18552550       5.29021458       0.00418651       0.00295496       0.00000154
O        3.77965992       1.13391629       4.03386507       0.00209123      -0.00295675      -0.00362110
O        2.32895268       3.18552596       6.54656355      -0.00209320       0.00295639       0.00362134
O        2.32895268       3.18552594       4.03386534      -0.00209427       0.00295722      -0.00362015
O        3.77966014       1.13391626       6.54656370       0.00209194      -0.00295639       0.00362277
