9
Lattice="5.638700192106263 1.6075406056024047e-08 3.255505331904038 1.8795666987787565 5.316217830842746 3.255505413447921 8.42266244273863e-08 1.5942766048231152e-07 6.511010517923418" Properties=species:S:1:pos:R:3:forces:R:3 energy=-42.70183181762695 free_energy=-42.70183181762695 stress="0.00022478988103102893 -2.5501760703150467e-08 -5.200233132995891e-09 -2.5501760703150467e-08 0.00022479706967715174 2.2364572416222472e-08 -5.200233132995891e-09 2.2364572416222472e-08 0.00022485118824988604" pbc="T T T"
Cr       1.87956804       1.32905622       3.25550574       0.00000808       0.00001161       0.00000169
Cr       5.63869962       3.98716385       9.76651714      -0.00000395       0.00000342       0.00000629
Ni      -0.00000010       0.00000006      -0.00000037       0.00000342      -0.00000018       0.00000240
Se       1.89584792       1.34056655       6.51101067       0.00509718       0.00360119      -0.00000164
Se       5.62241914       3.97565100       6.51101023      -0.00509867      -0.00360635      -0.00000231
Se       4.69077638       1.34056676       4.89735776      -0.00254887       0.00360200       0.00440970
Se       2.82749040       3.97565049       8.12466353       0.00254562      -0.00360563      -0.00441080
Se       2.82749060       3.97565042       4.89735715       0.00254810      -0.00360847       0.00440699
Se       4.69077601       1.34056665       8.12466335      -0.00255100       0.00360215      -0.00441250
