9
Lattice="6.307219800018938 -5.2463658694256324e-08 3.6414750815538373 2.1024065814686996 5.946503742918365 3.641475027989132 3.397685170288127e-08 -4.1577821931798674e-08 7.282950104258102" Properties=species:S:1:pos:R:3:forces:R:3 energy=-44.20618438720703 free_energy=-44.20618438720703 stress="-5.7523269788362086e-05 -8.92307916444679e-09 1.4176165130663776e-08 -8.92307916444679e-09 -5.750043783336878e-05 -2.2710985092544433e-08 1.4176165130663776e-08 -2.2710985092544433e-08 -5.7479475799482316e-05" pbc="T T T"
Cr       2.10240692       1.48662567       3.64147500       0.00000221      -0.00000075      -0.00000060
Cr       6.30721989       4.45987783      10.92442532       0.00000027       0.00000066       0.00000011
Nb       0.00000008      -0.00000015      -0.00000018       0.00000088      -0.00000004       0.00000146
Te       2.20397622       1.55844629       7.28295008      -0.00113231      -0.00080109       0.00000060
Te       6.20565033       4.38805743       7.28294996       0.00113171       0.00080034       0.00000034
Te       5.20523143       1.55844648       5.55017445       0.00056558      -0.00080133      -0.00098089
Te       3.20439456       4.38805735       9.01572585      -0.00056605       0.00079998       0.00098032
Te       3.20439474       4.38805732       5.55017464      -0.00056817       0.00080395      -0.00098289
Te       5.20523148       1.55844638       9.01572575       0.00056588      -0.00080169       0.00098154
