9
Lattice="4.236020874650921 1.3536006329265926e-07 2.445667972132345 1.4120070784193837 3.993758742033163 2.445667984977636 1.6648797501873596e-07 1.3345700335804807e-07 4.891335655899046" Properties=species:S:1:pos:R:3:forces:R:3 energy=-58.62113952636719 free_energy=-58.62113952636719 stress="-2.9511169486795552e-05 6.679019293187594e-08 -7.15218888558411e-08 6.679019293187594e-08 -2.9154500225558877e-05 3.7218443882380825e-09 -7.15218888558411e-08 3.7218443882380825e-09 -2.958334698632825e-05" pbc="T T T"
Cr       1.41201081       0.99843935       2.44566677       0.00005734      -0.00000145      -0.00001564
Cr       4.23602560       2.99532548       7.33700271       0.00007638       0.00008978      -0.00001524
Ni       0.00000073       0.00000017       0.00000023      -0.00001009      -0.00000238      -0.00000119
N        1.47267418       1.04133727       4.89133573      -0.00005409      -0.00005463       0.00000670
N        4.17535344       2.95242297       4.89133401       0.00005749       0.00006568      -0.00001253
N        3.49968217       1.04133251       3.72104406       0.00000131      -0.00010794      -0.00002429
N        2.14834272       2.95242150       6.06162961      -0.00005513       0.00004023       0.00004482
N        2.14834149       2.95242058       3.72104226      -0.00006524       0.00003561      -0.00004199
N        3.49968144       1.04133654       6.06163151      -0.00000814      -0.00006568       0.00005934
