9
Lattice="5.882961575446912 4.67355270953411e-08 3.3965293743185785 1.9609872463659817 5.546509427844161 3.3965293561534566 4.027021830262604e-08 6.227664309527908e-09 6.793058678887108" Properties=species:S:1:pos:R:3:forces:R:3 energy=-47.662899017333984 free_energy=-47.662899017333984 stress="-1.8912394807557575e-05 -3.4618846456169194e-08 1.4703721795683578e-08 -3.4618846456169194e-08 -1.8870756321121007e-05 -3.893191546922026e-08 1.4703721795683578e-08 -3.893191546922026e-08 -1.8880244169849902e-05" pbc="T T T"
Cr       1.96098742       1.38662714       3.39652936       0.00000256      -0.00000262       0.00000036
Cr       5.88296145       4.15988172      10.18958826      -0.00000248      -0.00000113       0.00000374
Nb       0.00000003       0.00000016       0.00000013       0.00000006       0.00000071      -0.00000324
Se       2.02788300       1.43392988       6.79305872      -0.00484031      -0.00342197      -0.00000015
Se       5.81606559       4.11257980       6.79305862       0.00483888       0.00342227      -0.00000139
Se       4.86902000       1.43392998       5.15272732       0.00241852      -0.00342046      -0.00419300
Se       2.97492892       4.11257969       8.43338983      -0.00242050       0.00342390       0.00419307
Se       2.97492899       4.11257961       5.15272748      -0.00241935       0.00342423      -0.00419483
Se       4.86902010       1.43392996       8.43338989       0.00242267      -0.00342482       0.00419547
