9
Lattice="6.000941656243974 2.9046922040548348e-08 3.4646453244599105 2.000313947635198 5.657741921052109 3.464645264124207 5.779902434024726e-08 -3.302577537688854e-08 6.929290548808972" Properties=species:S:1:pos:R:3:forces:R:3 energy=-40.225059509277344 free_energy=-40.225059509277344 stress="-2.9327033189474605e-05 -1.4108151313863004e-09 7.725844852757291e-09 -1.4108151313863004e-09 -2.9312233891687356e-05 1.51173633611279e-08 7.725844852757291e-09 1.51173633611279e-08 -2.9315422580111772e-05" pbc="T T T"
Cr       2.00031390       1.41443551       3.46464584       0.00000099       0.00000067       0.00000422
Cr       6.00094139       4.24330673      10.39393543      -0.00000296       0.00000093      -0.00000391
Ni       0.00000018      -0.00000019      -0.00000024      -0.00000044       0.00000078      -0.00000069
Te       2.04342967       1.44492263       6.92929027       0.00090724       0.00064062      -0.00000128
Te       5.95782607       4.21281910       6.92929072      -0.00090714      -0.00064173       0.00000171
Te       4.97922669       1.44492263       5.23430715      -0.00045432       0.00064048       0.00078528
Te       3.02202872       4.21281930       8.62427415       0.00045551      -0.00064230      -0.00078624
Te       3.02202874       4.21281902       5.23430703       0.00045432      -0.00064258       0.00078626
Te       4.97922730       1.44492292       8.62427416      -0.00045314       0.00064315      -0.00078543
