9
Lattice="4.4613163285629165 5.990754792766864e-08 2.575742268196893 1.4871054904968481 4.206169552247138 2.57574228350625 -6.812503987428747e-09 1.393286323292223e-08 5.151484548193387" Properties=species:S:1:pos:R:3:forces:R:3 energy=-49.827430725097656 free_energy=-49.827430725097656 stress="-0.00019309428171254694 -1.1610896422098449e-07 1.0498370528466694e-07 -1.1610896422098449e-07 -0.00019283112487755716 2.899158779712252e-08 1.0498370528466694e-07 2.899158779712252e-08 -0.00019281203276477754" pbc="T T T"
Cr       1.48710514       1.05154218       2.57574296      -0.00000100       0.00000082       0.00000726
Cr       4.46131639       3.15462766       7.72722597       0.00000299      -0.00000013      -0.00000846
Pd       0.00000011      -0.00000005      -0.00000009       0.00000604       0.00000134       0.00000499
O        1.56828589       1.10894560       5.15148430       0.00371576       0.00262477      -0.00000263
O        4.38013606       3.09722394       5.15148484      -0.00372134      -0.00262822       0.00000446
O        3.67717345       1.10894564       3.93391781      -0.00185766       0.00262254       0.00321858
O        2.27124833       3.09722418       6.36905146       0.00185905      -0.00262639      -0.00322013
O        2.27124826       3.09722371       3.93391780       0.00185292      -0.00262275       0.00321535
O        3.67717358       1.10894569       6.36905143      -0.00185691       0.00262779      -0.00321962
