9
Lattice="4.17782644397512 4.0724362434092326e-08 2.412069117314174 1.3926088181164045 3.9388927743966926 2.4120691778272825 -2.2076154717640823e-09 7.255210742003233e-08 4.824138238452045" Properties=species:S:1:pos:R:3:forces:R:3 energy=-63.30249786376953 free_energy=-63.30249786376953 stress="9.459759166929871e-05 -6.827254139807337e-08 -5.0737664736288934e-08 -6.827254139807337e-08 9.426751785213128e-05 -2.610068463582138e-07 -5.0737664736288934e-08 -2.610068463582138e-07 9.442721056984738e-05" pbc="T T T"
Cr       1.39260852       0.98472393       2.41206818      -0.00000382       0.00000638      -0.00001243
Cr       4.17782451       2.95416942       7.23620760      -0.00002561      -0.00000284       0.00000184
P        0.00000005       0.00000006       0.00000028       0.00000617       0.00000078      -0.00000462
N        1.38776402       0.98129680       4.82413834       0.00075221       0.00052524       0.00000346
N        4.18267155       2.95759573       4.82413808      -0.00075102      -0.00053310      -0.00000079
N        3.48394554       0.98129744       3.61390800      -0.00036502       0.00053692       0.00065506
N        2.08649123       2.95759525       6.03436932       0.00038081      -0.00053489      -0.00063765
N        2.08649141       2.95759555       3.61390738       0.00038308      -0.00052953       0.00064325
N        3.48394436       0.98129741       6.03436899      -0.00037581       0.00053108      -0.00064468
