9
Lattice="5.5648412706050046 1.936817093948048e-08 3.212862671177922 1.8549471010467538 5.246582758357567 3.212862684021769 -2.3061367854384195e-10 1.5567341175364708e-08 6.425725342755285" Properties=species:S:1:pos:R:3:forces:R:3 energy=-43.75090026855469 free_energy=-43.75090026855469 stress="-1.3974804460303858e-05 1.4014243099325085e-08 1.1669535560088207e-08 1.4014243099325085e-08 -1.4029455087438691e-05 -1.2726244946748011e-08 1.1669535560088207e-08 -1.2726244946748011e-08 -1.4028471923666075e-05" pbc="T T T"
Cr       1.85494772       1.31164600       3.21286263       0.00000467       0.00000374       0.00000005
Cr       5.56484133       3.93493702       9.63858882      -0.00000192      -0.00000173       0.00000594
Pd      -0.00000008       0.00000002      -0.00000020      -0.00000116      -0.00000182      -0.00000182
S        1.91820701       1.35637735       6.42572539      -0.00317734      -0.00224531       0.00000101
S        5.50158124       3.89020548       6.42572490       0.00317848       0.00224608      -0.00000292
S        4.60573764       1.35637751       4.87407822       0.00158668      -0.00224388      -0.00275165
S        2.81405049       3.89020529       7.97737227      -0.00158960       0.00224566       0.00275064
S        2.81405087       3.89020538       4.87407843      -0.00158674       0.00224465      -0.00275290
S        4.60573741       1.35637715       7.97737234       0.00158712      -0.00224721       0.00275117
