9
Lattice="5.8146484671677925 8.226261887837689e-08 3.357088987693296 1.9382162434050012 5.4821031103395175 3.35708897015728 3.689093631499649e-08 4.608665164261164e-09 6.7141779114896405" Properties=species:S:1:pos:R:3:forces:R:3 energy=-41.53445053100586 free_energy=-41.53445053100586 stress="-0.00010639914398780093 1.0655694104855229e-08 1.529394388910532e-08 1.0655694104855229e-08 -0.0001064219104591757 -4.431783828806601e-09 1.529394388910532e-08 -4.431783828806601e-09 -0.0001064012321876362" pbc="T T T"
Cr       1.93821643       1.37052492       3.35708921       0.00000170      -0.00000436       0.00000264
Cr       5.81464816       4.11157706      10.07126745      -0.00000188      -0.00000409       0.00000105
Pd       0.00000011       0.00000000      -0.00000023      -0.00000071      -0.00000009      -0.00000378
Se       2.02347717       1.43081475       6.71417803      -0.00070754      -0.00050050       0.00000012
Se       5.72938723       4.05128905       6.71417802       0.00070620       0.00050360       0.00000008
Se       4.80291020       1.43081464       5.10947143       0.00035259      -0.00049728      -0.00061300
Se       2.94995477       4.05128893       8.31888409      -0.00035290       0.00050250       0.00061259
Se       2.94995471       4.05128884       5.10947145      -0.00035252       0.00049949      -0.00061280
Se       4.80291024       1.43081463       8.31888399       0.00035466      -0.00049910       0.00061327
