9
Lattice="5.801414212248243 8.568800460515035e-08 3.34944791962096 1.9338047198922383 5.469625711497746 3.349448089900997 2.5998511082178074e-08 2.26933310147961e-07 6.698895794211133" Properties=species:S:1:pos:R:3:forces:R:3 energy=-43.23881149291992 free_energy=-43.23881149291992 stress="-5.617670467472635e-05 -2.1148226281297866e-08 2.205359506124438e-10 -2.1148226281297866e-08 -5.6121436500689015e-05 -1.596113463619986e-08 2.205359506124438e-10 -1.596113463619986e-08 -5.6084158131852746e-05" pbc="T T T"
Cr       1.93380438       1.36740692       3.34944798      -0.00000339       0.00000337       0.00000024
Cr       5.80141460       4.10221931      10.04834425       0.00000336      -0.00000201       0.00000382
Sc      -0.00000015       0.00000017      -0.00000042       0.00000183      -0.00000278       0.00000333
Se       2.09787325       1.48342034       6.69889571      -0.00148037      -0.00104569       0.00000003
Se       5.63734635       3.98620570       6.69889588       0.00148101       0.00104669      -0.00000119
Se       4.75247802       1.48342080       5.16625970       0.00074476      -0.00104472      -0.00128312
Se       2.98274126       3.98620545       8.23153219      -0.00074243       0.00104761       0.00128140
Se       2.98274057       3.98620496       5.16625956      -0.00074521       0.00104578      -0.00128479
Se       4.75247763       1.48342040       8.23153245       0.00074042      -0.00104818       0.00128035
