9
Lattice="4.215058135695729 -3.445122515140492e-08 2.4335648271048025 1.405019360982499 3.9739947286537727 2.433564801300397 3.463063385433543e-08 -7.116260736559094e-09 4.867129594227586" Properties=species:S:1:pos:R:3:forces:R:3 energy=-59.821510314941406 free_energy=-59.821510314941406 stress="0.0003559240431059152 8.889477243201327e-08 1.6093436272512918e-07 8.889477243201327e-08 0.00035585020668804646 -3.707374673922459e-08 1.6093436272512918e-07 -3.707374673922459e-08 0.0003559553006198257" pbc="T T T"
Cr       1.40502029       0.99349793       2.43356433       0.00001047      -0.00000983      -0.00000657
Cr       4.21505763       2.98049585       7.30069454      -0.00000375      -0.00000335      -0.00000218
S       -0.00000007       0.00000017       0.00000009      -0.00000019       0.00000173       0.00000231
N        1.37730337       0.97390039       4.86712966      -0.00010896      -0.00007832       0.00000241
N        4.24277403       3.00009455       4.86712944       0.00010467       0.00008035       0.00000067
N        3.52640648       0.97390042       3.62634456       0.00005114      -0.00007582      -0.00009084
N        2.09367108       3.00009422       6.10791492      -0.00005150       0.00007844       0.00009346
N        2.09367116       3.00009449       3.62634439      -0.00005209       0.00007617      -0.00009179
N        3.52640619       0.97390057       6.10791519       0.00004864      -0.00006890       0.00009120
