9
Lattice="4.527535434301767 -7.856520353211864e-08 2.6139737969663157 1.5091783824612977 4.268601529579858 2.613973834321994 -1.1886566108430258e-07 -3.829954633431127e-08 5.2279477998139825" Properties=species:S:1:pos:R:3:forces:R:3 energy=-55.24855041503906 free_energy=-55.24855041503906 stress="7.368250226136297e-05 -1.129077418227098e-07 1.810497138876599e-07 -1.129077418227098e-07 7.379440648946911e-05 9.487769148108782e-08 1.810497138876599e-07 9.487769148108782e-08 7.379192538792267e-05" pbc="T T T"
Cr       1.50917791       1.06715059       2.61397600      -0.00000569       0.00000263       0.00002344
Cr       4.52753520       3.20145150       7.84192064       0.00000039       0.00000590      -0.00000805
Sc      -0.00000012       0.00000009      -0.00000009       0.00000382       0.00000150      -0.00000348
O        1.63187811       1.15391173       5.22794630      -0.00063890      -0.00045466      -0.00001642
O        4.40483597       3.11468925       5.22794882       0.00063789       0.00044760       0.00000791
O        3.71159640       1.15391210       4.02722173       0.00032079      -0.00045517      -0.00055689
O        2.32511730       3.11468918       6.42867344      -0.00032324       0.00045902       0.00055683
O        2.32511765       3.11468940       4.02722158      -0.00032195       0.00045210      -0.00055835
O        3.71159631       1.15391187       6.42867330       0.00032696      -0.00045907       0.00055510
