9
Lattice="4.2743641222673485 -5.279476850657279e-09 2.467805263623182 1.4247880169281395 4.029909136705704 2.4678052962725223 -2.749837543703067e-08 2.0542835056129725e-08 4.935610574874944" Properties=species:S:1:pos:R:3:forces:R:3 energy=-57.34178924560547 free_energy=-57.34178924560547 stress="7.673325308132917e-05 -4.4483996930466674e-08 -8.90185631874374e-08 -4.4483996930466674e-08 7.691542850807309e-05 1.2457357456696627e-07 -8.90185631874374e-08 1.2457357456696627e-07 7.677435496589169e-05" pbc="T T T"
Cr       1.42478872       1.00747691       2.46780556       0.00000582      -0.00000174       0.00000390
Cr       4.27436457       3.02243175       7.40341617       0.00000632      -0.00000185       0.00000358
Se      -0.00000005       0.00000000       0.00000003      -0.00000473      -0.00000283      -0.00000913
N        1.54276970       1.09090322       4.93561050      -0.00501716      -0.00354660      -0.00000067
N        4.15638213       2.93900610       4.93561044       0.00501680       0.00354958      -0.00000044
N        3.50297898       1.09090309       3.80388298       0.00250685      -0.00354922      -0.00434840
N        2.19617272       2.93900620       6.06733770      -0.00251186       0.00355220       0.00435150
N        2.19617277       2.93900618       3.80388334      -0.00250870       0.00354671      -0.00434470
N        3.50297901       1.09090320       6.06733797       0.00250620      -0.00354695       0.00434661
