9
Lattice="4.351165504441756 -4.889805394156565e-08 2.5121466144314284 1.4503885387528126 4.102317629279794 2.512146470023829 2.1280868548603865e-07 -2.638398859123052e-08 5.0242928602674" Properties=species:S:1:pos:R:3:forces:R:3 energy=-55.54277801513672 free_energy=-55.54277801513672 stress="-0.00013419738388620317 -1.335791921519558e-07 1.8845742033590795e-07 -1.335791921519558e-07 -0.0001340286253252998 1.3022771838677727e-07 1.8845742033590795e-07 1.3022771838677727e-07 -0.0001340594026260078" pbc="T T T"
Cr       1.45038855       1.02557930       2.51214640      -0.00000052       0.00000019       0.00000074
Cr       4.35116564       3.07673806       7.53644017       0.00000045      -0.00000065       0.00000610
S       -0.00000001       0.00000013       0.00000017       0.00000219      -0.00000248      -0.00001205
O        1.34596031       0.95173705       5.02429352       0.00103700       0.00073302      -0.00000469
O        4.45559397       3.15058063       5.02429259      -0.00104189      -0.00073421      -0.00000021
O        3.67818571       0.95173759       3.67778192      -0.00052267       0.00073564       0.00089812
O        2.12336875       3.15058022       6.37080394       0.00051910      -0.00072515      -0.00089788
O        2.12336849       3.15058020       3.67778173       0.00051415      -0.00073493       0.00089967
O        3.67818549       0.95173743       6.37080356      -0.00050813       0.00072682      -0.00089133
