9
Lattice="5.569217098598397 1.7741312901538445e-08 3.2153890424222484 1.8564056881079247 5.250708244303709 3.2153890911820993 1.2315367769579382e-09 6.058926401086425e-08 6.430778082711366" Properties=species:S:1:pos:R:3:forces:R:3 energy=-46.63969421386719 free_energy=-46.63969421386719 stress="-6.304755515884608e-05 1.9616221536011835e-08 -3.245870416890284e-08 1.9616221536011835e-08 -6.30492068012245e-05 2.994808667722282e-08 -3.245870416890284e-08 2.994808667722282e-08 -6.303976260824129e-05" pbc="T T T"
Cr       1.85640600       1.31267700       3.21538900       0.00000369      -0.00000010      -0.00000065
Cr       5.56921676       3.93803145       9.64616800      -0.00000294       0.00000182       0.00000445
Sc      -0.00000002       0.00000012       0.00000022      -0.00000155      -0.00000034       0.00000183
S        1.98225296       1.40166429       6.43077794      -0.00212997      -0.00150920       0.00000037
S        5.44336976       3.84904377       6.43077755       0.00213166       0.00150822      -0.00000366
S        4.57809043       1.40166454       4.93207041       0.00106395      -0.00150775      -0.00184823
S        2.84753214       3.84904360       7.92948576      -0.00106606       0.00150426       0.00184663
S        2.84753262       3.84904405       4.93207036      -0.00106250       0.00150900      -0.00184642
S        4.57809049       1.40166450       7.92948558       0.00106368      -0.00150598       0.00184570
