9
Lattice="4.209470571756236 1.7433810971252087e-07 2.4303389316212365 1.4031569539816655 3.96872712593329 2.430339048773598 1.7412031480957276e-08 1.557939302572637e-07 4.860677833083931" Properties=species:S:1:pos:R:3:forces:R:3 energy=-62.28377914428711 free_energy=-62.28377914428711 stress="0.00031090129050426185 1.9524433980677713e-07 -1.758880330271495e-07 1.9524433980677713e-07 0.0003111076366622001 -1.9140533424888417e-07 -1.758880330271495e-07 -1.9140533424888417e-07 0.00031102178036235273" pbc="T T T"
Cr       1.40315609       0.99218069       2.43033903      -0.00000995      -0.00001601       0.00000579
Cr       4.20946896       2.97654537       7.29101901      -0.00002902      -0.00000388       0.00002146
Si      -0.00000015       0.00000004      -0.00000031      -0.00000618       0.00000107       0.00001016
N        1.43637404       1.01566951       4.86067834      -0.00022662      -0.00016785       0.00000217
N        4.17625338       2.95305791       4.86067673       0.00023389       0.00017363      -0.00001843
N        3.49128400       1.01567005       3.67427508       0.00012076      -0.00015789      -0.00020391
N        2.12134461       2.95305817       6.04708057      -0.00010633       0.00016594       0.00019199
N        2.12134483       2.95305751       3.67427460      -0.00009847       0.00016421      -0.00020432
N        3.49128428       1.01567071       6.04708027       0.00012201      -0.00015914       0.00019515
