9
Lattice="6.3113655748262225 -1.3215135092986342e-08 3.643868701761139 2.1037885227826436 5.95041260879576 3.6438686839211685 1.6338228542591294e-08 -1.0296587896059168e-08 7.287737375223607" Properties=species:S:1:pos:R:3:forces:R:3 energy=-41.27140426635742 free_energy=-41.27140426635742 stress="-0.00012843022705055773 -6.293184195982349e-09 -1.0329362254424268e-08 -6.293184195982349e-09 -0.00012843127478845417 -3.9660830175591855e-09 -1.0329362254424268e-08 -3.9660830175591855e-09 -0.00012843564036302269" pbc="T T T"
Cr       2.10378806       1.48760339       3.64386872      -0.00000237       0.00000157       0.00000003
Cr       6.31136573       4.46280927      10.93160622       0.00000024      -0.00000250       0.00000038
Sc       0.00000022      -0.00000011       0.00000048      -0.00000236      -0.00000227      -0.00000887
Te       2.25561840       1.59496333       7.28773736      -0.00139524      -0.00098632       0.00000064
Te       6.15953546       4.35544916       7.28773756       0.00139813       0.00098905      -0.00000087
Te       5.18355657       1.59496321       5.59729164       0.00069879      -0.00098492      -0.00120755
Te       3.23159782       4.35544926       8.97818284      -0.00070070       0.00098935       0.00121219
Te       3.23159777       4.35544939       5.59729169      -0.00069715       0.00098591      -0.00120789
Te       5.18355642       1.59496346       8.97818250       0.00070073      -0.00098987       0.00121199
