9
Lattice="4.456688249545976 -1.3039968187337714e-07 2.573070164840198 1.4855626314241166 4.201805807551641 2.5730701570157404 -3.958007309476106e-08 -3.757031695950771e-08 5.146140398235061" Properties=species:S:1:pos:R:3:forces:R:3 energy=-59.78373336791992 free_energy=-59.78373336791992 stress="-0.00010349747026339173 -2.6579671796866933e-08 -1.991150178071166e-08 -2.6579671796866933e-08 -0.00010397680307505652 -4.9303245930332196e-08 -1.991150178071166e-08 -4.9303245930332196e-08 -0.00010383264452684671" pbc="T T T"
Cr       1.48556171       1.05045312       2.57306950      -0.00000843       0.00001502      -0.00000494
Cr       4.45668730       3.15135360       7.71921006      -0.00001099      -0.00000391      -0.00000720
Ti       0.00000014      -0.00000007       0.00000005      -0.00000348       0.00000300       0.00000025
O        1.54096288       1.08962492       5.14614063      -0.00484735      -0.00343174       0.00000041
O        4.40128856       3.11218054       5.14614039       0.00485241       0.00342375       0.00000077
O        3.68620749       1.08962468       3.90758337       0.00243470      -0.00342804      -0.00419420
O        2.25604385       3.11217996       6.38469812      -0.00242597       0.00342476       0.00420409
O        2.25604407       3.11218025       3.90758264      -0.00241962       0.00341958      -0.00420147
O        3.68620730       1.08962572       6.38469828       0.00242868      -0.00342196       0.00420302
