9
Lattice="5.484004034886461 -7.24684208675522e-08 3.1661912346931778 1.828001282913825 5.170368455417308 3.166191223823598 2.435756778030161e-08 3.910959345842987e-09 6.332382427197805" Properties=species:S:1:pos:R:3:forces:R:3 energy=-50.15631103515625 free_energy=-50.15631103515625 stress="-5.272914859233424e-05 6.498923621478525e-09 7.832050563649773e-09 6.498923621478525e-09 -5.27172778674867e-05 -8.838171972058717e-09 7.832050563649773e-09 -8.838171972058717e-09 -5.272643829812296e-05" pbc="T T T"
Cr       1.82800061       1.29259171       3.16619137      -0.00000424      -0.00000127      -0.00000061
Cr       5.48400469       3.87777647       9.49857333       0.00000237      -0.00000097      -0.00000172
Ti       0.00000006       0.00000027       0.00000033       0.00000035      -0.00000416      -0.00000595
S        1.88421154       1.33233911       6.33238251      -0.00077820      -0.00054912       0.00000003
S        5.42779350       3.83802930       6.33238238       0.00078097       0.00055133      -0.00000105
S        4.54189825       1.33233838       4.79796637       0.00038719      -0.00054885      -0.00066817
S        2.77010739       3.83802959       7.86679826      -0.00039005       0.00055449       0.00067575
S        2.77010693       3.83802964       4.79796662      -0.00039010       0.00055003      -0.00067298
S        4.54189838       1.33233902       7.86679843       0.00039178      -0.00055134       0.00067464
