9
Lattice="6.208812589635169 6.159138886220711e-08 3.5846595211723846 2.069604218049461 5.853724738180018 3.584659584503907 -5.4684971843960054e-08 3.889685120835283e-08 7.169319137061949" Properties=species:S:1:pos:R:3:forces:R:3 energy=-42.95504379272461 free_energy=-42.95504379272461 stress="-0.0002910678740590811 8.112086113953865e-09 1.5931250763046023e-09 8.112086113953865e-09 -0.00029105920111760497 2.5107258494472262e-09 1.5931250763046023e-09 2.5107258494472262e-09 -0.00029105512658134103" pbc="T T T"
Cr       2.06960334       1.46343226       3.58465971      -0.00000235       0.00000552       0.00000060
Cr       6.20881210       4.39029302      10.75397925      -0.00000289      -0.00000284       0.00000431
Ti       0.00000011      -0.00000008       0.00000023       0.00000348      -0.00000042      -0.00000225
Te       2.15779675       1.52579286       7.16931914      -0.00803678      -0.00568345      -0.00000057
Te       6.12062031       4.32793171       7.16931897       0.00803651       0.00567982      -0.00000167
Te       5.12991471       1.52579300       5.45336602       0.00401900      -0.00567891      -0.00695844
Te       3.14850276       4.32793199       8.88527194      -0.00401897       0.00568251       0.00696035
Te       3.14850257       4.32793205       5.45336582      -0.00401629       0.00568027      -0.00695993
Te       5.12991437       1.52579258       8.88527186       0.00401831      -0.00568248       0.00695757
