9
Lattice="5.782578506789011 -4.42729196617332e-08 3.338573250682881 1.927526084990407 5.451867539899695 3.338573323772571 -5.6779792608321873e-08 4.93668488952011e-08 6.6771465997112225" Properties=species:S:1:pos:R:3:forces:R:3 energy=-46.352935791015625 free_energy=-46.352935791015625 stress="-8.964151493273675e-05 -2.6537987363184357e-09 7.29573790270166e-10 -2.6537987363184357e-09 -8.959980186773464e-05 2.2620250561544708e-08 7.29573790270166e-10 2.2620250561544708e-08 -8.961617277236655e-05" pbc="T T T"
Cr       1.92752568       1.36296926       3.33857274      -0.00000303       0.00001595      -0.00000334
Cr       5.78257878       4.08890084      10.01571988       0.00000224       0.00000241      -0.00000263
Ti      -0.00000008      -0.00000036      -0.00000031       0.00000051       0.00000365       0.00000634
Se       1.98170127       1.40127427       6.67714675      -0.00089613      -0.00063445       0.00000175
Se       5.72840404       4.05059240       6.67714638       0.00089650       0.00062454       0.00000024
Se       4.79172798       1.40127440       5.05477751       0.00045203      -0.00063739      -0.00077544
Se       2.91837666       4.05059282       8.29951638      -0.00044716       0.00062693       0.00077526
Se       2.91837648       4.05059240       5.05477698      -0.00045140       0.00063010      -0.00077657
Se       4.79172738       1.40127416       8.29951640       0.00044639      -0.00063173       0.00077456
