9
Lattice="6.105635349996102 -1.054787815183201e-07 3.525090115839733 2.0352117177146773 5.756447722381118 3.5250900572461252 6.9648876756577095e-09 -6.683726799043095e-08 7.05018021961591" Properties=species:S:1:pos:R:3:forces:R:3 energy=-43.30852508544922 free_energy=-43.30852508544922 stress="-0.000106481667899061 -2.2134315713628894e-08 1.010286698743812e-08 -2.2134315713628894e-08 -0.00010647216549841687 -1.2435475760241843e-08 1.010286698743812e-08 -1.2435475760241843e-08 -0.00010644994472386315" pbc="T T T"
Cr       2.03521114       1.43911050       3.52509067      -0.00000326      -0.00000546       0.00000259
Cr       6.10563588       4.31733715      10.57527051       0.00000379       0.00000696       0.00000127
V        0.00000020       0.00000046       0.00000023      -0.00000218      -0.00000314      -0.00000094
Te       2.11991225       1.49900353       7.05018025      -0.00140082      -0.00099282      -0.00000011
Te       6.02093485       4.25744362       7.05018011       0.00140482       0.00099453      -0.00000069
Te       5.04567909       1.49900384       5.36098803       0.00070129      -0.00099470      -0.00121547
Te       3.09516789       4.25744396       8.73937180      -0.00070262       0.00099587       0.00121422
Te       3.09516776       4.25744349       5.36098806      -0.00070445       0.00099523      -0.00121623
Te       5.04567924       1.49900365       8.73937187       0.00070335      -0.00099649       0.00121534
