9
Lattice="4.4157787729145745 -1.1842718900513826e-07 2.5494511112861606 1.471926214995103 4.1632357583686455 2.549450991755354 -1.6796814170952132e-08 -1.5827185789419658e-07 5.098902251665231" Properties=species:S:1:pos:R:3:forces:R:3 energy=-58.10690689086914 free_energy=-58.10690689086914 stress="0.00012423524458426982 5.9946914099384685e-09 1.1552495493560855e-07 5.9946914099384685e-09 0.00012430347851477563 -2.834300616427754e-08 1.1552495493560855e-07 -2.834300616427754e-08 0.00012403864820953459" pbc="T T T"
Cr       1.47192499       1.04080866       2.54945148      -0.00001502      -0.00000347       0.00000327
Cr       4.41577877       3.12242767       7.64835113      -0.00000218       0.00001069      -0.00002009
V       -0.00000008      -0.00000003      -0.00000007      -0.00000235       0.00000066      -0.00000168
O        1.52983810       1.08175840       5.09890173      -0.00571740      -0.00404716      -0.00000479
O        4.35786688       3.08147665       5.09890322       0.00573218       0.00404751       0.00001051
O        3.65086055       1.08175811       3.87433022       0.00286418      -0.00404710      -0.00494564
O        2.23684546       3.08147711       6.32347471      -0.00285888       0.00404429       0.00495720
O        2.23684538       3.08147691       3.87433001      -0.00286156       0.00404781      -0.00495803
O        3.65085987       1.08175844       6.32347503       0.00286138      -0.00405234       0.00496018
