9
Lattice="5.765536653362225 -5.515844723008391e-08 3.3287342014669195 1.9218455254437703 5.435799636662458 3.3287341558674064 8.300517566363866e-08 2.845739212917534e-09 6.657468259164703" Properties=species:S:1:pos:R:3:forces:R:3 energy=-46.561309814453125 free_energy=-46.561309814453125 stress="-6.599385960726067e-05 1.1021753287820957e-08 -1.661906701144744e-08 1.1021753287820957e-08 -6.59493962302804e-05 -9.208201978694319e-10 -1.661906701144744e-08 -9.208201978694319e-10 -6.59797151456587e-05" pbc="T T T"
Cr       1.92184566       1.35894983       3.32873447       0.00000189      -0.00000077       0.00000146
Cr       5.76553659       4.07684974       9.98620314      -0.00000031       0.00000134       0.00000665
V        0.00000000       0.00000002       0.00000024       0.00000001      -0.00000010      -0.00000014
Se       1.94465404       1.37507791       6.65746733      -0.00000420      -0.00000312      -0.00000366
Se       5.74272827       4.06072166       6.65746723       0.00000352       0.00000302      -0.00000484
Se       4.79321009       1.37507789       5.01285431       0.00000300      -0.00000274      -0.00000304
Se       2.89417282       4.06072159       8.30208282      -0.00000100       0.00000218       0.00000378
Se       2.89417242       4.06072178       5.01285421      -0.00000230       0.00000379      -0.00000329
Se       4.79320918       1.37507790       8.30208273      -0.00000046      -0.00000379       0.00000307
