9
Lattice="5.513389496154168 -5.688159908567307e-08 3.1831569773118997 1.837796455916544 5.198073404149594 3.1831569585590698 -8.955038181390213e-09 -2.9299608686504357e-08 6.366313970134393" Properties=species:S:1:pos:R:3:forces:R:3 energy=-50.29206466674805 free_energy=-50.29206466674805 stress="-3.3128428185591474e-05 -3.149555283243899e-09 8.055542899398915e-09 -3.149555283243899e-09 -3.3082633308367804e-05 1.0180322362884908e-08 8.055542899398915e-09 1.0180322362884908e-08 -3.308196028228849e-05" pbc="T T T"
Cr       1.83779571       1.29951807       3.18315637      -0.00000442      -0.00000275      -0.00000448
Cr       5.51339082       3.89855522       9.54947075       0.00000982       0.00000138      -0.00000071
V        0.00000024       0.00000003       0.00000040      -0.00000187      -0.00000063      -0.00000561
S        1.84077151       1.30162226       6.36631416      -0.00037923      -0.00026646       0.00000097
S        5.51041410       3.89645101       6.36631389       0.00038105       0.00026891      -0.00000197
S        4.59300398       1.30162184       4.77731265       0.00019111      -0.00026911      -0.00032589
S        2.75818229       3.89645098       7.95531530      -0.00019474       0.00027221       0.00033051
S        2.75818173       3.89645154       4.77731278      -0.00019179       0.00026947      -0.00032535
S        4.59300337       1.30162223       7.95531537       0.00019023      -0.00027278       0.00033197
