9
Lattice="6.134751866868138 -8.416384241097738e-08 3.5419007729011818 2.0449172117604375 5.783899522466611 3.5419007691689273 8.140655102861252e-10 -3.995405040561235e-09 7.08380154439237" Properties=species:S:1:pos:R:3:forces:R:3 energy=-34.55048751831055 free_energy=-34.55048751831055 stress="2.4117356588249095e-05 -2.9278046653757883e-08 5.752163745320615e-10 -2.9278046653757883e-08 2.4147853764588945e-05 -7.659358480793799e-09 5.752163745320615e-10 -7.659358480793799e-09 2.415587914583739e-05" pbc="T T T"
Cr       2.04491665       1.44597486       3.54190111      -0.00000468      -0.00000016       0.00000193
Cr       6.13475210       4.33792457      10.62570180       0.00000235       0.00000028      -0.00000244
Zn       0.00000004      -0.00000011       0.00000069       0.00000036       0.00000479      -0.00001260
Te       2.15720868       1.52537707       7.08380158      -0.00089622      -0.00063195      -0.00000081
Te       6.02246044       4.25852226       7.08380195       0.00089495       0.00063061       0.00000048
Te       5.05614734       1.52537681       5.41009860       0.00044657      -0.00063252      -0.00077386
Te       3.12352206       4.25852244       8.75750407      -0.00044937       0.00063710       0.00077830
Te       3.12352132       4.25852251       5.41009859      -0.00044756       0.00063059      -0.00077176
Te       5.05614768       1.52537735       8.75750393       0.00045360      -0.00063876       0.00078075
