9
Lattice="5.646081047534802 -1.5097930468794328e-07 3.259766250033991 1.8820269429998637 5.323175945469074 3.259766129657132 6.4661055197972465e-09 -1.4285867629179233e-07 6.519532488868354" Properties=species:S:1:pos:R:3:forces:R:3 energy=-36.89957809448242 free_energy=-36.89957809448242 stress="-0.0003575414593797177 -1.3174890511891135e-08 2.394115838910693e-08 -1.3174890511891135e-08 -0.0003575193986762315 1.0866337829540385e-09 2.394115838910693e-08 1.0866337829540385e-09 -0.000357543263817206" pbc="T T T"
Cr       1.88202859       1.33079505       3.25976613       0.00001012       0.00000760      -0.00000108
Cr       5.64608055       3.99238091       9.77929965      -0.00000249      -0.00000546       0.00000811
Zn      -0.00000027      -0.00000042      -0.00000043       0.00000461       0.00000691       0.00000113
Se       2.01981471       1.42822434       6.51953248      -0.00500420      -0.00353661       0.00000001
Se       5.50829373       3.89495150       6.51953176       0.00499663       0.00353459      -0.00000318
Se       4.63617355       1.42822457       5.00897652       0.00249881      -0.00353420      -0.00433606
Se       2.89193320       3.89495119       8.03008843      -0.00250263       0.00353146       0.00433029
Se       2.89193447       3.89495103       5.00897618      -0.00249871       0.00353149      -0.00433442
Se       4.63617342       1.42822445       8.03008881       0.00249802      -0.00353570       0.00433537
