9
Lattice="5.42079059632361 1.4210805416922432e-07 3.1296948691287567 1.8069303000836074 5.110770361140066 3.1296949257178537 2.1736851048852248e-08 8.467748152211849e-08 6.25938970060815" Properties=species:S:1:pos:R:3:forces:R:3 energy=-39.41644287109375 free_energy=-39.41644287109375 stress="-2.9104432542226277e-05 2.109626606738857e-08 -3.3377101971154843e-08 2.109626606738857e-08 -2.910373586928472e-05 7.930892387264521e-09 -3.3377101971154843e-08 7.930892387264521e-09 -2.918317841249518e-05" pbc="T T T"
Cr       1.80692986       1.27769248       3.12969479      -0.00000510      -0.00000204      -0.00000111
Cr       5.42079144       3.83307881       9.38908647       0.00000641       0.00000704       0.00001368
Zn       0.00000017       0.00000025      -0.00000085      -0.00000292      -0.00000094       0.00001534
S        1.87311554       1.32449249       6.25938969      -0.00101662      -0.00072068       0.00000135
S        5.35460546       3.78627774       6.25938881       0.00101919       0.00072090      -0.00000444
S        4.48423318       1.32449289       4.75186039       0.00051414      -0.00072327      -0.00088480
S        2.74348688       3.78627818       7.76691911      -0.00050939       0.00071564       0.00087216
S        2.74348792       3.78627792       4.75186024      -0.00051042       0.00072297      -0.00088316
S        4.48423324       1.32449158       7.76691931       0.00050466      -0.00071955       0.00087084
