9
Lattice="5.966587387862757 -4.29696142658411e-07 3.4448110953456177 1.9888624933489203 5.625352109683786 3.4448103404323422 3.8787859091234795e-07 -6.503044221227775e-07 6.889621518866005" Properties=species:S:1:pos:R:3:forces:R:3 energy=-35.04469299316406 free_energy=-35.04469299316406 stress="-0.0001996070786844939 -6.155016762932064e-08 -5.0370485560335965e-09 -6.155016762932064e-08 -0.00019960926147177815 -5.177604567307981e-09 -5.0370485560335965e-09 -5.177604567307981e-09 -0.00019945259555242956" pbc="T T T"
Cs       1.98886287       1.40633796       3.44481128      -0.00000208       0.00000020      -0.00000027
Cs       5.96658802       4.21901299      10.33443194      -0.00000227       0.00000149       0.00000005
Cr       0.00000079       0.00000107      -0.00000266      -0.00000076      -0.00000215       0.00000180
Se       2.05580522       1.45367354       6.88962205      -0.00288509      -0.00204051       0.00000027
Se       5.89964314       4.17167658       6.88962086       0.00288762       0.00204047       0.00000148
Se       4.93868401       1.45367568       5.22519251       0.00144556      -0.00204729      -0.00250241
Se       3.01676627       4.17167641       8.55405112      -0.00144450       0.00204501       0.00250426
Se       3.01676589       4.17167681       5.22519234      -0.00144343       0.00204498      -0.00250489
Se       4.93868466       1.45367298       8.55405271       0.00144487      -0.00204220       0.00249968
