9
Lattice="7.215664229864303 2.3372073144964115e-07 4.165964491564159 2.4052216662742905 6.802991883088379 4.16596442927043 -9.63009263439257e-08 -1.4438902793316604e-07 8.331929149926484" Properties=species:S:1:pos:R:3:forces:R:3 energy=-31.113548278808594 free_energy=-31.113548278808594 stress="-4.454074223758653e-05 3.1385120280447154e-08 2.8270215057801806e-09 3.1385120280447154e-08 -4.457906834431924e-05 2.0316779369977667e-08 2.8270215057801806e-09 2.0316779369977667e-08 -4.4558382796822116e-05" pbc="T T T"
Cs       2.40522110       1.70074869       4.16596458       0.00000001      -0.00000166      -0.00000039
Cs       7.21566468       5.10224406      12.49789297       0.00000037       0.00000087       0.00000051
Co       0.00000064      -0.00000044       0.00000052      -0.00000464       0.00000437      -0.00001156
Te       1.93830113       1.37058537       8.33192800       0.00619674       0.00438181      -0.00000088
Te       7.68258467       5.43240645       8.33192965      -0.00619598      -0.00438167       0.00000164
Te       6.24651357       1.37058557       5.84458067      -0.00310053       0.00438412       0.00536815
Te       3.37437196       5.43240613      10.81927721       0.00309981      -0.00438202      -0.00536457
Te       3.37437077       5.43240583       5.84458086       0.00310254      -0.00438855       0.00537200
Te       6.24651479       1.37058624      10.81927805      -0.00309830       0.00438277      -0.00536487
