9
Lattice="5.5741957030299245 0.458408131012202 4.391121321106273 1.5080330260217658 7.298117772704491 5.341911286385359 -0.07586537290109568 1.3132061063092781 8.573382681688942" Properties=species:S:1:pos:R:3:forces:R:3 energy=-39.63622283935547 free_energy=-39.63622283935547 stress="-0.0001248573826160282 -0.000672795285936445 -0.00011762842041207477 -0.000672795285936445 5.47620038560126e-05 7.070839637890458e-05 -0.00011762842041207477 7.070839637890458e-05 0.0003766849113162607" pbc="T T T"
Cs       2.50641744       1.13557099       5.47382006       0.02525784       0.02997181      -0.03031744
Cs       5.54331566       5.84265013      15.17359007       0.08952422       0.03111325       0.02567896
C       -1.19429256       1.92528516      -2.39582460      -0.03252432       0.03121426      -0.04919910
S       -0.33328478       2.70982626       7.32343564      -0.02344781      -0.03782055      -0.01317167
S        7.24854537       6.11454982      10.46446331      -0.03764284      -0.03810509       0.00118619
S        5.48754911       1.04008050       7.51712500       0.03816792       0.05985029       0.00870347
S        2.70048745       6.12721727      13.14980050      -0.04119667      -0.03545660       0.04439947
S        2.70634282       7.10772494       7.06799101      -0.04981482      -0.00661558      -0.02054760
S        3.36039137       4.27600490       9.45124351       0.03167647      -0.03415167       0.03326750
