9
Lattice="5.884788169843559 -1.4312091700832292e-06 3.397583399182432 1.961594864470241 5.548228425906413 3.397583126882148 -1.769167602266879e-07 -4.5859740721819474e-07 6.795167104793573" Properties=species:S:1:pos:R:3:forces:R:3 energy=-35.02094650268555 free_energy=-35.02094650268555 stress="-3.5623499570647255e-05 -9.273038337198614e-09 1.1101035889138355e-11 -9.273038337198614e-09 -3.571685010683723e-05 -4.4461128112516235e-09 1.1101035889138355e-11 -4.4461128112516235e-09 -3.56486089003738e-05" pbc="T T T"
Cs       1.96159398       1.38705894       3.39758414       0.00000274      -0.00000607      -0.00000491
Cs       5.88478801       4.16116960      10.19275019      -0.00000123       0.00000176      -0.00000271
Co       0.00000308      -0.00000446       0.00000614       0.00000999      -0.00000935       0.00001639
S        1.78382297       1.26135280       6.79516703       0.00422585       0.00298628      -0.00000077
S        6.06255789       4.28687435       6.79516617      -0.00422895      -0.00298378      -0.00000142
S        4.99287380       1.26135333       4.94242082      -0.00211394       0.00298819       0.00365633
S        2.85350903       4.28687338       8.64791074       0.00211263      -0.00298661      -0.00366157
S        2.85350884       4.28687383       4.94241946       0.00211012      -0.00298235       0.00365871
S        4.99287332       1.26135460       8.64790910      -0.00211725       0.00299224      -0.00365996
