9
Lattice="5.61914678079018 1.292712161158245e-07 3.2442158068459324 1.8730489409381232 5.297782871295577 3.24421599368224 -1.0034628685798451e-07 1.5787129208510868e-07 6.488431787496743" Properties=species:S:1:pos:R:3:forces:R:3 energy=-39.395652770996094 free_energy=-39.395652770996094 stress="0.0004106885753571987 1.884035327748279e-08 -3.848168006470587e-09 1.884035327748279e-08 0.0004106992855668068 3.412909777011919e-08 -3.848168006470587e-09 3.412909777011919e-08 0.00041065525147132576" pbc="T T T"
Cs       1.87304877       1.32444510       3.24421614       0.00000068       0.00000029      -0.00000016
Cs       5.61914665       3.97333737       9.73264803      -0.00000013       0.00000002      -0.00000028
Co      -0.00000182       0.00000064       0.00000052      -0.00002897       0.00000681       0.00001519
O        1.46918765       1.03887267       6.48843184      -0.00520670      -0.00368607      -0.00000267
O        6.02300846       4.25891077       6.48843182       0.00521642       0.00368500      -0.00000222
O        4.88455361       1.03887206       4.51656846       0.00260949      -0.00368607      -0.00451547
O        2.60764293       4.25891052       8.46029391      -0.00260064       0.00368315       0.00450921
O        2.60764245       4.25891133       4.51656835      -0.00259924       0.00368142      -0.00451213
O        4.88455383       1.03887224       8.46029492       0.00260910      -0.00368458       0.00450826
