9
Lattice="5.771011570834762 -2.7944734427214663e-07 3.3318953345492615 1.9236702622759483 5.440960949931674 3.3318953308604424 -5.54353355756928e-08 -4.3716548156001177e-08 6.663790765115654" Properties=species:S:1:pos:R:3:forces:R:3 energy=-45.528175354003906 free_energy=-45.528175354003906 stress="5.596427854470676e-06 -6.218383674649886e-08 -6.71651037009724e-08 -6.218383674649886e-08 5.668158792104805e-06 7.974538362987005e-08 -6.71651037009724e-08 7.974538362987005e-08 5.718223292205948e-06" pbc="T T T"
Cs       1.92367005       1.36023870       3.33189554       0.00000005       0.00000083      -0.00000033
Cs       5.77101128       4.08072263       9.99568629      -0.00000034      -0.00000193      -0.00000107
Cr      -0.00000025      -0.00000072      -0.00000114       0.00000583       0.00000595       0.00000268
O        1.45354078       1.02780878       6.66379112       0.00515342       0.00364351       0.00000082
O        6.24114113       4.41315241       6.66379124      -0.00516427      -0.00365019       0.00000029
O        5.04424056       1.02780790       4.59069975      -0.00257134       0.00363791       0.00445694
O        2.65044165       4.41315109       8.73688247       0.00257507      -0.00363851      -0.00445741
O        2.65044036       4.41315260       4.59069906       0.00257936      -0.00364441       0.00446516
O        5.04424106       1.02780867       8.73688336      -0.00257784       0.00364703      -0.00446618
