9
Lattice="6.553803128573031 -6.356984685068225e-06 3.783832206812674 2.184597403049944 6.178985891085026 3.783828130232541 1.6020347636511037e-06 -3.859961539779153e-06 7.567661638821069" Properties=species:S:1:pos:R:3:forces:R:3 energy=-36.919376373291016 free_energy=-36.919376373291016 stress="4.2395313357701525e-05 -7.859505899432406e-07 1.4065837206089782e-07 -7.859505899432406e-07 4.293995880289003e-05 -1.7792204687339108e-07 1.4065837206089782e-07 -1.7792204687339108e-07 4.3483134504640475e-05" pbc="T T T"
Cs       2.18460240       1.54474518       3.78383684      -0.00001122       0.00000094      -0.00001316
Cs       6.55381420       4.63421816      11.35149779      -0.00001652       0.00000416      -0.00001299
Fe       0.00005372       0.00000404       0.00004228      -0.00147327       0.00005607      -0.00148278
S        1.79820646       1.27150955       7.56766572       0.00166070       0.00120264      -0.00004025
S        6.94016328       4.90743257       7.56766749      -0.00062561      -0.00041455      -0.00004061
S        5.65469501       1.27152600       5.34113006      -0.00066710       0.00089467       0.00104976
S        3.08371983       4.90743348       9.79417386       0.00039476      -0.00060439      -0.00078225
S        3.08368805       4.90747033       5.34110503       0.00088686      -0.00130183       0.00155485
S        5.65466458       1.27155623       9.79415173      -0.00014853       0.00016201      -0.00023293
