9
Lattice="5.765228904279971 3.356841816752996e-08 3.3285563722977596 1.9217429655318046 5.435510040914269 3.3285564315515153 8.132660286601285e-09 7.832135585660702e-08 6.657112730509291" Properties=species:S:1:pos:R:3:forces:R:3 energy=-41.25633239746094 free_energy=-41.25633239746094 stress="0.00015027007611934096 -5.593573160211918e-09 -9.037721682148003e-09 -5.593573160211918e-09 0.00015030558279249817 -1.3431410650355247e-08 -9.037721682148003e-09 -1.3431410650355247e-08 0.0001503105158917606" pbc="T T T"
Cs       1.92174324       1.35887747       3.32855619      -0.00000023      -0.00000038      -0.00000026
Cs       5.76522930       4.07663275       9.98566930      -0.00000003       0.00000010      -0.00000020
Fe      -0.00000010      -0.00000010      -0.00000015      -0.00000005      -0.00000099      -0.00000771
O        1.44494853       1.02173299       6.65711293      -0.00697231      -0.00493076      -0.00000050
O        6.24202296       4.41377697       6.65711291       0.00697500       0.00493269       0.00000057
O        5.04275450       1.02173299       4.57991861       0.00348563      -0.00492951      -0.00603856
O        2.64421753       4.41377712       8.73430678      -0.00348939       0.00493398       0.00604217
O        2.64421705       4.41377729       4.57991866      -0.00348683       0.00492936      -0.00603725
O        5.04275451       1.02173313       8.73430665       0.00348812      -0.00493436       0.00604148
