9
Lattice="7.3278286040360525 3.1116190880525673e-07 4.230723417809911 2.4426089091122276 6.908743904313827 4.230725009448 -7.581254660836095e-07 1.4132748624525476e-06 8.461448148731716" Properties=species:S:1:pos:R:3:forces:R:3 energy=-33.33266830444336 free_energy=-33.33266830444336 stress="-4.7049539716681466e-05 -6.74570515002415e-08 -2.3514157021509163e-07 -6.74570515002415e-08 -4.7014927986310795e-05 3.4136479598601e-07 -2.3514157021509163e-07 3.4136479598601e-07 -4.6941688196966425e-05" pbc="T T T"
Cs       2.44260918       1.72718690       4.23072527      -0.00000034      -0.00000235      -0.00000187
Cs       7.32782789       5.18155857      12.69217246       0.00000082       0.00000238       0.00000103
Fe      -0.00000021      -0.00000124       0.00000033      -0.00001795       0.00003316      -0.00000768
Te       1.93272966       1.36664853       8.46144770       0.00773388       0.00546854       0.00000053
Te       7.83770653       5.54209583       8.46144829      -0.00773744      -0.00547171       0.00000056
Te       6.36146070       1.36665139       5.90452076      -0.00384271       0.00543470       0.00665493
Te       3.40897639       5.54209558      11.01837663       0.00385147      -0.00544702      -0.00666913
Te       3.40897392       5.54209829       5.90451632       0.00388528      -0.00549540       0.00672878
Te       6.36146295       1.36664862      11.01837865      -0.00387297       0.00547769      -0.00670713
