9
Lattice="6.909724900680386 -2.05981372075586e-06 3.9893346978391993 2.3032394235605214 6.514553019418628 3.989335162008095 -9.84854014059554e-07 -1.2790848190720782e-07 7.978671101498673" Properties=species:S:1:pos:R:3:forces:R:3 energy=-35.08128356933594 free_energy=-35.08128356933594 stress="-4.556212297757156e-05 -5.165194352230174e-07 1.6405290637067083e-07 -5.165194352230174e-07 -4.520464426605031e-05 -2.182205207645893e-07 1.6405290637067083e-07 -2.182205207645893e-07 -4.481544601731002e-05" pbc="T T T"
Cs       2.30324502       1.62863984       3.98933354      -0.00000244      -0.00000138       0.00000071
Cs       6.90972053       4.88591100      11.96800927       0.00000145       0.00000100      -0.00000137
Fe      -0.00000014       0.00000107       0.00000075      -0.00000213      -0.00000358       0.00000286
Se       1.86665215       1.31992546       7.97867024      -0.00143892      -0.00101763      -0.00000075
Se       7.34631182       5.19462556       7.97867006       0.00144196       0.00101960       0.00000144
Se       5.97639255       1.31992278       5.60590932       0.00074816      -0.00105792      -0.00129390
Se       3.23656805       5.19462841      10.35143333      -0.00074685       0.00105739       0.00129402
Se       3.23657029       5.19462407       5.60590968      -0.00076744       0.00108361      -0.00132686
Se       5.97639204       1.31992431      10.35142950       0.00076634      -0.00108093       0.00132364
