9
Lattice="5.738929609079616 1.8978671257270554e-07 3.313372454160698 1.9129765465323176 5.410714918848601 3.313372746461891 -2.7009047950849817e-07 1.6701163006504837e-07 6.626745376131835" Properties=species:S:1:pos:R:3:forces:R:3 energy=-40.230133056640625 free_energy=-40.230133056640625 stress="4.312712189857848e-05 -5.720670515074744e-08 -1.1393490595423827e-09 -5.720670515074744e-08 4.311283555580303e-05 -3.891014088708289e-08 -1.1393490595423827e-09 -3.891014088708289e-08 4.2947413021465763e-05" pbc="T T T"
Cs       1.91297622       1.35267883       3.31337282       0.00000014       0.00000023      -0.00000031
Cs       5.73892992       4.05803640       9.94011852      -0.00000023       0.00000034      -0.00000143
Ge       0.00000000       0.00000017      -0.00000034      -0.00000499       0.00000136       0.00000796
O        1.52102555       1.07552855       6.62674563      -0.00231373      -0.00163579       0.00000169
O        6.13088006       4.33518697       6.62674491       0.00231695       0.00163531      -0.00000105
O        4.97841714       1.07552782       4.63062030       0.00116080      -0.00163722      -0.00200558
O        2.67348838       4.33518733       8.62287012      -0.00115710       0.00163662       0.00199962
O        2.67348921       4.33518725       4.63062066      -0.00115979       0.00163805      -0.00200355
O        4.97841678       1.07552795       8.62286970       0.00115764      -0.00163889       0.00200319
