9
Lattice="6.053038066390717 -1.0308565970085778e-06 3.4947228625311038 2.017678513668598 5.706858523609399 3.494722637181072 2.607155035097774e-07 -9.164272617491931e-08 6.989445273489622" Properties=species:S:1:pos:R:3:forces:R:3 energy=-29.83406639099121 free_energy=-29.83406639099121 stress="-5.476696060213726e-06 -7.763912890368374e-08 -2.5869768549569017e-08 -7.763912890368374e-08 -5.422365575213917e-06 2.8337577617776333e-08 -2.5869768549569017e-08 2.8337577617776333e-08 -5.286016403260874e-06" pbc="T T T"
Cs       2.01767770       1.42671318       3.49472216      -0.00000145      -0.00000023       0.00000237
Cs       6.05303940       4.28014402      10.48416872      -0.00000121      -0.00000181      -0.00000355
Ge      -0.00000005      -0.00000100       0.00000076       0.00000498       0.00001508      -0.00001035
Se       2.04540737       1.44632035       6.98944571       0.00145698       0.00103080      -0.00000175
Se       6.02531185       4.26053790       6.98944504      -0.00147003      -0.00103824       0.00000116
Se       5.03033246       1.44632223       5.26609665      -0.00072883       0.00103183       0.00125977
Se       3.04038407       4.26053467       8.71279455       0.00073014      -0.00103004      -0.00125998
Se       3.04038267       4.26053613       5.26609502       0.00073519      -0.00103751       0.00126746
Se       5.03033268       1.44632146       8.71279456      -0.00072563       0.00103024      -0.00125521
