9
Lattice="6.321673357892595 1.9167546649077142e-07 3.649821043103115 2.1072246781335804 5.96013039605808 3.6498209655258647 5.384865941990238e-07 2.8575517426927194e-07 7.299641153520568" Properties=species:S:1:pos:R:3:forces:R:3 energy=-31.581932067871094 free_energy=-31.581932067871094 stress="-0.00016443317872472107 1.2237937774273178e-08 -3.253289193594355e-08 1.2237937774273178e-08 -0.0001644541189307347 5.3103988761904475e-08 -3.253289193594355e-08 5.3103988761904475e-08 -0.000164384298841469" pbc="T T T"
Cs       2.10722339       1.49003275       3.64982068       0.00000006      -0.00000247       0.00000160
Cs       6.32167399       4.47009762      10.94946239       0.00000186       0.00000191       0.00000010
Ge       0.00000054       0.00000562      -0.00000042       0.00000231      -0.00009955       0.00001469
S        1.91321652       1.35284978       7.29964223       0.00797033       0.00562674       0.00000090
S        6.51568022       4.60728068       7.29964120      -0.00790238      -0.00559378       0.00000100
S        5.36506434       1.35284916       5.30671435      -0.00398088       0.00562197       0.00689530
S        3.06383475       4.60727915       9.29256864       0.00395083      -0.00559711      -0.00684321
S        3.06383669       4.60728088       5.30671542       0.00394803      -0.00559217       0.00683838
S        5.36506519       1.35284835       9.29256971      -0.00399065       0.00563437      -0.00690901
