9
Lattice="7.352695318954287 1.699005151182185e-05 4.24509628611367 2.4509142616241357 6.932172661766975 4.245096626297234 -1.6927069986357758e-06 -7.802862567489351e-07 8.490195504082296" Properties=species:S:1:pos:R:3:forces:R:3 energy=-26.60516929626465 free_energy=-26.60516929626465 stress="-0.00019756678375415504 -1.1330920415275614e-06 8.736763845718087e-08 -1.1330920415275614e-06 -0.00019698315009009093 7.145770553051989e-08 8.736763845718087e-08 7.145770553051989e-08 -0.0002009650197578594" pbc="T T T"
Cs       2.45090804       1.73305792       4.24509828       0.00002184       0.00001056      -0.00000062
Cs       7.35270397       5.19913118      12.73529099      -0.00002485      -0.00000804       0.00000275
Ge      -0.00000337      -0.00000401      -0.00000754       0.00001881      -0.00003401       0.00000897
Te       2.19206745       1.55004605       8.49019121       0.00767297       0.00543429      -0.00000024
Te       7.61153260       5.38214580       8.49019807      -0.00769788      -0.00543870       0.00001632
Te       6.25668663       1.54999976       6.14354059      -0.00375628       0.00532365       0.00679186
Te       3.54693042       5.38218613      10.83684541       0.00378627      -0.00533594      -0.00680059
Te       3.54692355       5.38218847       6.14354455       0.00375137      -0.00531368       0.00678846
Te       6.25668146       1.55000360      10.83685266      -0.00377232       0.00536194      -0.00680688
