9
Lattice="6.217699988076736 -1.1587931371382428e-06 3.5897915527623305 2.0725654656966044 5.862104178751911 3.589791733718535 -8.013548067759143e-08 1.649605909763019e-07 7.179583244323517" Properties=species:S:1:pos:R:3:forces:R:3 energy=-38.02388381958008 free_energy=-38.02388381958008 stress="3.0898219847586006e-05 -2.88584772079048e-07 -7.380468503015436e-08 -2.88584772079048e-07 3.111502155661583e-05 9.082551599703947e-08 -7.380468503015436e-08 9.082551599703947e-08 3.129820470348932e-05" pbc="T T T"
Cs       2.07256655       1.46552533       3.58979179      -0.00000080      -0.00000220      -0.00000102
Cs       6.21769890       4.39657753      10.76937456      -0.00000063       0.00000250       0.00000088
Hf      -0.00000771      -0.00000026      -0.00000318       0.00003412      -0.00000122       0.00001559
Se       2.21414214       1.56563556       7.17958258       0.00182476       0.00129263      -0.00000139
Se       6.07612924       4.29647118       7.17958440      -0.00183609      -0.00129238      -0.00000446
Se       5.11062696       1.56563752       5.50729795      -0.00091079       0.00127824       0.00156518
Se       3.17963822       4.29646554       8.85186840       0.00090053      -0.00127787      -0.00157055
Se       3.17963796       4.29646565       5.50729830       0.00090278      -0.00128299       0.00157015
Se       5.11062939       1.56563458       8.85187149      -0.00091381       0.00128334      -0.00157427
