9
Lattice="6.621491575607545 -4.568128714916823e-06 3.822923865246014 2.207160074030251 6.242803388212646 3.822922960479505 1.5893718363883755e-06 1.574735320896833e-08 7.645844977618026" Properties=species:S:1:pos:R:3:forces:R:3 energy=-36.307926177978516 free_energy=-36.307926177978516 stress="0.00027337128994986415 -4.683045631281857e-07 -7.564027626472125e-09 -4.683045631281857e-07 0.0002738614857662469 6.037894451083048e-08 -7.564027626472125e-09 6.037894451083048e-08 0.0002739833726081997" pbc="T T T"
Cs       2.20716478       1.56069817       3.82292144      -0.00000266      -0.00000526       0.00000814
Cs       6.62149026       4.68210263      11.46876776      -0.00000195       0.00000406       0.00000523
Hf       0.00000359      -0.00000796       0.00002582      -0.00001614       0.00003209      -0.00009679
Te       2.37784624       1.68140741       7.64584637      -0.00742349      -0.00528102      -0.00000346
Te       6.45080540       4.56139260       7.64584878       0.00743241       0.00527107      -0.00000352
Te       5.43255532       1.68139997       5.88220241       0.00373795      -0.00528233      -0.00644396
Te       3.39610296       4.56138671       9.40947741      -0.00375805       0.00531702       0.00649056
Te       3.39609177       4.56141329       5.88220936      -0.00372674       0.00525212      -0.00645356
Te       5.43255269       1.68140297       9.40946832       0.00375864      -0.00530773       0.00649756
