9
Lattice="6.379231345923948 -1.7743558207548772e-08 3.683050951122909 2.126410448185382 6.014396924207398 3.6830509229375075 1.4797404537712794e-08 -2.4056582645768612e-08 7.3661018766159545" Properties=species:S:1:pos:R:3:forces:R:3 energy=-39.9422492980957 free_energy=-39.9422492980957 stress="0.0002987121988553554 4.147406584831259e-10 -1.0801076477662264e-08 4.147406584831259e-10 0.00029876819462515414 2.5048876306499324e-09 -1.0801076477662264e-08 2.5048876306499324e-09 0.0002987824846059084" pbc="T T T"
Cs       2.12641044       1.50359922       3.68305093       0.00000004      -0.00000024      -0.00000000
Cs       6.37923129       4.51079764      11.04915280      -0.00000003       0.00000026       0.00000055
Hf      -0.00000024       0.00000014      -0.00000019      -0.00000248       0.00000035       0.00000101
S        2.04045573       1.44282005       7.36610192       0.00217783       0.00153965      -0.00000012
S        6.46518611       4.57157675       7.36610191      -0.00217754      -0.00154033       0.00000081
S        5.35900359       1.44282014       5.45013741      -0.00108734       0.00153911       0.00188494
S        3.14663838       4.57157673       9.28206640       0.00108832      -0.00153926      -0.00188553
S        3.14663839       4.57157668       5.45013749       0.00108841      -0.00153872       0.00188440
S        5.35900354       1.44282019       9.28206631      -0.00108716       0.00153929      -0.00188628
