9
Lattice="5.859924247128253 -1.0464903235206923e-07 3.3832300193468674 1.953308375126253 5.524792138996902 3.3832293413967354 1.5283165082449192e-07 -7.222477834761301e-07 6.766459773981945" Properties=species:S:1:pos:R:3:forces:R:3 energy=-36.19757080078125 free_energy=-36.19757080078125 stress="0.0002423279802314937 -2.53035977948457e-07 4.5798362435789386e-08 -2.53035977948457e-07 0.0002424765843898058 1.2497615387019323e-08 4.5798362435789386e-08 1.2497615387019323e-08 0.00024269582354463637" pbc="T T T"
Cs       1.95330628       1.38119871       3.38322957      -0.00000689       0.00000097      -0.00000092
Cs       5.85992294       4.14359358      10.14968966      -0.00000178      -0.00000694      -0.00001024
Ir       0.00002990      -0.00000276       0.00000670       0.00006233      -0.00000689       0.00001365
S        1.91677593       1.35536275       6.76645745       0.00108999       0.00078493       0.00000103
S        5.89644839       4.16942456       6.76645599      -0.00110829      -0.00077701       0.00000083
S        4.90152990       1.35537293       5.04321392      -0.00055420       0.00076395       0.00093454
S        2.91169488       4.16942377       8.48970631       0.00053409      -0.00076288      -0.00093591
S        2.91169667       4.16942158       5.04321073       0.00053069      -0.00075972       0.00093466
S        4.90152669       1.35537003       8.48970565      -0.00054574       0.00076312      -0.00093740
