9
Lattice="5.993818538269427 -3.3251698012020266e-08 3.4605330290718586 1.997939702371141 5.651026636171657 3.4605326463497663 3.086601601599078e-07 -2.504811653394744e-07 6.921065523528803" Properties=species:S:1:pos:R:3:forces:R:3 energy=-34.61146545410156 free_energy=-34.61146545410156 stress="-2.442365075694397e-05 -1.9957330010811347e-08 3.593716257910273e-08 -1.9957330010811347e-08 -2.435062560834922e-05 -7.538876189983057e-08 3.593716257910273e-08 -7.538876189983057e-08 -2.439404488541186e-05" pbc="T T T"
Cs       1.99793737       1.41275855       3.46053337       0.00000766      -0.00001045      -0.00000171
Cs       5.99382053       4.23826836      10.38159813      -0.00000682       0.00000914      -0.00000207
Ir       0.00000021       0.00000062       0.00000141       0.00000304      -0.00000640      -0.00000627
Se       2.06020096       1.45678307       6.92106502      -0.00047419      -0.00034204       0.00000173
Se       5.93155761       4.19424446       6.92106478       0.00047610       0.00034087       0.00000060
Se       4.96371933       1.45678225       5.24471838       0.00023147      -0.00033610      -0.00040989
Se       3.02803923       4.19424244       8.59741128      -0.00023472       0.00034178       0.00041663
Se       3.02804090       4.19424190       5.24471996      -0.00023814       0.00034613      -0.00041730
Se       4.96371822       1.45678373       8.59741245       0.00023561      -0.00034293       0.00041822
