9
Lattice="5.849992849724336 -1.4791584259558991e-07 3.377494889416928 1.9499975505663807 5.515425881983059 3.3774947622012794 1.4438880552102462e-07 -5.370849909624587e-08 6.754989528745034" Properties=species:S:1:pos:R:3:forces:R:3 energy=-46.40668487548828 free_energy=-46.40668487548828 stress="2.986874278576579e-05 -2.2504718089066955e-08 -1.2662811244013028e-08 -2.2504718089066955e-08 2.985174796776846e-05 -1.4452186114510823e-08 -1.2662811244013028e-08 -1.4452186114510823e-08 2.982245132443495e-05" pbc="T T T"
Cs       1.94999776       1.37885675       3.37749500       0.00000032      -0.00000074      -0.00000024
Cs       5.84999260       4.13656948      10.13248381       0.00000065       0.00000011       0.00000034
Ir       0.00000033       0.00000012       0.00000007      -0.00000692       0.00000339      -0.00000285
O        1.52820571       1.08060399       6.75498930      -0.00106299      -0.00075090       0.00000043
O        6.27178539       4.43482116       6.75498978       0.00106490       0.00075328      -0.00000032
O        5.08588975       1.08060434       4.70095925       0.00053340      -0.00075293      -0.00092220
O        2.71410032       4.43482103       8.80901980      -0.00053167       0.00075120       0.00092012
O        2.71410019       4.43482142       4.70095964      -0.00053120       0.00075072      -0.00091839
O        5.08588995       1.08060436       8.80901986       0.00053346      -0.00075394       0.00092340
