9
Lattice="7.2563255550205294 -1.3730061821272449e-06 4.189440519856274 2.418773625385878 6.841331191320334 4.1894409790894676 -6.822866940842838e-07 7.999390856217497e-08 8.378882221467808" Properties=species:S:1:pos:R:3:forces:R:3 energy=-32.84227752685547 free_energy=-32.84227752685547 stress="5.998109918436967e-05 2.5787523227904785e-08 -8.17551093490465e-09 2.5787523227904785e-08 5.988648990751244e-05 2.755667161125075e-08 -8.17551093490465e-09 2.755667161125075e-08 6.020467117195949e-05" pbc="T T T"
Cs       2.41877408       1.71033133       4.18944068      -0.00000054       0.00000041       0.00000073
Cs       7.25632466       5.13099828      12.56832248       0.00000075       0.00000014      -0.00000089
Mn      -0.00000179       0.00000025      -0.00000028       0.00001054      -0.00001095       0.00002068
Te       2.02240191       1.43005536       8.37888068       0.00057323       0.00040890      -0.00000192
Te       7.65269493       5.41127373       8.37888154      -0.00058038      -0.00041425      -0.00000090
Te       6.24512245       1.43005979       5.94089170      -0.00028793       0.00041212       0.00048601
Te       3.42997667       5.41127226      10.81687319       0.00028991      -0.00040945      -0.00048581
Te       3.42997781       5.41127156       5.94089183       0.00028727      -0.00040756       0.00048006
Te       6.24512325       1.43005703      10.81687305      -0.00029284       0.00042064      -0.00049797
