9
Lattice="6.216986378094799 -1.065837649523591e-07 3.589379605170078 2.0723286128230374 5.861431604452568 3.589379742671833 2.471158773602178e-07 3.431426358235562e-07 7.178758782321848" Properties=species:S:1:pos:R:3:forces:R:3 energy=-38.3477668762207 free_energy=-38.3477668762207 stress="6.320292595773935e-05 -3.9934946016728645e-07 -2.9802816214896666e-08 -3.9934946016728645e-07 6.354253855533898e-05 4.779116480335688e-08 -2.9802816214896666e-08 4.779116480335688e-08 6.381747516570613e-05" pbc="T T T"
Cs       2.07232814       1.46535607       3.58937989       0.00000307       0.00000017      -0.00000164
Cs       6.21698785       4.39607509      10.76813912      -0.00000545      -0.00000175       0.00000047
Mo      -0.00000022      -0.00001126       0.00000364       0.00000822       0.00019423      -0.00006017
Se       1.97525174       1.39671620       7.17875826       0.00061116       0.00043529      -0.00000134
Se       6.31407108       4.46471980       7.17875948      -0.00073141      -0.00050530      -0.00000298
Se       5.22935900       1.39671563       5.30000159      -0.00029759       0.00043020       0.00051051
Se       3.05995368       4.46471783       9.05752068       0.00033313      -0.00046089      -0.00057414
Se       3.05995162       4.46471944       5.29999487       0.00035799      -0.00049400       0.00061190
Se       5.22935840       1.39671790       9.05751517      -0.00027902       0.00040203      -0.00048265
