9
Lattice="5.931244538578657 -1.4542415110760242e-07 3.424405385512132 1.977081353413633 5.592030575509638 3.4244054242039508 -6.72853065100839e-08 -1.9037099870694074e-10 6.848810887565783" Properties=species:S:1:pos:R:3:forces:R:3 energy=-47.29106903076172 free_energy=-47.29106903076172 stress="-9.40112367970869e-05 1.400463300882393e-08 3.1297828773091396e-09 1.400463300882393e-08 -9.402099385624751e-05 -5.979271300304845e-09 3.1297828773091396e-09 -5.979271300304845e-09 -9.408412006450817e-05" pbc="T T T"
Cs       1.97708188       1.39800724       3.42440639       0.00000016       0.00000025      -0.00000087
Cs       5.93124421       4.19402360      10.27321568      -0.00000113      -0.00000056       0.00000090
Mo      -0.00000012      -0.00000036       0.00000031       0.00000072      -0.00000210       0.00000229
O        1.54018953       1.08907773       6.84881077       0.00212729       0.00150436      -0.00000097
O        6.36813620       4.50295265       6.84881102      -0.00212705      -0.00150412      -0.00000164
O        5.16114956       1.08907878       4.75824761      -0.00106335       0.00150543       0.00184596
O        2.74717607       4.50295252       8.93937300       0.00106412      -0.00150555      -0.00184393
O        2.74717633       4.50295182       4.75824800       0.00106323      -0.00150299       0.00184345
O        5.16115081       1.08907837       8.93937315      -0.00106442       0.00150555      -0.00184548
