9
Lattice="6.0629603004457 2.0790780129007462e-08 3.5004511227004267 2.0209864231296955 5.716214865392391 3.500451751931767 -3.08168063244657e-07 5.52740584582604e-07 7.0009027791625975" Properties=species:S:1:pos:R:3:forces:R:3 energy=-35.76213073730469 free_energy=-35.76213073730469 stress="6.610449054278433e-05 -2.751800423084205e-07 5.149034620899329e-08 -2.751800423084205e-07 6.635428871959448e-05 -1.0313905818293279e-07 5.149034620899329e-08 -1.0313905818293279e-07 6.667507841484621e-05" pbc="T T T"
Cs       2.02098389       1.42905370       3.50045063      -0.00000393      -0.00000621       0.00000838
Cs       6.06296227       4.28716140      10.50135468       0.00000429       0.00000215       0.00000240
Mn       0.00000119       0.00000097      -0.00000444      -0.00001248       0.00000105       0.00004829
Se       1.93076047       1.36525177       7.00090566      -0.00243908      -0.00172359      -0.00000647
Se       6.15318782       4.35096363       7.00090404       0.00244218       0.00172839      -0.00000458
Se       5.09757720       1.36525637       5.17253777       0.00123574      -0.00174758      -0.00214976
Se       2.98636926       4.35095620       8.82926983      -0.00122072       0.00173378       0.00211981
Se       2.98637019       4.35095698       5.17253797      -0.00123689       0.00175339      -0.00215062
Se       5.09757427       1.36525996       8.82926631       0.00123091      -0.00174141       0.00213265
