9
Lattice="6.531637366932343 2.1650110276018082e-07 3.7710441302649156 2.1772125378485194 6.158090364347244 3.7710443414273955 6.972478757567166e-07 7.516487361544258e-07 7.5420870528610315" Properties=species:S:1:pos:R:3:forces:R:3 energy=-38.58633041381836 free_energy=-38.58633041381836 stress="-2.0502848201431334e-05 -1.8835683590623375e-07 -1.5725140301015017e-08 -1.8835683590623375e-07 -2.0401144865900278e-05 -3.2167811525596335e-08 -1.5725140301015017e-08 -3.2167811525596335e-08 -2.021051841438748e-05" pbc="T T T"
Cs       2.17721326       1.53952336       3.77104493      -0.00000062       0.00000017      -0.00000073
Cs       6.53163813       4.61856788      11.31313427       0.00000004       0.00000006      -0.00000162
Mn       0.00000065       0.00000007       0.00000088      -0.00000743       0.00000622      -0.00006150
S        1.82130363       1.28785750       7.54208964       0.00179422       0.00127131      -0.00000124
S        6.88754747       4.87023423       7.54208851      -0.00179291      -0.00126958      -0.00000557
S        5.62098580       1.28785796       5.34833844      -0.00089461       0.00127006       0.00154817
S        3.08786454       4.87023100       9.73583333       0.00087386      -0.00123960      -0.00151885
S        3.08786556       4.87023384       5.34833853       0.00089914      -0.00127119       0.00155270
S        5.62098338       1.28786059       9.73583317      -0.00087190       0.00123262      -0.00151157
