9
Lattice="5.708555477136463 -3.4714807360269653e-07 3.2958362020520164 1.9028516555008972 5.382077726446542 3.295835929976096 -2.0618102718304457e-09 -3.34681423956742e-07 6.591672407674979" Properties=species:S:1:pos:R:3:forces:R:3 energy=-43.46710205078125 free_energy=-43.46710205078125 stress="-0.00017540264525450766 -2.9892209596482644e-08 -1.675383387578222e-08 -2.9892209596482644e-08 -0.000175390305230394 1.7374919281110124e-08 -1.675383387578222e-08 1.7374919281110124e-08 -0.00017534905055072159" pbc="T T T"
Cs       1.90285132       1.34551916       3.29583653       0.00000012       0.00000019      -0.00000081
Cs       5.70855577       4.03655814       9.88750838      -0.00000013      -0.00000026       0.00000003
Mn       0.00000219       0.00000207      -0.00000032       0.00000295       0.00000538       0.00000175
O        1.48465465       1.04980890       6.59167261       0.00026739       0.00018868       0.00000069
O        6.12675334       4.33226811       6.59167207      -0.00025108      -0.00017847       0.00000042
O        4.96622752       1.04980836       4.58158470      -0.00013193       0.00017507       0.00022037
O        2.64517803       4.33226724       8.60175985       0.00012331      -0.00018629      -0.00022148
O        2.64517775       4.33226778       4.58158449       0.00012293      -0.00018378       0.00022174
O        4.96622808       1.04980826       8.60176011      -0.00013383       0.00017951      -0.00022288
