9
Lattice="7.392912771227281 -1.1978232696576906e-06 4.2683012339024025 2.4643036829039087 6.970105604829551 4.268300272360362 1.9288733144788967e-07 -1.0412519438570882e-06 8.536602133713965" Properties=species:S:1:pos:R:3:forces:R:3 energy=-34.6199836730957 free_energy=-34.6199836730957 stress="-1.8536373318056576e-05 -8.673860207863981e-08 5.369802025256831e-08 -8.673860207863981e-08 -1.8450949937687255e-05 -3.220661781710987e-08 5.369802025256831e-08 -3.220661781710987e-08 -1.8437574908602983e-05" pbc="T T T"
Cs       2.46430463       1.74252507       4.26830082      -0.00000010       0.00000148      -0.00000012
Cs       7.39291219       5.22757848      12.80490335       0.00000023      -0.00000054       0.00000050
Nb      -0.00000104      -0.00000003       0.00000032       0.00000110      -0.00001202      -0.00001135
Te       2.19483911       1.55198721       8.53660216       0.00054742       0.00038659      -0.00000035
Te       7.66237530       5.41811570       8.53660264      -0.00054769      -0.00038613       0.00000292
Te       6.29549121       1.55198451       6.16908980      -0.00027051       0.00038376       0.00047192
Te       3.56172838       5.41811850      10.90411209       0.00026904      -0.00037597      -0.00046356
Te       3.56172586       5.41811850       6.16909146       0.00026419      -0.00037418       0.00046068
Te       6.29549073       1.55198547      10.90411192      -0.00026374       0.00037704      -0.00046058
