9
Lattice="6.523353530981468 1.4626549349754796e-06 3.766259577578999 2.174452822466209 6.150275205787016 3.766259116042953 4.0864933744313617e-07 -2.763052487676016e-07 7.532518447356109" Properties=species:S:1:pos:R:3:forces:R:3 energy=-41.497005462646484 free_energy=-41.497005462646484 stress="-3.194367991454783e-06 4.2589650206537044e-07 1.0028298902398092e-07 4.2589650206537044e-07 -3.530742787916097e-06 -1.502754969351372e-07 1.0028298902398092e-07 -1.502754969351372e-07 -3.8094706269475864e-06" pbc="T T T"
Cs       2.17445174       1.53756893       3.76625911      -0.00000064      -0.00000031      -0.00000012
Cs       6.52335498       4.61270777      11.29877518       0.00000013      -0.00000044       0.00000248
Nb       0.00000245       0.00000101      -0.00000287      -0.00001607      -0.00000243       0.00006075
S        1.92410801       1.36054924       7.53251806       0.00006133       0.00004485       0.00000280
S        6.77369927       4.78972809       7.53251848      -0.00004506      -0.00003192       0.00000133
S        5.56130053       1.36054686       5.43258092      -0.00004485       0.00006247       0.00007898
S        3.13650307       4.78973085       9.63245934       0.00006676      -0.00009775      -0.00011742
S        3.13650463       4.78972787       5.43258248       0.00003642      -0.00005323       0.00006706
S        5.56130281       1.36054495       9.63245797      -0.00005779       0.00007910      -0.00009555
