9
Lattice="7.044414335199493 -2.491285593757516e-06 4.0670936489881955 2.348142575205432 6.641529897285422 4.067081849764293 6.6166719267905804e-06 -9.772336471883586e-06 8.134175837555276" Properties=species:S:1:pos:R:3:forces:R:3 energy=-38.06147384643555 free_energy=-38.06147384643555 stress="0.00011573053780011833 -6.17158661952999e-07 7.529326921940083e-07 -6.17158661952999e-07 0.0001162719345302321 -1.1952802196901757e-06 7.529326921940083e-07 -1.1952802196901757e-06 0.00011649370571831241" pbc="T T T"
Cs       2.34813027       1.66037245       4.06708012       0.00000530       0.00000455       0.00000427
Cs       7.04442738       4.98114405      12.20127393      -0.00000426      -0.00000390      -0.00000399
Nb       0.00002061      -0.00001156      -0.00000605      -0.00015790       0.00010805      -0.00000455
Se       2.02606590       1.43261817       8.13418504      -0.00413266      -0.00290315       0.00000641
Se       7.36649634       5.20890370       8.13417106       0.00419444       0.00298692       0.00000370
Se       6.03139125       1.43263584       5.82170303       0.00210585      -0.00299357      -0.00366989
Se       3.36116868       5.20888062      10.44664498      -0.00205131       0.00288533       0.00352460
Se       3.36116909       5.20889307       5.82172161      -0.00214635       0.00302629      -0.00368565
Se       6.03138604       1.43263473      10.44663090       0.00218673      -0.00311044       0.00382516
