9
Lattice="5.628320579087059 -3.6317839769803457e-07 3.249512385104888 1.8761068186911862 5.306429532109163 3.249511863058813 4.147067044118385e-07 -3.4613119720909987e-07 6.499024051916557" Properties=species:S:1:pos:R:3:forces:R:3 energy=-34.81689453125 free_energy=-34.81689453125 stress="3.896327689290047e-05 3.1045189530232165e-08 1.1651907882992418e-08 3.1045189530232165e-08 3.876912160194479e-05 1.2456591313991794e-08 1.1651907882992418e-08 1.2456591313991794e-08 3.8998830859782174e-05" pbc="T T T"
Cs       1.87610862       1.32660985       3.24951164      -0.00000113      -0.00000224      -0.00000035
Cs       5.62832324       3.97982278       9.74853155      -0.00000241      -0.00000088       0.00000464
Ni       0.00000126      -0.00000024       0.00000009       0.00000515      -0.00000063       0.00001274
O        1.47519068       1.04311946       6.49902539       0.00188178       0.00133525      -0.00000069
O        6.02923769       4.26331247       6.49902438      -0.00188221      -0.00133479      -0.00000074
O        4.89072312       1.04311775       4.52706297      -0.00094082       0.00133404       0.00162704
O        2.61370017       4.26330840       8.47098562       0.00094385      -0.00133869      -0.00163345
O        2.61369993       4.26330967       4.52706590       0.00094110      -0.00133321       0.00162613
O        4.89072629       1.04311681       8.47098717      -0.00094528       0.00134112      -0.00163546
