9
Lattice="5.826280355188248 2.6762525727530568e-06 3.3638030298645867 1.9420956320383538 5.493073511078706 3.363803623761649 -7.769455679437347e-09 7.218786515028813e-07 6.727606073186415" Properties=species:S:1:pos:R:3:forces:R:3 energy=-33.01428985595703 free_energy=-33.01428985595703 stress="-0.00010776822455227375 1.1557669949979754e-06 1.5828530308681366e-07 1.1557669949979754e-06 -0.00010846642544493079 -2.1730492960614356e-07 1.5828530308681366e-07 -2.1730492960614356e-07 -0.00010945726535283029" pbc="T T T"
Cs       1.94209401       1.37326717       3.36380535       0.00001139       0.00000503      -0.00000676
Cs       5.82628213       4.11980882      10.09141102      -0.00000595       0.00000801      -0.00000662
Ni       0.00000611       0.00000598       0.00000462      -0.00020257      -0.00019915      -0.00016249
S        1.78642312       1.26319769       6.72760794       0.00433332       0.00306135      -0.00000297
S        5.98194241       4.22987369       6.72760715      -0.00407612      -0.00288787      -0.00000418
S        4.93307543       1.26319375       4.91088440      -0.00219911       0.00308970       0.00379300
S        2.83530388       4.22988217       8.54432182       0.00211826      -0.00301132      -0.00367382
S        2.83530466       4.22988274       4.91088752       0.00216028      -0.00307012       0.00374925
S        4.93307268       1.26319668       8.54432109      -0.00213945       0.00300470      -0.00368574
