9
Lattice="5.913424562203827 -1.0268526598470467e-07 3.4141167099949943 1.9711413754292715 5.57523018121285 3.4141167939865973 -8.174622303761925e-08 4.5065432381520255e-08 6.82823356157844" Properties=species:S:1:pos:R:3:forces:R:3 energy=-31.214622497558594 free_energy=-31.214622497558594 stress="-9.345179569208995e-05 2.813614941032938e-08 1.1716368319980575e-08 2.813614941032938e-08 -9.346094157081097e-05 -1.1144794420658855e-08 1.1716368319980575e-08 -1.1144794420658855e-08 -9.343563579022884e-05" pbc="T T T"
Cs       1.97114090       1.39380704       3.41411648      -0.00000045       0.00000173       0.00000134
Cs       5.91342519       4.18142346      10.24235007       0.00000171      -0.00000273       0.00000111
Ni       0.00000008       0.00000030      -0.00000055      -0.00000829      -0.00001093       0.00001131
Se       1.93488873       1.36817251       6.82823385       0.00317547       0.00224681      -0.00000035
Se       5.94967553       4.20705608       6.82823365      -0.00316426      -0.00223710      -0.00000213
Se       4.94597915       1.36817390       5.08977845      -0.00158610       0.00224391       0.00274751
Se       2.93858652       4.20705714       8.56668880       0.00158696      -0.00224686      -0.00274949
Se       2.93858771       4.20705589       5.08977915       0.00158224      -0.00224024       0.00274178
Se       4.94597929       1.36817414       8.56668830      -0.00158730       0.00224552      -0.00275084
