9
Lattice="6.0151139733686465 4.05740127513388e-07 3.4728281165782855 2.0050382850305413 5.671103791629958 3.47282827008641 -7.07033141923202e-08 1.3801339092863255e-07 6.9456563556183015" Properties=species:S:1:pos:R:3:forces:R:3 energy=-50.483604431152344 free_energy=-50.483604431152344 stress="9.321660763816908e-05 8.47542924731215e-09 -2.6055250401668673e-08 8.47542924731215e-09 9.323904669145122e-05 3.36205765449904e-08 -2.6055250401668673e-08 3.36205765449904e-08 9.323178528575227e-05" pbc="T T T"
Cs       2.00503790       1.41777615       3.47282762       0.00000133       0.00000027      -0.00000124
Cs       6.01511475       4.25332747      10.41848375       0.00000014       0.00000100      -0.00000062
Nb       0.00000235       0.00000078      -0.00000392       0.00001441       0.00000548      -0.00002425
O        1.61664090       1.14313745       6.94565903      -0.00435281      -0.00307691       0.00000855
O        6.40351178       4.52796756       6.94565872       0.00435400       0.00307941       0.00000800
O        5.20679328       1.14313648       4.87287971       0.00217444      -0.00308466      -0.00376856
O        2.81335825       4.52796576       9.01843256      -0.00217837       0.00307262       0.00377131
O        2.81335674       4.52796607       4.87288018      -0.00218278       0.00307775      -0.00376582
O        5.20679271       1.14313843       9.01843363       0.00216931      -0.00307512       0.00377142
