9
Lattice="7.310777671463745 1.5625996806060518e-06 4.220879163637406 2.43692739758741 6.892665928456143 4.2208791049790255 2.505394107927801e-07 1.053161961870584e-07 8.441757893328282" Properties=species:S:1:pos:R:3:forces:R:3 energy=-28.947690963745117 free_energy=-28.947690963745117 stress="-2.226872311439365e-05 9.346739915372382e-08 -1.0220860602316861e-08 9.346739915372382e-08 -2.224334457423538e-05 2.6228933691641032e-08 -1.0220860602316861e-08 2.6228933691641032e-08 -2.2511057977681048e-05" pbc="T T T"
Cs       2.43692675       1.72316702       4.22087810      -0.00000116       0.00000084       0.00000137
Cs       7.31077890       5.16950061      12.66263774       0.00000093      -0.00000072      -0.00000128
Ni       0.00000129      -0.00000143       0.00000033      -0.00003159       0.00002088       0.00000107
Te       1.96393102       1.38870850       8.44175745       0.00372639       0.00263008      -0.00000063
Te       7.78377334       5.50395817       8.44175804      -0.00371522      -0.00262283       0.00000060
Te       6.32881229       1.38870773       5.92169273      -0.00186184       0.00262865       0.00323029
Te       3.41889178       5.50396199      10.96182393       0.00187211      -0.00264256      -0.00324841
Te       3.41889196       5.50396188       5.92169223       0.00187433      -0.00264741       0.00325289
Te       6.32881423       1.38870597      10.96182387      -0.00186400       0.00263302      -0.00323594
