9
Lattice="5.945774806602529 -2.8304693094222533e-07 3.4327960161031505 1.9819246041252396 5.605730525507916 3.432796127906401 2.774243101745114e-07 3.330990240879512e-07 6.865591551693191" Properties=species:S:1:pos:R:3:forces:R:3 energy=-38.7280158996582 free_energy=-38.7280158996582 stress="-0.00023287821386475116 -6.150483500277915e-08 -3.624653288625268e-08 -6.150483500277915e-08 -0.00023284932831302285 4.716002166560429e-08 -3.624653288625268e-08 4.716002166560429e-08 -0.00023272696125786752" pbc="T T T"
Cs       1.98192564       1.40143275       3.43279678      -0.00000219      -0.00000213       0.00000882
Cs       5.94577415       4.20429775      10.29838759       0.00000562       0.00000097       0.00001579
Os      -0.00000686       0.00000100      -0.00004006      -0.00005928       0.00000477      -0.00034545
S        1.89384448       1.33914864       6.86559647       0.00315791       0.00223160       0.00003066
S        6.03385993       4.26658252       6.86559808      -0.00313485      -0.00222099       0.00002579
S        4.99885254       1.33915154       5.07291972      -0.00158149       0.00224441       0.00277942
S        2.92884624       4.26658344       8.65827755       0.00155392      -0.00219250      -0.00265461
S        2.92884705       4.26657807       5.07291939       0.00160244      -0.00225401       0.00279337
S        4.99885542       1.33914653       8.65827925      -0.00154212       0.00218785      -0.00265318
