9
Lattice="5.877934455040816 1.7977454436081422e-07 3.3936274946145883 1.9593115909186114 5.541770689771436 3.393627604752398 1.2382068914868493e-07 2.2244512200882102e-07 6.7872547747653975" Properties=species:S:1:pos:R:3:forces:R:3 energy=-51.44696807861328 free_energy=-51.44696807861328 stress="4.0688533772481605e-05 -3.3570466406729338e-09 1.944697203271062e-08 -3.3570466406729338e-09 4.0704671846469864e-05 -3.0526301486588636e-08 1.944697203271062e-08 -3.0526301486588636e-08 4.06121980631724e-05" pbc="T T T"
Cs       1.95931121       1.38544285       3.39362763       0.00000024       0.00000012      -0.00000026
Cs       5.87793487       4.15632899      10.18088207      -0.00000040       0.00000019       0.00000043
Os       0.00000028       0.00000046       0.00000047      -0.00000248       0.00000413       0.00000045
O        1.52100783       1.07551411       6.78725478      -0.00167835      -0.00118542       0.00000087
O        6.31623929       4.46625610       6.78725497       0.00167334       0.00118458       0.00000169
O        5.11743106       1.07551435       4.71085886       0.00083971      -0.00118494      -0.00145316
O        2.71981502       4.46625613       8.86365185      -0.00083399       0.00118160       0.00144625
O        2.71981499       4.46625609       4.71085899      -0.00083816       0.00118542      -0.00145113
O        5.11743056       1.07551433       8.86365150       0.00084019      -0.00118589       0.00145590
