9
Lattice="5.995292823693655 -4.091635578898579e-07 3.4613842694631507 1.9984304613947326 5.65241661364557 3.4613844324030194 -9.755404758005278e-08 1.3057850910302312e-07 6.922768707894627" Properties=species:S:1:pos:R:3:forces:R:3 energy=-36.82728576660156 free_energy=-36.82728576660156 stress="4.886726674158126e-05 -9.701288661290164e-08 1.114670311608279e-08 -9.701288661290164e-08 4.897225880995393e-05 -9.382735477458937e-09 1.114670311608279e-08 -9.382735477458937e-09 4.903459193883464e-05" pbc="T T T"
Cs       1.99843116       1.41310471       3.46138448      -0.00000220      -0.00000053      -0.00000087
Cs       5.99529195       4.23931186      10.38415291       0.00000222      -0.00000040       0.00000076
Os      -0.00000077       0.00000069       0.00000036       0.00000721      -0.00000361      -0.00000210
Se       2.03485773       1.43886054       6.92276841       0.00351742       0.00249028       0.00000063
Se       5.95886570       4.21355559       6.92276906      -0.00352047      -0.00249185       0.00000001
Se       4.97786348       1.43886144       5.22362348      -0.00175659       0.00248469       0.00304471
Se       3.01586009       4.21355424       8.62191345       0.00175425      -0.00248016      -0.00303979
Se       3.01585984       4.21355437       5.22362407       0.00175422      -0.00248128       0.00303963
Se       4.97786347       1.43886180       8.62191366      -0.00175609       0.00248286      -0.00304291
