9
Lattice="5.743852413440735 4.925811068955885e-08 3.3162149584017078 1.9146174958673092 5.415356158725064 3.316214996022828 3.3868721855669895e-08 7.002508668612104e-08 6.632429858141118" Properties=species:S:1:pos:R:3:forces:R:3 energy=-40.13615417480469 free_energy=-40.13615417480469 stress="-0.0003373919753357768 1.7251284845087866e-08 -6.817757025601168e-09 1.7251284845087866e-08 -0.0003373413346707821 2.138978327792529e-09 -6.817757025601168e-09 2.138978327792529e-09 -0.0003373422659933567" pbc="T T T"
Cs       1.91461736       1.35383930       3.31621553       0.00000008      -0.00000048      -0.00000078
Cs       5.74385235       4.06151692       9.94864396       0.00000064       0.00000026       0.00000141
Pt       0.00000016      -0.00000004       0.00000028      -0.00000218      -0.00000593      -0.00000463
O        1.54717931       1.09402139       6.63242972       0.00443774       0.00313580      -0.00000092
O        6.11129026       4.32133507       6.63243011      -0.00443202      -0.00313419      -0.00000049
O        4.97026282       1.09402128       4.65611176      -0.00221926       0.00313812       0.00384450
O        2.68820716       4.32133480       8.60874795       0.00221562      -0.00313324      -0.00383711
O        2.68820696       4.32133502       4.65611183       0.00221792      -0.00313610       0.00384003
O        4.97026303       1.09402135       8.60874845      -0.00221828       0.00313586      -0.00384152
