9
Lattice="6.076505018211851 -1.8630100325517566e-06 3.5082743322006182 2.0255008920031945 5.728981868275948 3.5082726421897976 2.1193471381061195e-06 -5.712279357888415e-07 7.016544993584294" Properties=species:S:1:pos:R:3:forces:R:3 energy=-31.1204833984375 free_energy=-31.1204833984375 stress="0.00016051357670221478 -1.787336572078857e-07 4.304147793732227e-08 -1.787336572078857e-07 0.00016064013470895588 2.4844514001642892e-08 4.304147793732227e-08 2.4844514001642892e-08 0.00016082104411907494" pbc="T T T"
Cs       2.02550149       1.43224542       3.50827293      -0.00000210       0.00000457       0.00000659
Cs       6.07650580       4.29673466      10.52481942       0.00000225       0.00000540       0.00000856
P        0.00000129      -0.00000442      -0.00000961      -0.00000286       0.00001301       0.00005835
Se       1.91193726       1.35194620       7.01654690      -0.00693431      -0.00490776       0.00000399
Se       6.19006689       4.37703685       7.01655152       0.00692695       0.00490370      -0.00000059
Se       5.12053548       1.35194397       5.16406435       0.00348787      -0.00493431      -0.00604355
Se       2.98147741       4.37703366       8.86902641      -0.00345901       0.00488976       0.00599128
Se       2.98147364       4.37703663       5.16406437      -0.00348622       0.00492355      -0.00602788
Se       5.12053321       1.35194518       8.86903149       0.00346735      -0.00489801       0.00600344
