9
Lattice="5.8655980543059485 6.116298028099847e-08 3.3865048535009885 1.9551994645606396 5.530139546757558 3.386504757440988 2.1554418382434384e-07 3.476369522807172e-08 6.773009333668475" Properties=species:S:1:pos:R:3:forces:R:3 energy=-35.95985412597656 free_energy=-35.95985412597656 stress="-5.703723218175583e-07 7.261592438467801e-10 -1.590177589605446e-08 7.261592438467801e-10 -5.940876803833817e-07 -3.2592208043524806e-08 -1.590177589605446e-08 -3.2592208043524806e-08 -5.81019321543863e-07" pbc="T T T"
Cs       1.95519876       1.38253527       3.38650400       0.00000107       0.00000035       0.00000069
Cs       5.86559846       4.14760492      10.15951444       0.00000049      -0.00000051      -0.00000065
Pb       0.00000126       0.00000026      -0.00000009      -0.00000424       0.00000229       0.00000298
O        1.75870157       1.24359007       6.77300949      -0.00003856      -0.00002691       0.00000058
O        6.06209710       4.28654963       6.77300991       0.00004154       0.00002965       0.00000069
O        4.98624717       1.24358925       4.90958440       0.00001936      -0.00002861      -0.00003645
O        2.83454974       4.28654971       8.63643456      -0.00001881       0.00002474       0.00003064
O        2.83454951       4.28654977       4.90958433      -0.00002013       0.00002715      -0.00003356
O        4.98624742       1.24358954       8.63643494       0.00001922      -0.00002813       0.00003478
