9
Lattice="6.886094469250149 -8.811276759639156e-08 3.9756890355539687 2.2953647708580247 6.492272674313076 3.9756889821234265 6.246919392785806e-07 3.7628517497250924e-07 7.951376989109772" Properties=species:S:1:pos:R:3:forces:R:3 energy=-27.89238166809082 free_energy=-27.89238166809082 stress="-0.0002035677171079442 4.409090453849629e-11 -2.6100344996393687e-08 4.409090453849629e-11 -0.00020357994071673602 -2.3148970740294317e-08 -2.6100344996393687e-08 -2.3148970740294317e-08 -0.00020353772561065853" pbc="T T T"
Cs       2.29536486       1.62306811       3.97568858       0.00000067       0.00000057       0.00000024
Cs       6.88609463       4.86920467      11.92706625       0.00000040      -0.00000006       0.00000110
Pb       0.00000099       0.00000091       0.00000260       0.00000172      -0.00000045       0.00000119
Te       2.67068861       1.88846129       7.95137616      -0.00360513      -0.00254875      -0.00000181
Te       6.51076911       4.60381013       7.95137944       0.00360404       0.00254999       0.00000033
Te       5.55075063       1.88846069       6.28857370       0.00180164      -0.00255027      -0.00312293
Te       3.63071087       4.60381017       9.61418032      -0.00180265       0.00255018       0.00312019
Te       3.63070829       4.60381184       6.28857299      -0.00180285       0.00254869      -0.00312087
Te       5.55075140       1.88846404       9.61418002       0.00180215      -0.00255001       0.00312261
