9
Lattice="6.308679217167944 -8.964473767599452e-07 3.6423172844897995 2.1028924484938285 5.947878737418971 3.6423169012161165 -2.973988086965517e-07 -6.797053086924596e-07 7.284635084089652" Properties=species:S:1:pos:R:3:forces:R:3 energy=-33.9371337890625 free_energy=-33.9371337890625 stress="2.311332991666859e-06 -1.3893639128070845e-08 1.8671069135223206e-09 -1.3893639128070845e-08 2.3003619844530476e-06 -4.918972607015348e-08 1.8671069135223206e-09 -4.918972607015348e-08 2.286470817125519e-06" pbc="T T T"
Cs       2.10289266       1.48696869       3.64231676       0.00000009       0.00000056       0.00000138
Cs       6.30867928       4.46090774      10.92695181      -0.00000057       0.00000036       0.00000044
P       -0.00000018      -0.00000014      -0.00000000      -0.00000079      -0.00000405       0.00000417
S        1.79076331       1.26625993       7.28463534       0.00087667       0.00061858      -0.00000101
S        6.62080769       4.68161700       7.28463395      -0.00087333      -0.00061762       0.00000018
S        5.41329759       1.26626052       5.19316387      -0.00043869       0.00061929       0.00075901
S        2.99827408       4.68161686       9.37610585       0.00043964      -0.00061989      -0.00075853
S        2.99827420       4.68161748       5.19316366       0.00043625      -0.00061822       0.00075579
S        5.41329695       1.26625991       9.37610652      -0.00043905       0.00062096      -0.00076127
