9
Lattice="5.7675692284366 -2.374735077772042e-07 3.329907238101761 1.922523036824611 5.437715661153987 3.3299069184148724 2.2000895200853233e-07 -2.3596496150499355e-07 6.659814095136799" Properties=species:S:1:pos:R:3:forces:R:3 energy=-44.273155212402344 free_energy=-44.273155212402344 stress="-3.9597009163117036e-05 2.5976875761557494e-08 -3.7510357486780777e-08 2.5976875761557494e-08 -3.94720264011994e-05 1.1495475682465894e-09 -3.7510357486780777e-08 1.1495475682465894e-09 -3.951140752178617e-05" pbc="T T T"
Cs       1.92252322       1.35942876       3.32990692      -0.00000012      -0.00000030       0.00000033
Cs       5.76756908       4.07828642       9.98972148       0.00000006      -0.00000057      -0.00000002
P       -0.00000006       0.00000013       0.00000034      -0.00000020       0.00000693      -0.00000184
O        1.39692990       0.98777779       6.65981422       0.00012922       0.00008965      -0.00000094
O        6.29316324       4.44993717       6.65981396      -0.00013113      -0.00009346       0.00000005
O        5.06910405       0.98777747       4.53968379      -0.00006604       0.00009298       0.00011396
O        2.62098774       4.44993728       8.77994533       0.00006580      -0.00009179      -0.00011325
O        2.62098813       4.44993713       4.53968332       0.00006700      -0.00009179       0.00011420
O        5.06910444       0.98777819       8.77994464      -0.00006402       0.00008988      -0.00011277
