9
Lattice="5.9689047478267305 -5.710562315219392e-07 3.4461488685618047 1.989634397420431 5.627537282236476 3.4461488341371487 1.1174246557278232e-07 3.6852262229604376e-08 6.892297543580304" Properties=species:S:1:pos:R:3:forces:R:3 energy=-29.18021011352539 free_energy=-29.18021011352539 stress="5.08028506374103e-06 -1.0186408161416693e-07 6.629115034684219e-09 -1.0186408161416693e-07 5.120779860590119e-06 1.546040273581184e-08 6.629115034684219e-09 1.546040273581184e-08 5.1082488425890915e-06" pbc="T T T"
Cs       1.98963459       1.40688408       3.44614847      -0.00000172      -0.00000290       0.00000598
Cs       5.96890489       4.22065236      10.33844683      -0.00000169       0.00000028       0.00000284
Pb      -0.00000451      -0.00000433       0.00000802       0.00003371       0.00003348      -0.00006272
S        2.16433745       1.53041813       6.89229872       0.00117376       0.00082931       0.00000278
S        5.79420852       4.09712324       6.89229849      -0.00119740      -0.00084727       0.00000364
S        4.88673806       1.53041390       5.32051625      -0.00059836       0.00084083       0.00103725
S        3.07180394       4.09711740       8.46407477       0.00058588      -0.00083371      -0.00101554
S        3.07180006       4.09712305       5.32051579       0.00059445      -0.00084874       0.00103921
S        4.88673396       1.53041909       8.46407381      -0.00058888       0.00082859      -0.00101329
