9
Lattice="6.376780822121924 -8.827534544542797e-07 3.6816354091062418 2.125592737742231 6.012084442913536 3.6816354738223196 -1.9612940007804632e-07 -5.942360753383434e-08 7.3632711579183985" Properties=species:S:1:pos:R:3:forces:R:3 energy=-29.317134857177734 free_energy=-29.317134857177734 stress="-6.452324305428192e-05 1.0984448550743764e-07 5.693127391737107e-08 1.0984448550743764e-07 -6.403914449037984e-05 -1.2201216925689096e-08 5.693127391737107e-08 -1.2201216925689096e-08 -6.424624007195234e-05" pbc="T T T"
Cs       2.12559326       1.50302073       3.68163568       0.00000126      -0.00000029      -0.00000143
Cs       6.37677985       4.50906317      11.04490601      -0.00000244       0.00000260      -0.00000146
Pb      -0.00000081       0.00000082      -0.00000124      -0.00000211       0.00000404      -0.00000449
Se       2.57039129       1.81754538       7.36327050      -0.00540778      -0.00380279      -0.00000217
Se       5.93198109       4.19453976       7.36326915       0.00540245       0.00380966      -0.00000754
Se       5.09158548       1.81754367       5.90766019       0.00270671      -0.00380912      -0.00467947
Se       3.41078667       4.19454176       8.81887970      -0.00271168       0.00381677       0.00467165
Se       3.41079019       4.19453843       5.90766493      -0.00269949       0.00380357      -0.00466253
Se       5.09158645       1.81754032       8.81888321       0.00271308      -0.00382441       0.00468747
