9
Lattice="5.98503432278105 3.710234382478823e-08 3.4554602101112915 1.9950113460562982 5.642744131249582 3.45546043502014 -9.226380299296665e-08 2.1021541456846888e-07 6.910920580028275" Properties=species:S:1:pos:R:3:forces:R:3 energy=-30.96697998046875 free_energy=-30.96697998046875 stress="7.269140041898936e-05 3.573724782768295e-08 -2.2301477997643815e-08 3.573724782768295e-08 7.263848965521902e-05 2.0501476072354308e-08 -2.2301477997643815e-08 2.0501476072354308e-08 7.259815174620599e-05" pbc="T T T"
Cs       1.99501023       1.41068570       3.45545973      -0.00000849      -0.00000006      -0.00000093
Cs       5.98503469       4.23205862      10.36638204       0.00000677      -0.00000142       0.00000236
Pd       0.00000108       0.00000065       0.00000028      -0.00000786      -0.00000179      -0.00000666
Se       2.07192418       1.46506875       6.91091993      -0.00066040      -0.00046219       0.00000030
Se       5.90812257       4.17767653       6.91092160       0.00066486       0.00046435       0.00000072
Se       4.94907159       1.46506969       5.24979561       0.00032898      -0.00046438      -0.00056957
Se       3.03097398       4.17767305       8.57204489      -0.00032901       0.00046815       0.00057009
Se       3.03097199       4.17767231       5.24979471      -0.00032628       0.00046562      -0.00056505
Se       4.94907188       1.46507232       8.57204617       0.00033136      -0.00046819       0.00056876
