9
Lattice="5.842634937347218 -4.86185360852038e-07 3.3732475377138957 1.9475448269489528 5.50848896978788 3.3732470073370546 1.5185419139754772e-07 -5.421990599406877e-07 6.746494812408099" Properties=species:S:1:pos:R:3:forces:R:3 energy=-31.739717483520508 free_energy=-31.739717483520508 stress="8.957116369856521e-05 -9.745560447527168e-08 8.001164175652775e-09 -9.745560447527168e-08 8.966044697444886e-05 -5.328847407781723e-08 8.001164175652775e-09 -5.328847407781723e-08 8.977419201983139e-05" pbc="T T T"
Cs       1.94754519       1.37712226       3.37324689       0.00000258      -0.00000101       0.00000175
Cs       5.84263541       4.13136661      10.11974185      -0.00000584       0.00000029       0.00000433
Pd      -0.00000102       0.00000123      -0.00000051       0.00000493      -0.00002300       0.00001673
S        1.94635026       1.37627780       6.74649484      -0.00131780      -0.00093126      -0.00000267
S        5.84382764       4.13220870       6.74649535       0.00131983       0.00093794      -0.00000353
S        4.86945863       1.37627857       5.05883971       0.00066295      -0.00093043      -0.00114900
S        2.92072130       4.13220929       8.43415079      -0.00066054       0.00093931       0.00114483
S        2.92072182       4.13220912       5.05883973      -0.00066707       0.00094169      -0.00115508
S        4.86945947       1.37627838       8.43415118       0.00066143      -0.00093323       0.00114244
