9
Lattice="5.889433067165706 4.98931496464114e-07 3.4002634749462386 1.9631440075505566 5.552608440682421 3.400264892748439 -4.4849322908636457e-07 1.4193131191707946e-06 6.800527726705506" Properties=species:S:1:pos:R:3:forces:R:3 energy=-33.45320510864258 free_energy=-33.45320510864258 stress="0.00013032536662649363 6.235688232436587e-08 1.7873085234043629e-09 6.235688232436587e-08 0.00013022081111557782 -5.3959516854718e-09 1.7873085234043629e-09 -5.3959516854718e-09 0.000130203363369219" pbc="T T T"
Cs       1.96314410       1.38815293       3.40026416      -0.00000026       0.00000114      -0.00000268
Cs       5.88943001       4.16445802      10.20079248       0.00000008       0.00000088      -0.00000408
Pt       0.00000239       0.00000250       0.00000136      -0.00000047      -0.00003715      -0.00000309
S        1.88993059       1.33638592       6.80052674      -0.00142851      -0.00100675       0.00000133
S        5.96264905       4.21622408       6.80052807       0.00143903       0.00103110      -0.00000032
S        4.94446615       1.33638175       5.03698839       0.00071467      -0.00100613      -0.00123301
S        2.90810780       4.21622877       8.56405974      -0.00072090       0.00101361       0.00124407
S        2.90811061       4.21622632       5.03699672      -0.00072244       0.00101084      -0.00123936
S        4.94446570       1.33638107       8.56406708       0.00071873      -0.00100753       0.00123721
