9
Lattice="5.984739304821487 -1.2664066723437274e-06 3.455290692825385 1.994911544299347 5.642469977334237 3.455291322125267 -1.362596393332998e-06 -1.9276758194790656e-07 6.910583745736722" Properties=species:S:1:pos:R:3:forces:R:3 energy=-32.22074890136719 free_energy=-32.22074890136719 stress="-1.087995883608528e-06 -9.588666927129452e-08 2.4571315648813652e-08 -9.588666927129452e-08 -8.979063181868696e-07 -1.0790573412577942e-07 2.4571315648813652e-08 -1.0790573412577942e-07 -9.658151611802168e-07" pbc="T T T"
Cs       1.99491101       1.41061470       3.45529271      -0.00000099      -0.00000048      -0.00000034
Cs       5.98473769       4.23185353      10.36587456      -0.00000302      -0.00000212       0.00000248
Pt      -0.00000089      -0.00000151      -0.00000077       0.00002315       0.00001998      -0.00001124
Se       2.03639850       1.43995464       6.91058427      -0.00018478      -0.00013278       0.00000011
Se       5.94325482       4.20251751       6.91058347       0.00016349       0.00011462      -0.00000217
Se       4.96654031       1.43995032       5.21886151       0.00008689      -0.00012264      -0.00015224
Se       3.01311036       4.20251321       8.60230234      -0.00009063       0.00012861       0.00015546
Se       3.01311040       4.20251563       5.21886351      -0.00009056       0.00012849      -0.00015749
Se       4.96653550       1.43995387       8.60230033       0.00009644      -0.00013367       0.00016537
