9
Lattice="5.770367227685276 1.4876230298451074e-07 3.3315224809326343 1.9234557967158765 5.440356570584866 3.3315226300631156 -6.160133369174512e-07 -2.529407088559155e-07 6.663046028832187" Properties=species:S:1:pos:R:3:forces:R:3 energy=-34.93183517456055 free_energy=-34.93183517456055 stress="0.00017987379396799952 -3.27503926200734e-08 -6.752356007666549e-09 -3.27503926200734e-08 0.00017988031322602183 2.1358459889597725e-08 -6.752356007666549e-09 2.1358459889597725e-08 0.00017984717851504683" pbc="T T T"
Cs       1.92345585       1.36008968       3.33152399       0.00000309       0.00000349       0.00001169
Cs       5.77036754       4.08026742       9.99456887       0.00000073      -0.00000651       0.00000599
Rh      -0.00000625       0.00000081      -0.00001436      -0.00000275       0.00000079      -0.00000818
S        1.89976340       1.34333619       6.66305087      -0.00213575      -0.00151536      -0.00000037
S        5.79405782       4.09702026       6.66304882       0.00213405       0.00150996       0.00000021
S        4.82048678       1.34333410       4.97676826       0.00107333      -0.00151199      -0.00185409
S        2.87334119       4.09701848       8.34932540      -0.00106746       0.00150901       0.00184876
S        2.87333987       4.09702232       4.97676846      -0.00107205       0.00151375      -0.00185382
S        4.82048359       1.34333640       8.34932411       0.00106664      -0.00150320       0.00184980
