9
Lattice="5.952615164424259 2.681742339203883e-07 3.4367438640586037 1.9842052581135856 5.6121817833916925 3.436743949849926 -3.3846583542382915e-07 -1.3425896910474177e-07 6.8734883143570755" Properties=species:S:1:pos:R:3:forces:R:3 energy=-54.76407241821289 free_energy=-54.76407241821289 stress="4.590383105096407e-05 -1.7758812476120767e-10 -7.659846090746214e-09 -1.7758812476120767e-10 4.594546771841124e-05 3.5070524262437175e-08 -7.659846090746214e-09 3.5070524262437175e-08 4.585694114211947e-05" pbc="T T T"
Cs       1.98420533       1.40304591       3.43674405       0.00000046      -0.00000097       0.00000022
Cs       5.95261453       4.20913525      10.31023412       0.00000016      -0.00000004      -0.00000147
Re       0.00000059      -0.00000101      -0.00000017      -0.00000096       0.00000203       0.00000052
O        1.54487734       1.09239372       6.87348772      -0.00205541      -0.00145531      -0.00000150
O        6.39194261       4.51978852       6.87348706       0.00205660       0.00145292       0.00000086
O        5.18017600       1.09239435       4.77464594       0.00102818      -0.00145507      -0.00177550
O        2.75664339       4.51978740       8.97232853      -0.00102806       0.00145674       0.00177932
O        2.75664483       4.51978795       4.77464681      -0.00102890       0.00145435      -0.00177717
O        5.18017627       1.09239443       8.97232929       0.00102711      -0.00145411       0.00177503
