9
Lattice="5.880625954848136 -6.913747247522869e-08 3.3951810322678306 1.9602086285728224 5.544307548999386 3.3951809592787203 -9.740630039503131e-08 -1.5826966450737218e-07 6.790362233248335" Properties=species:S:1:pos:R:3:forces:R:3 energy=-42.27671813964844 free_energy=-42.27671813964844 stress="5.745016096625477e-05 8.48440928624683e-10 -9.572116432821076e-09 8.48440928624683e-10 5.748909097746946e-05 4.6052028856991e-09 -9.572116432821076e-09 4.6052028856991e-09 5.748559851781465e-05" pbc="T T T"
Cs       1.96020870       1.38607668       3.39518067      -0.00000041      -0.00000029       0.00000021
Cs       5.88062580       4.15823053      10.18554435       0.00000009      -0.00000003      -0.00000006
Rh      -0.00000025      -0.00000037       0.00000065       0.00000294      -0.00000073       0.00000144
O        1.56232250       1.10472879       6.79036218      -0.00400865      -0.00283498      -0.00000025
O        6.27851176       4.43957835       6.79036137       0.00400400       0.00283301      -0.00000052
O        5.09946452       1.10472930       4.74819289       0.00200346      -0.00283223      -0.00346941
O        2.74136944       4.43957845       8.83253135      -0.00200388       0.00283384       0.00347018
O        2.74137067       4.43957848       4.74819227      -0.00200188       0.00283301      -0.00347143
O        5.09946490       1.10472856       8.83253178       0.00200456      -0.00283146       0.00346899
