9
Lattice="7.3838086996847005 2.081465136620482e-07 4.263043820739889 2.4612695581098305 6.961520678879568 4.263044175280351 -1.154074212250827e-07 3.526162923090623e-07 8.526087841371316" Properties=species:S:1:pos:R:3:forces:R:3 energy=-36.04608154296875 free_energy=-36.04608154296875 stress="-1.7220612562596216e-06 -2.270205357035593e-09 -3.945491400259016e-08 -2.270205357035593e-09 -1.6591326357229264e-06 5.820911042064836e-08 -3.945491400259016e-08 5.820911042064836e-08 -1.7164851442430518e-06" pbc="T T T"
Cs       2.46126961       1.74038083       4.26304420      -0.00000014       0.00000095      -0.00000032
Cs       7.38380841       5.22114033      12.78913152      -0.00000016      -0.00000054       0.00000035
Re       0.00000047      -0.00000019       0.00000090      -0.00000333      -0.00000078      -0.00001201
Te       2.11543260       1.49583494       8.52608757       0.00072896       0.00051299       0.00000024
Te       7.72964554       5.46568659       8.52608763      -0.00072625      -0.00051111      -0.00000013
Te       6.32609187       1.49583505       6.09506218      -0.00036266       0.00051105       0.00062722
Te       3.51898634       5.46568623      10.95711315       0.00035989      -0.00050667      -0.00062266
Te       3.51898586       5.46568598       6.09506213       0.00036831      -0.00051844       0.00063735
Te       6.32609186       1.49583520      10.95711390      -0.00036462       0.00051266      -0.00062993
