9
Lattice="6.055316094260263 -5.454210114909187e-06 3.4960421627673295 2.0184340970511707 5.7090072356380235 3.4960412253059183 5.194382564733452e-07 -7.808527745352038e-07 6.992083425841502" Properties=species:S:1:pos:R:3:forces:R:3 energy=-39.16539001464844 free_energy=-39.16539001464844 stress="-3.341940464451909e-05 -5.170169288248871e-07 9.379823495692108e-08 -5.170169288248871e-07 -3.3102220186265185e-05 -1.17018529977031e-07 9.379823495692108e-08 -1.17018529977031e-07 -3.258710421505384e-05" pbc="T T T"
Cs       2.01843431       1.42725150       3.49604171       0.00001966       0.00001142      -0.00000125
Cs       6.05531426       4.28174765      10.48812679      -0.00001416      -0.00000512      -0.00000870
Re       0.00000017       0.00000313       0.00000920       0.00000585      -0.00001284      -0.00003765
Se       2.03215577       1.43694498       6.99208254      -0.00072092      -0.00050673       0.00000014
Se       6.04159684       4.27205613       6.99208164       0.00072134       0.00050792       0.00000416
Se       5.03924047       1.43694205       5.25594400       0.00036106      -0.00052035      -0.00064480
Se       3.03451211       4.27205496       8.72821632      -0.00037852       0.00054169       0.00067958
Se       3.03451193       4.27205811       5.25594738      -0.00037511       0.00052890      -0.00066680
Se       5.03923744       1.43694515       8.72821928       0.00038081      -0.00054479       0.00067544
