9
Lattice="5.7749479405973325 -3.541038912475606e-07 3.3341683825524364 1.9249827773415984 5.444673223795804 3.3341675783126483 3.1787358326449223e-07 -7.602179070445781e-07 6.6683362145317275" Properties=species:S:1:pos:R:3:forces:R:3 energy=-36.522701263427734 free_energy=-36.522701263427734 stress="-0.0003478330618236214 7.603662588451243e-09 1.8323969896982817e-08 7.603662588451243e-09 -0.00034789417986758053 4.132429154424244e-08 1.8323969896982817e-08 4.132429154424244e-08 -0.00034785483148880303" pbc="T T T"
Cs       1.92498265       1.36116833       3.33416904      -0.00000056       0.00000523      -0.00000292
Cs       5.77494749       4.08350353      10.00250365       0.00000726       0.00000083       0.00000630
Ru       0.00000925       0.00000978      -0.00000667       0.00011463       0.00013292      -0.00007917
S        1.91672512       1.35532908       6.66833758      -0.00204533      -0.00145230       0.00000448
S        5.78319559       4.08933641       6.66833666       0.00194025       0.00137138      -0.00000019
S        4.81658106       1.35533161       4.99410536       0.00098899      -0.00140953      -0.00171357
S        2.88334902       4.08934016       8.34256643      -0.00101265       0.00140473       0.00173807
S        2.88335016       4.08934004       4.99410703      -0.00099474       0.00138304      -0.00170249
S        4.81658353       1.35532971       8.34257022       0.00100210      -0.00143647       0.00174940
