9
Lattice="5.771952239645357 -2.7105760922497482e-08 3.3324381957224305 1.9239839803605479 5.441848582597281 3.3324383238347446 -1.1168477237225951e-07 7.793178817722867e-08 6.66487658488863" Properties=species:S:1:pos:R:3:forces:R:3 energy=-47.901763916015625 free_energy=-47.901763916015625 stress="-3.6915798773407005e-06 -1.970411167562247e-09 6.5321894560099736e-09 -1.970411167562247e-09 -3.6263788842916256e-06 -4.381616847126679e-08 6.5321894560099736e-09 -4.381616847126679e-08 -3.704392156578251e-06" pbc="T T T"
Cs       1.92398359       1.36046167       3.33243814       0.00000046       0.00000106       0.00000020
Cs       5.77195194       4.08138661       9.99731519       0.00000024      -0.00000000      -0.00000050
Ru       0.00000067       0.00000039       0.00000038      -0.00001333       0.00000255      -0.00000554
O        1.49895286       1.05991973       6.66487593      -0.00511551      -0.00361723       0.00000051
O        6.19698435       4.38192904       6.66487692       0.00511873       0.00362048      -0.00000179
O        5.02247538       1.05991964       4.63056897       0.00255933      -0.00361729      -0.00442922
O        2.67346059       4.38192912       8.69918408      -0.00255692       0.00361660       0.00442567
O        2.67346017       4.38192886       4.63056921      -0.00255585       0.00361758      -0.00442588
O        5.02247529       1.05991961       8.69918385       0.00256300      -0.00362384       0.00443673
