9
Lattice="5.967728746748062 2.3064950503796706e-06 3.445468281381675 1.9892440924735777 5.626427707693635 3.445470009437174 -8.09026627060052e-07 1.5443588903935232e-06 6.890937964038744" Properties=species:S:1:pos:R:3:forces:R:3 energy=-35.35285568237305 free_energy=-35.35285568237305 stress="2.969332626889809e-06 8.629188528175291e-07 -1.1640183572581009e-07 8.629188528175291e-07 2.4205642148444895e-06 1.911916740482411e-07 -1.1640183572581009e-07 1.911916740482411e-07 1.7875820503832074e-06" pbc="T T T"
Cs       1.98924335       1.40660612       3.44547336       0.00000098      -0.00000823      -0.00001653
Cs       5.96772802       4.21982526      10.33640085       0.00001005       0.00000619       0.00002004
Ru       0.00000208       0.00000208      -0.00000486      -0.00001696      -0.00000624       0.00003213
Se       2.03378476       1.43810717       6.89093846       0.00047827       0.00033993       0.00001120
Se       5.92318455       4.18832086       6.89093764      -0.00046130      -0.00031955      -0.00000538
Se       4.95084128       1.43810272       5.20677246      -0.00025767       0.00036563       0.00044780
Se       3.00612875       4.18833394       8.57511012       0.00027024      -0.00039551      -0.00047918
Se       3.00613243       4.18832878       5.20676566       0.00026831      -0.00037193       0.00047971
Se       4.95084311       1.43809969       8.57511131      -0.00029196       0.00038968      -0.00048975
