9
Lattice="5.9290956645646835 1.6216076101739422e-07 3.4231650017355686 1.9763653613770675 5.5900049259967055 3.423165024306175 6.317954956234574e-08 7.231794014599758e-08 6.846329894040889" Properties=species:S:1:pos:R:3:forces:R:3 energy=-42.127262115478516 free_energy=-42.127262115478516 stress="4.6738303353777155e-05 -8.74717720478202e-09 4.626664562579208e-08 -8.74717720478202e-09 4.6718538214918226e-05 -1.635780400022213e-08 4.626664562579208e-08 -1.635780400022213e-08 4.6655470214318484e-05" pbc="T T T"
Cs       1.97636520       1.39750202       3.42316534      -0.00000007      -0.00000020       0.00000098
Cs       5.92909635       4.19250286      10.26949428       0.00000043       0.00000031       0.00000067
S        0.00000088      -0.00000049       0.00000208       0.00000153       0.00000151       0.00000040
O        1.34090405       0.94816351       6.84632913      -0.00238514      -0.00168681      -0.00000360
O        6.56455695       4.64184235       6.84632965       0.00238347       0.00168848      -0.00000392
O        5.25864308       0.94816358       4.58442165       0.00118756      -0.00168419      -0.00206590
O        2.64681675       4.64184282       9.10823757      -0.00119245       0.00168884       0.00206518
O        2.64681733       4.64184192       4.58442279      -0.00118995       0.00168550      -0.00206542
O        5.25864406       0.94816228       9.10823760       0.00119495      -0.00169325       0.00207162
