9
Lattice="6.254440872776243 8.157173511075785e-07 3.61100329684602 2.0848145279304515 5.896743454488945 3.611003063701586 2.6715588054463446e-07 -9.663481234989442e-08 7.222006130964508" Properties=species:S:1:pos:R:3:forces:R:3 energy=-30.713592529296875 free_energy=-30.713592529296875 stress="-0.00010009857214754447 2.0222658747570676e-07 1.7725692913472813e-08 2.0222658747570676e-07 -0.00010022921196650714 -2.8834299392599405e-09 1.7725692913472813e-08 -2.8834299392599405e-09 -0.00010035703598987311" pbc="T T T"
Cs       2.08481399       1.47418569       3.61100318      -0.00000102       0.00000022       0.00000019
Cs       6.25444150       4.42255806      10.83300916       0.00000159       0.00000051       0.00000159
Se       0.00000018      -0.00000028      -0.00000105      -0.00001254       0.00002904       0.00001431
S        1.84525550       1.30479153       7.22200703       0.00548768       0.00388131       0.00000146
S        6.49400068       4.59195216       7.22200708      -0.00549555      -0.00388601       0.00000143
S        5.33181468       1.30479212       5.20903858      -0.00274807       0.00388810       0.00476110
S        3.00744096       4.59195309       9.23497518       0.00276452      -0.00390854      -0.00478888
S        3.00744110       4.59195228       5.20903746       0.00275612      -0.00389746       0.00477743
S        5.33181425       1.30479206       9.23497359      -0.00275284       0.00389248      -0.00476861
