9
Lattice="6.01079488145345 -5.0606281314274605e-08 3.4703338331491156 2.003597767999452 5.667031536040863 3.4703346612533386 -7.361432580058662e-07 4.936848222974195e-07 6.940668941335616" Properties=species:S:1:pos:R:3:forces:R:3 energy=-31.280941009521484 free_energy=-31.280941009521484 stress="-5.299373697198462e-06 -9.163569458792153e-09 -3.723432939750637e-08 -9.163569458792153e-09 -5.2424989007704426e-06 3.636509759985529e-08 -3.723432939750637e-08 3.636509759985529e-08 -5.298034466250101e-06" pbc="T T T"
Cs       2.00359787       1.41675841       3.47033659       0.00000218       0.00000384      -0.00000861
Cs       6.01079411       4.25027406      10.41100215      -0.00000060      -0.00000328       0.00000074
Si      -0.00000149      -0.00000075      -0.00000169       0.00000727      -0.00000375       0.00001548
Se       2.00600567       1.41846068       6.94066903       0.00142171       0.00100297       0.00000524
Se       6.00838549       4.24857129       6.94066766      -0.00142742      -0.00100769       0.00000145
Se       5.00779063       1.41846103       5.20758734      -0.00070485       0.00100261       0.00123164
Se       3.00660157       4.24857215       8.67374981       0.00071144      -0.00101075      -0.00123425
Se       3.00660198       4.24857243       5.20758851       0.00070887      -0.00099953       0.00122632
Se       5.00779185       1.41845827       8.67374983      -0.00071857       0.00101563      -0.00123791
