9
Lattice="6.248453289574976 -7.674910866530282e-07 3.6075437394153633 2.082817203504265 5.89109866500239 3.607543455514687 -1.4061541744411737e-06 -1.3420069845159275e-06 7.215089914361553" Properties=species:S:1:pos:R:3:forces:R:3 energy=-29.85132598876953 free_energy=-29.85132598876953 stress="-4.2272113205399364e-05 -7.070029450773063e-09 1.5060275870837359e-07 -7.070029450773063e-09 -4.227160388836637e-05 1.1462863369615661e-07 1.5060275870837359e-07 1.1462863369615661e-07 -4.1765648347791284e-05" pbc="T T T"
Cs       2.08281881       1.47277594       3.60755532       0.00000776       0.00000659       0.00005930
Cs       6.24845213       4.41832243      10.82264250       0.00000372       0.00000461       0.00005669
Sn       0.00000397       0.00000405       0.00004037       0.00001421       0.00001371       0.00013797
Se       2.49522006       1.76438736       7.21512430      -0.00303751      -0.00214414       0.00015316
Se       5.83602672       4.12669534       7.21511857       0.00294131       0.00208376       0.00013294
Se       5.00087877       1.76434726       5.76845102       0.00167853      -0.00233036      -0.00271550
Se       3.33047295       4.12664823       8.66166029      -0.00132246       0.00189415       0.00243434
Se       3.33040230       4.12675646       5.76845322      -0.00163329       0.00235596      -0.00270465
Se       5.00080037       1.76444911       8.66166273       0.00134765      -0.00188421       0.00244574
