9
Lattice="6.685654684935736 -2.3333652975302873e-06 3.859961684040695 2.22854957623959 6.303294437334401 3.8599613124937324 1.4554148205770496e-07 -3.5213631571308215e-07 7.71992311599538" Properties=species:S:1:pos:R:3:forces:R:3 energy=-28.210405349731445 free_energy=-28.210405349731445 stress="-2.0543036953313276e-05 1.1383030340539335e-07 9.935206435329746e-09 1.1383030340539335e-07 -2.0575907910824753e-05 -1.2908442315051616e-08 9.935206435329746e-09 -1.2908442315051616e-08 -2.0454217519727536e-05" pbc="T T T"
Cs       2.22855095       1.57582340       3.85996059      -0.00000101      -0.00000233      -0.00000903
Cs       6.68565177       4.72746778      11.57988292      -0.00000848      -0.00000455      -0.00000977
Sn      -0.00001695      -0.00000995      -0.00003216       0.00001352       0.00000690       0.00002457
Te       2.50663612       1.77245920       7.71991984      -0.00051838      -0.00036538      -0.00000315
Te       6.40759531       4.53085188       7.71991836       0.00051963       0.00036894      -0.00000206
Te       5.43233606       1.77245264       6.03076850       0.00025685      -0.00036532      -0.00044870
Te       3.48184599       4.53086043       9.40909780      -0.00026101       0.00036646       0.00044702
Te       3.48186389       4.53083393       6.03077037      -0.00025931       0.00036475      -0.00044824
Te       5.43235474       1.77242817       9.40909832       0.00025824      -0.00036937       0.00044931
