9
Lattice="5.691700863988017 -9.930086480664517e-08 3.2861048194902573 1.8972334893669562 5.3661868967405 3.2861048858980952 -1.975533457294778e-07 -5.8358573250936554e-08 6.572209981153004" Properties=species:S:1:pos:R:3:forces:R:3 energy=-38.17539978027344 free_energy=-38.17539978027344 stress="-2.933751147793373e-06 5.142452152995247e-08 -7.96601256070062e-08 5.142452152995247e-08 -2.884766217903234e-06 4.0066215234446645e-08 -7.96601256070062e-08 4.0066215234446645e-08 -2.9580116915894905e-06" pbc="T T T"
Cs       1.89723332       1.34154654       3.28610504       0.00000051      -0.00000056      -0.00000092
Cs       5.69170092       4.02464020       9.85831429      -0.00000112       0.00000074       0.00000167
Sn      -0.00000087       0.00000040      -0.00000073       0.00000268       0.00000005       0.00000252
O        1.68952677       1.19467575       6.57220967       0.00184274       0.00130397      -0.00000244
O        5.89940785       4.17151132       6.57220952      -0.00184500      -0.00130415      -0.00000207
O        4.84693703       1.19467561       4.74927812      -0.00092238       0.00130421       0.00159776
O        2.74199638       4.17151131       8.39514155       0.00092155      -0.00130427      -0.00159824
O        2.74199736       4.17151108       4.74927865       0.00092340      -0.00130481       0.00159955
O        4.84693762       1.19467458       8.39514231      -0.00092214       0.00130475      -0.00159764
