9
Lattice="5.752357784919004 5.288580121780292e-08 3.3211252912471037 1.9174526482453977 5.423374014640729 3.32112528533873 6.97870193878945e-08 4.2110637164138414e-08 6.6422504616195575" Properties=species:S:1:pos:R:3:forces:R:3 energy=-44.85009765625 free_energy=-44.85009765625 stress="0.00011033718328690156 -1.0851520571009132e-08 -2.297448098431687e-08 -1.0851520571009132e-08 0.00011045092833228409 -1.761492640639517e-08 -2.297448098431687e-08 -1.761492640639517e-08 0.00011040366371162236" pbc="T T T"
Cs       1.91745266       1.35584354       3.32112479       0.00000008      -0.00000070       0.00000028
Cs       5.75235734       4.06753125       9.96337539       0.00000082       0.00000030       0.00000026
Si      -0.00000001       0.00000024      -0.00000025      -0.00001407       0.00000261       0.00000306
O        1.41784249       1.00256377       6.64225061      -0.00564122      -0.00398767      -0.00000070
O        6.25196899       4.42080942       6.64225060       0.00564718       0.00399721      -0.00000133
O        5.04343707       1.00256465       4.54901253       0.00282395      -0.00399530      -0.00489545
O        2.62637411       4.42080910       8.73548957      -0.00281918       0.00398862       0.00488293
O        2.62637340       4.42080919       4.54901186      -0.00282168       0.00398993      -0.00488555
O        5.04343633       1.00256515       8.73548897       0.00282443      -0.00399458       0.00489557
