9
Lattice="5.864726615500426 -1.319394046770804e-09 3.386001227033886 1.9549089489637919 5.529316475137512 3.386001091285831 -1.56837615608531e-07 -2.7715762068999825e-07 6.772002725718626" Properties=species:S:1:pos:R:3:forces:R:3 energy=-38.34032440185547 free_energy=-38.34032440185547 stress="-4.2217598092975095e-05 -1.1835489743816652e-07 6.255304896285452e-08 -1.1835489743816652e-07 -4.211478153592907e-05 -7.840680638082631e-08 6.255304896285452e-08 -7.840680638082631e-08 -4.203581920592114e-05" pbc="T T T"
Cs       1.95490853       1.38233036       3.38599954       0.00000095       0.00002298      -0.00002632
Cs       5.86472596       4.14698853      10.15800105       0.00000103       0.00002303      -0.00002587
Se       0.00000723       0.00021006      -0.00024352       0.00017497       0.00517832      -0.00600430
O        1.50352036       1.06311174       6.77204717       0.00008869      -0.00088358       0.00112656
O        6.31612185       4.46613400       6.77204746       0.00014329      -0.00084853       0.00112685
O        5.11296866       1.06310600       4.68812673       0.00001574      -0.00104165       0.00104165
O        2.70666604       4.46613043       8.85596425      -0.00001729      -0.00099218       0.00110054
O        2.70665909       4.46614030       4.68811773      -0.00022542      -0.00070095       0.00079513
O        5.11296358       1.06311330       8.85595858      -0.00018227      -0.00075722       0.00086498
