9
Lattice="6.3046605476708635 1.106682840474362e-06 3.639997753131433 2.101553925614784 5.944096058737705 3.639998850672801 -1.0924165941648495e-06 5.717529082644768e-07 7.279997398382635" Properties=species:S:1:pos:R:3:forces:R:3 energy=-32.87407302856445 free_energy=-32.87407302856445 stress="0.00017170107457786798 1.481132017033815e-07 -1.1128181398589732e-07 1.481132017033815e-07 0.00017163738084491342 2.0310173454163305e-07 -1.1128181398589732e-07 2.0310173454163305e-07 0.00017149903578683734" pbc="T T T"
Cs       2.10155202       1.48602527       3.64000050       0.00000395      -0.00000198       0.00000145
Cs       6.30465998       4.45807006      10.91998900       0.00000479       0.00000149       0.00001701
Si      -0.00000938       0.00000909      -0.00001355       0.00003270      -0.00005182       0.00005349
S        1.88362944       1.33192689       7.28000148      -0.00645834      -0.00458968       0.00001456
S        6.52258501       4.61216534       7.28000110       0.00647783       0.00456214       0.00001128
S        5.36284608       1.33192525       5.27127009       0.00323975      -0.00457805      -0.00558513
S        3.04337045       4.61217231       9.28872445      -0.00322941       0.00455874       0.00561684
S        3.04336856       4.61217053       5.27126611      -0.00325903       0.00461125      -0.00564605
S        5.36285075       1.33192478       9.28873699       0.00318795      -0.00451231       0.00551677
