9
Lattice="5.888526923803564 -8.14912185528272e-09 3.3997424969423813 1.9628422590559762 5.551755924580011 3.399742568295254 -1.7512168471563126e-08 7.500589927448544e-08 6.799485024216831" Properties=species:S:1:pos:R:3:forces:R:3 energy=-48.28742218017578 free_energy=-48.28742218017578 stress="0.00010166583524551243 -4.614526982749112e-09 2.520945230344296e-08 -4.614526982749112e-09 0.00010173572081839666 -4.232938621839821e-08 2.520945230344296e-08 -4.232938621839821e-08 0.00010167629079660401" pbc="T T T"
Cs       1.96284231       1.38793858       3.39974256      -0.00000004      -0.00000035      -0.00000006
Cs       5.88852693       4.16381717      10.19922757      -0.00000002       0.00000015       0.00000073
Ti       0.00000012      -0.00000057       0.00000001      -0.00000159       0.00000089      -0.00000359
O        1.54098696       1.08964214       6.79948489      -0.00445098      -0.00314951      -0.00000174
O        6.31038154       4.46211394       6.79948504       0.00445265       0.00314948      -0.00000047
O        5.11803344       1.08964266       4.73427571       0.00222704      -0.00314930      -0.00385895
O        2.73333560       4.46211352       8.86469355      -0.00223070       0.00314727       0.00385958
O        2.73333611       4.46211431       4.73427703      -0.00222921       0.00315332      -0.00385949
O        5.11803377       1.08964281       8.86469410       0.00223270      -0.00315183       0.00386426
