9
Lattice="5.924811602371397 2.740075857217584e-07 3.420691446908318 1.9749373877304288 5.5859662756983575 3.42069157057124 -1.916868711501293e-09 1.5010010911502302e-07 6.841382897136699" Properties=species:S:1:pos:R:3:forces:R:3 energy=-54.018646240234375 free_energy=-54.018646240234375 stress="0.00013024607324041426 5.4778990232762226e-08 6.179385536597692e-08 5.4778990232762226e-08 0.00013022165512666106 -3.48961819440774e-08 6.179385536597692e-08 -3.48961819440774e-08 0.00013023345672991127" pbc="T T T"
Cs       1.97493712       1.39649155       3.42069204      -0.00000040       0.00000007      -0.00000035
Cs       5.92481177       4.18947519      10.26207262      -0.00000026      -0.00000034       0.00000181
Ta      -0.00000045      -0.00000016       0.00000035      -0.00000834      -0.00000040      -0.00000459
O        1.60258559       1.13319924       6.84138367      -0.00593436      -0.00419593      -0.00000101
O        6.29716316       4.45276656       6.84138408       0.00594151       0.00420237      -0.00000268
O        5.12351866       1.13320013       4.80857154       0.00296754      -0.00419790      -0.00514007
O        2.77623046       4.45276761       8.87419389      -0.00296724       0.00419515       0.00514042
O        2.77623042       4.45276701       4.80857200      -0.00296843       0.00419974      -0.00514239
O        5.12351937       1.13320007       8.87419348       0.00296992      -0.00420296       0.00514841
