9
Lattice="7.343752915788259 9.075328177632426e-07 4.239916215541159 2.447918162825452 6.923757629917295 4.239916789543635 -4.839330717354685e-07 3.608146916346304e-07 8.479833269278284" Properties=species:S:1:pos:R:3:forces:R:3 energy=-32.91939163208008 free_energy=-32.91939163208008 stress="-5.73773832002189e-05 8.72103882443298e-08 2.2583419578836583e-09 8.72103882443298e-08 -5.760639760410413e-05 6.829150578369081e-08 2.2583419578836583e-09 6.829150578369081e-08 -5.7340137573191896e-05" pbc="T T T"
Cs       2.44791731       1.73093897       4.23991594      -0.00000050      -0.00000176      -0.00000029
Cs       7.34375333       5.19281971      12.71974980       0.00000030       0.00000160       0.00000054
Ti       0.00000523      -0.00000043       0.00000064      -0.00004873       0.00001243       0.00000018
Te       2.14280850       1.51519788       8.47983411       0.00346684       0.00245813      -0.00000277
Te       7.64886089       5.40855971       8.47983325      -0.00343441      -0.00243423       0.00000310
Te       6.27234431       1.51520023       6.09564227      -0.00172693       0.00244220       0.00297512
Te       3.51932313       5.40856130      10.86402520       0.00173268      -0.00245703      -0.00299662
Te       3.51932098       5.40855720       6.09563878       0.00173729      -0.00246900       0.00300481
Te       6.27234869       1.51520098      10.86402515      -0.00172655       0.00244769      -0.00298406
