9
Lattice="6.082086059345636 -6.21700932687861e-08 3.5114951607378355 2.027360637519076 5.734248670800599 3.5114974533653998 -1.7525486969707861e-06 1.5686438958577367e-06 7.022993356980163" Properties=species:S:1:pos:R:3:forces:R:3 energy=-36.0489387512207 free_energy=-36.0489387512207 stress="-0.00014158959675114602 1.2466821885936952e-07 9.90030457614921e-08 1.2466821885936952e-07 -0.00014174859097693115 -1.2928558135172352e-07 9.90030457614921e-08 -1.2928558135172352e-07 -0.00014178163837641478" pbc="T T T"
Cs       2.02736745       1.43356793       3.51149822       0.00000596      -0.00002477      -0.00000695
Cs       6.08207929       4.30068150      10.53448874      -0.00001398       0.00002507      -0.00000224
Ti      -0.00000172      -0.00000860      -0.00000614       0.00000907       0.00005428       0.00004576
Se       2.03611673       1.43977459       7.02299245       0.00038465       0.00024008       0.00000430
Se       6.07333294       4.29447908       7.02299320      -0.00041408      -0.00026303      -0.00000125
Se       5.06402810       1.43975714       5.27483659      -0.00018876       0.00026600       0.00032980
Se       3.04541061       4.29450221       8.77115548       0.00021680      -0.00030436      -0.00036704
Se       3.04541931       4.29449235       5.27483649       0.00019279      -0.00026971       0.00033881
Se       5.06402607       1.43975503       8.77114944      -0.00019257       0.00027645      -0.00034133
