9
Lattice="6.366840247592106 2.9421927125485596e-07 3.67588931310061 2.1222798783813013 6.002714955163721 3.6758901471557803 -6.763222010213295e-07 5.432728298526996e-07 7.351779797625342" Properties=species:S:1:pos:R:3:forces:R:3 energy=-38.37557601928711 free_energy=-38.37557601928711 stress="0.0001698972482699901 -2.477977147918864e-07 -1.980953001634589e-08 -2.477977147918864e-07 0.00017018854850903153 1.0467280731063511e-07 -1.980953001634589e-08 1.0467280731063511e-07 0.00017017238133121282" pbc="T T T"
Cs       2.12228120       1.50067883       3.67589240       0.00000399       0.00000675      -0.00000366
Cs       6.36684011       4.50203501      11.02766793      -0.00000708      -0.00000075       0.00000221
Ti      -0.00000054      -0.00000849       0.00001003      -0.00000950       0.00001852      -0.00004424
S        1.90514622       1.34714242       7.35177918      -0.00684309      -0.00483054      -0.00000536
S        6.58396982       4.65557406       7.35178254       0.00682765       0.00482866      -0.00001045
S        5.41426711       1.34714366       5.32580107       0.00342262      -0.00483656      -0.00594211
S        3.07485256       4.65557339       9.37775142      -0.00343451       0.00485897       0.00594860
S        3.07485160       4.65557790       5.32580150      -0.00340334       0.00482032      -0.00591111
S        5.41426597       1.34714707       9.37775199       0.00344330      -0.00486571       0.00596613
