9
Lattice="6.541307189997761 -1.1301979626587255e-06 3.776623879851528 2.1804348826257782 6.167203795134531 3.776623501939946 -3.9061453114407925e-07 -7.39051998243033e-07 7.553248436266444" Properties=species:S:1:pos:R:3:forces:R:3 energy=-42.61371612548828 free_energy=-42.61371612548828 stress="1.4144313809083542e-07 3.2876411637516867e-07 -9.694975933172145e-10 3.2876411637516867e-07 -8.005144991329871e-08 -7.59532170491184e-09 -9.694975933172145e-10 -7.59532170491184e-09 -3.340113607919193e-07" pbc="T T T"
Cs       2.18043471       1.54180030       3.77662405      -0.00000008      -0.00000093       0.00000009
Cs       6.54130505       4.62539942      11.32987128      -0.00000115      -0.00000008      -0.00000010
Ta       0.00000439       0.00001012       0.00000054       0.00001833      -0.00001215      -0.00000006
S        1.95848635       1.38485870       7.55324923      -0.00004905      -0.00004083      -0.00000103
S        6.76326037       4.78234739       7.55324674       0.00007486       0.00004798       0.00000006
S        5.56206748       1.38485040       5.47271623       0.00000051      -0.00001663      -0.00001007
S        3.15967077       4.78234577       9.63377790      -0.00002286       0.00002158       0.00003546
S        3.15967137       4.78234420       5.47271642      -0.00002182       0.00001907      -0.00003409
S        5.56206725       1.38485023       9.63378078       0.00000131      -0.00001812       0.00000983
