9
Lattice="6.120217984911582 3.832422157813225e-05 3.5334619807709147 2.0401088003364944 5.770185376085402 3.5334619703869428 -5.6398564594985514e-06 -4.000772560471984e-06 7.066933730179614" Properties=species:S:1:pos:R:3:forces:R:3 energy=-39.754371643066406 free_energy=-39.754371643066406 stress="-1.3967281120130792e-05 1.9413698737480445e-06 -1.7253336181966006e-06 1.9413698737480445e-06 -1.585497557243798e-05 2.205215423600748e-06 -1.7253336181966006e-06 2.205215423600748e-06 -1.8152826669393107e-05" pbc="T T T"
Cs       2.04011414       1.44254344       3.53346577      -0.00018407      -0.00000609       0.00006529
Cs       6.12017329       4.32764200      10.60037612       0.00020070       0.00003102       0.00012249
Ta      -0.00025532      -0.00008562       0.00012848       0.00160886       0.00061564      -0.00090889
Se       2.09692074       1.48276268       7.06696504      -0.00123119      -0.00088898      -0.00007254
Se       6.06370317       4.28766545       7.06697874      -0.00022539      -0.00014729      -0.00012512
Se       5.07183356       1.48258083       5.34926175       0.00010294       0.00004635      -0.00004782
Se       3.08855550       4.28747606       8.78446774      -0.00051266       0.00062801       0.00072115
Se       3.08850032       4.28757806       5.34921033      -0.00013616       0.00008763       0.00001248
Se       5.07174148       1.48270753       8.78458035       0.00037688      -0.00036626       0.00023307
