9
Lattice="7.215291795076122 -2.072174677889337e-07 4.165750787747392 2.4050970808468404 6.802642437323468 4.165750768369256 1.3483254992088283e-08 -1.4199156651496138e-08 8.331501552141098" Properties=species:S:1:pos:R:3:forces:R:3 energy=-36.19151306152344 free_energy=-36.19151306152344 stress="8.965091546997428e-05 -2.6749194859121417e-08 -1.2417560035782316e-10 -2.6749194859121417e-08 8.967101894086227e-05 -2.1789257065307766e-09 -1.2417560035782316e-10 -2.1789257065307766e-09 8.968717156676576e-05" pbc="T T T"
Cs       2.40509715       1.70066055       4.16575078       0.00000016       0.00000005       0.00000000
Cs       7.21529171       5.10198165      12.49725226      -0.00000004       0.00000002       0.00000011
Ta      -0.00000008       0.00000002       0.00000002      -0.00000127       0.00000109      -0.00000418
Te       2.23955162       1.58360214       8.33150151      -0.00632755      -0.00447445       0.00000041
Te       7.38083734       5.21904015       8.33150161       0.00632814       0.00447492       0.00000020
Te       6.09551586       1.58360197       6.10525956       0.00316487      -0.00447688      -0.00548215
Te       3.52487301       5.21904020      10.55774353      -0.00316609       0.00447801       0.00548297
Te       3.52487299       5.21904016       6.10525962      -0.00316457       0.00447668      -0.00548138
Te       6.09551596       1.58360204      10.55774351       0.00316634      -0.00447946       0.00548397
