9
Lattice="5.8556318730404575 8.179925461788869e-09 3.380750696718038 1.951877383677908 5.5207422521162 3.3807505495762347 2.45429145397291e-07 -6.666513158848259e-09 6.761500968340312" Properties=species:S:1:pos:R:3:forces:R:3 energy=-40.60155487060547 free_energy=-40.60155487060547 stress="4.2728828702820465e-05 7.691006054244554e-09 -1.7284515152482527e-08 7.691006054244554e-09 4.269917917554267e-05 -1.7618406289443556e-08 -1.7284515152482527e-08 -1.7618406289443556e-08 4.275093670003116e-05" pbc="T T T"
Cs       1.95187716       1.38018538       3.38075037      -0.00000029      -0.00000003       0.00000012
Cs       5.85563240       4.14055702      10.14225224      -0.00000021      -0.00000025       0.00000032
Te       0.00000029      -0.00000010       0.00000028      -0.00000370      -0.00000454      -0.00001136
O        1.58233408       1.11887918       6.76150095      -0.00192857      -0.00136381      -0.00000097
O        6.22517556       4.40186316       6.76150094       0.00193548       0.00136775      -0.00000148
O        5.06446529       1.11887906       4.75109178       0.00096494      -0.00136226      -0.00166845
O        2.74304429       4.40186288       8.77191018      -0.00097001       0.00136799       0.00167572
O        2.74304432       4.40186337       4.75109209      -0.00096303       0.00136113      -0.00166762
O        5.06446514       1.11887895       8.77191031       0.00096542      -0.00136578       0.00167382
