9
Lattice="6.0673663008279455 2.448449774278844e-06 3.502995369386806 2.0224570809062055 5.720369223261492 3.502996514486474 -6.057832901179573e-07 9.7410147023998e-07 7.0059917880192115" Properties=species:S:1:pos:R:3:forces:R:3 energy=-35.6265869140625 free_energy=-35.6265869140625 stress="-8.105489541776478e-05 2.7671876523527317e-07 -4.393944763592117e-08 2.7671876523527317e-07 -8.126698958221823e-05 1.3694507572381553e-07 -4.393944763592117e-08 1.3694507572381553e-07 -8.158612035913393e-05" pbc="T T T"
Cs       2.02245406       1.43009344       3.50300337       0.00001961       0.00000766      -0.00003255
Cs       6.06736986       4.29027951      10.50898097      -0.00001671      -0.00000092       0.00001669
V       -0.00000492      -0.00000039      -0.00000305      -0.00000684      -0.00000660       0.00002325
Se       1.98129442       1.40098993       7.00598955       0.00199798       0.00140539       0.00001505
Se       6.10852611       4.31937990       7.00599275      -0.00199842      -0.00141047      -0.00000586
Se       5.07671939       1.40098990       5.21884779      -0.00099482       0.00142090       0.00174013
Se       3.01309813       4.31939540       8.79313683       0.00101164      -0.00143918      -0.00174093
Se       3.01310317       4.31938524       5.21884858       0.00101329      -0.00141780       0.00174004
Se       5.07672999       1.40097935       8.79313992      -0.00102602       0.00144102      -0.00175595
