9
Lattice="7.317638766326549 1.023976529700955e-06 4.224840501591232 2.4392135708953315 6.89913451573868 4.2248410500063365 -1.8526372696831485e-07 5.406677889468661e-07 8.449681324068527" Properties=species:S:1:pos:R:3:forces:R:3 energy=-32.75941467285156 free_energy=-32.75941467285156 stress="1.157769474957604e-05 4.284478194449548e-08 -4.4612388450104845e-08 4.284478194449548e-08 1.1684852324833628e-05 1.2286460737698235e-08 -4.4612388450104845e-08 1.2286460737698235e-08 1.140993663284462e-05" pbc="T T T"
Cs       2.43921334       1.72478443       4.22484050       0.00000026       0.00000118       0.00000036
Cs       7.31763928       5.17435167      12.67452237      -0.00000039      -0.00000112      -0.00000070
V       -0.00000095       0.00000187      -0.00000082      -0.00000100      -0.00002112       0.00001063
Te       2.08020884       1.47092768       8.44968240       0.00052473       0.00036259       0.00000310
Te       7.67664213       5.42820673       8.44968139      -0.00051355      -0.00035980      -0.00000102
Te       6.27753561       1.47092754       6.02635487      -0.00026214       0.00036769       0.00046292
Te       3.47931635       5.42820904      10.87300825       0.00025918      -0.00036274      -0.00045401
Te       3.47931787       5.42820947       6.02635462       0.00026213      -0.00036089       0.00045249
Te       6.27753605       1.47092571      10.87300777      -0.00026929       0.00037421      -0.00047374
