9
Lattice="6.159786306259736 7.081910046349258e-07 3.556352894738292 2.0532624913897806 5.807501194841381 3.556353376916512 -9.688407748955125e-07 -9.452861761932152e-08 7.112707467558543" Properties=species:S:1:pos:R:3:forces:R:3 energy=-38.77547836303711 free_energy=-38.77547836303711 stress="-3.277500582044013e-05 -1.2014454853215284e-07 4.074863113601168e-08 -1.2014454853215284e-07 -3.267245483584702e-05 -4.992063296072047e-08 4.074863113601168e-08 -4.992063296072047e-08 -3.2581781852059066e-05" pbc="T T T"
Cs       2.05326165       1.45187612       3.55635409       0.00000014       0.00000054       0.00000104
Cs       6.15978603       4.35562568      10.66905973      -0.00000061       0.00000354       0.00000141
V       -0.00000110      -0.00000419      -0.00000307       0.00001959      -0.00000357      -0.00000523
S        1.84006791       1.30112484       7.11270937       0.00083280       0.00059128       0.00000300
S        6.37298072       4.50637817       7.11270605      -0.00087011      -0.00061113       0.00000433
S        5.23975249       1.30112584       5.14989829      -0.00041336       0.00059575       0.00072479
S        2.97329683       4.50637571       9.07551201       0.00042766      -0.00059515      -0.00073212
S        2.97329749       4.50637614       5.14990230       0.00041914      -0.00057948       0.00072408
S        5.23975042       1.30112861       9.07551521      -0.00041562       0.00059837      -0.00072181
