9
Lattice="5.883034660955476 -6.094452667340294e-08 3.396571317639112 1.9610114576211237 5.546578170134289 3.39657138444705 -1.3319846568012213e-07 -1.23628563192518e-08 6.793142865984733" Properties=species:S:1:pos:R:3:forces:R:3 energy=-48.77781677246094 free_energy=-48.77781677246094 stress="2.8719166493829107e-06 -6.171759991957515e-08 -3.829857320170049e-08 -6.171759991957515e-08 2.902940423155087e-06 3.3880844796385645e-08 -3.829857320170049e-08 3.3880844796385645e-08 2.955173158625257e-06" pbc="T T T"
Cs       1.96101167       1.38664501       3.39657133      -0.00000005      -0.00000047       0.00000034
Cs       5.88303457       4.15993367      10.18971423      -0.00000030       0.00000002      -0.00000039
W       -0.00000046      -0.00000010      -0.00000033       0.00000955      -0.00000431      -0.00000169
O        1.55247635       1.09776663       6.79314299      -0.00585365      -0.00414038      -0.00000052
O        6.29156953       4.44881102       6.79314304       0.00584769       0.00413501      -0.00000188
O        5.10679627       1.09776643       4.74105548       0.00292736      -0.00413847      -0.00507009
O        2.73724975       4.44881108       8.84523013      -0.00293106       0.00414640       0.00507712
O        2.73724959       4.44881173       4.74105530      -0.00292593       0.00414133      -0.00507104
O        5.10679634       1.09776651       8.84522973       0.00292701      -0.00413942       0.00506783
