9
Lattice="6.362048920390195 4.350225376288126e-08 3.673130482126084 2.120682865423603 5.9981971872736635 3.6731307402956963 -2.201814180862396e-07 1.6049994451140368e-07 7.346261345617636" Properties=species:S:1:pos:R:3:forces:R:3 energy=-44.31570053100586 free_energy=-44.31570053100586 stress="-6.769484116375679e-06 1.7553308140350055e-08 -2.0018058322079924e-09 1.7553308140350055e-08 -6.7778260017803404e-06 3.8305763894186384e-08 -2.0018058322079924e-09 3.8305763894186384e-08 -6.770165327907307e-06" pbc="T T T"
Cs       2.12068288       1.49954943       3.67313056      -0.00000002      -0.00000035       0.00000014
Cs       6.36204868       4.49864782      11.01939221      -0.00000005       0.00000060      -0.00000043
W       -0.00000002       0.00000019      -0.00000017      -0.00000006       0.00000819      -0.00000487
S        1.84533950       1.30485263       7.34626174       0.00169006       0.00119428       0.00000067
S        6.63739238       4.69334461       7.34626125      -0.00169198      -0.00119630      -0.00000012
S        5.43937940       1.30485249       5.27124137      -0.00084644       0.00119685       0.00146605
S        3.04335237       4.69334505       9.42128105       0.00084637      -0.00119644      -0.00146685
S        3.04335276       4.69334502       5.27124118       0.00084510      -0.00119827       0.00146726
S        5.43937827       1.30485241       9.42128093      -0.00084295       0.00119127      -0.00146183
