9
Lattice="7.365742776019282 3.390546765983058e-07 4.2526136071859675 2.455247338350908 6.944489923421505 4.25261460020384 -5.6369663458291e-07 8.176000228427787e-07 8.505228190722912" Properties=species:S:1:pos:R:3:forces:R:3 energy=-36.16846466064453 free_energy=-36.16846466064453 stress="-8.290042387670837e-06 -1.0237245362532121e-07 -1.8556558245563792e-07 -1.0237245362532121e-07 -8.240436727646738e-06 2.565888621575141e-07 -1.8556558245563792e-07 2.565888621575141e-07 -8.163577149389312e-06" pbc="T T T"
Cs       2.45524748       1.73612285       4.25261425       0.00000015      -0.00000069      -0.00000016
Cs       7.36574221       5.20836833      12.75784242      -0.00000036       0.00000036      -0.00000031
W        0.00000087      -0.00000077      -0.00000075      -0.00001748       0.00002183       0.00004442
Te       2.08619091       1.47516133       8.50522759       0.00019116       0.00013589       0.00000002
Te       7.73479872       5.46932989       8.50522715      -0.00018891      -0.00013364      -0.00000003
Te       6.32264531       1.47516357       6.05931220      -0.00006592       0.00009269       0.00011423
Te       3.49834262       5.46932911      10.95114630       0.00008605      -0.00012325      -0.00015080
Te       3.49834225       5.46932954       6.05930952       0.00009663      -0.00013650       0.00016814
Te       6.32264783       1.47516049      10.95114692      -0.00010136       0.00014329      -0.00017550
