9
Lattice="6.7491624735943 1.6116382596075853e-07 3.896630641748022 2.2497208112321787 6.363171607592575 3.8966309279618496 -8.390220187389127e-08 2.912116394309415e-07 7.793261428818959" Properties=species:S:1:pos:R:3:forces:R:3 energy=-40.6036262512207 free_energy=-40.6036262512207 stress="-6.295400680755847e-07 4.2670816213785656e-08 -4.1250267202030955e-08 4.2670816213785656e-08 -6.625185733355465e-07 5.870781194516894e-08 -4.1250267202030955e-08 5.870781194516894e-08 -6.854218099761056e-07" pbc="T T T"
Cs       2.24972054       1.59079254       3.89663202      -0.00000002       0.00000020      -0.00000098
Cs       6.74916228       4.77237906      11.68989212       0.00000043       0.00000025       0.00000022
W       -0.00000010       0.00000006      -0.00000010       0.00000185      -0.00000737      -0.00000677
Se       1.92710502       1.36266910       7.79326080       0.00045587       0.00032194       0.00000073
Se       7.07177770       5.00050267       7.79326259      -0.00045276      -0.00032029      -0.00000067
Se       5.78561001       1.36266942       5.56555158      -0.00023001       0.00032480       0.00039841
Se       3.21327350       5.00050317      10.02097039       0.00022518      -0.00031920      -0.00039104
Se       3.21327307       5.00050320       5.56555211       0.00023197      -0.00032809       0.00040223
Se       5.78561087       1.36266908      10.02097027      -0.00023257       0.00032775      -0.00040223
