9
Lattice="6.092368491711159 9.907015486373108e-07 3.517430739601888 2.0307903501495024 5.743940085525471 3.5174308801227276 -2.1658992505483702e-07 1.8949791195818043e-08 7.0348618543491845" Properties=species:S:1:pos:R:3:forces:R:3 energy=-38.547977447509766 free_energy=-38.547977447509766 stress="1.1229767551412806e-05 3.38054860549164e-07 1.894920487188756e-08 3.38054860549164e-07 1.0952553566312417e-05 -1.5630863714477528e-08 1.894920487188756e-08 -1.5630863714477528e-08 1.0688379006751347e-05" pbc="T T T"
Cs       2.03078833       1.43598479       3.51743060       0.00000050       0.00000158       0.00000202
Cs       6.09236978       4.30795587      10.55229114       0.00000191      -0.00000257       0.00000585
Zr      -0.00000118       0.00000061      -0.00001044       0.00000464       0.00000127       0.00006639
S        2.06173256       1.45786445       7.03486311      -0.00103301      -0.00073051      -0.00000314
S        6.06142712       4.28607752       7.03486426       0.00102955       0.00072706      -0.00000828
S        5.06150499       1.45786321       5.30294215       0.00050706      -0.00071934      -0.00088802
S        3.06165473       4.28608181       8.76678742      -0.00049767       0.00069821       0.00085607
S        3.06165569       4.28607637       5.30293939      -0.00051159       0.00072366      -0.00088641
S        5.06150229       1.45785943       8.76678627       0.00049877      -0.00069943       0.00085557
