9
Lattice="5.790708560979435 -1.6867608855741445e-08 3.3432673451071016 1.9302361896368327 5.459532617466811 3.343267312983398 3.096230297423543e-08 -1.7449702612808454e-08 6.68653463658581" Properties=species:S:1:pos:R:3:forces:R:3 energy=-47.6736946105957 free_energy=-47.6736946105957 stress="-9.15156997507438e-05 5.229205513046509e-08 2.816923228010637e-08 5.229205513046509e-08 -9.15040509426035e-05 -1.077150599826382e-07 2.816923228010637e-08 -1.077150599826382e-07 -9.151159611064941e-05" pbc="T T T"
Cs       1.93023601       1.36488340       3.34326711      -0.00000000      -0.00000007      -0.00000004
Cs       5.79070790       4.09464834      10.02980298       0.00000048       0.00000171      -0.00000195
Zr       0.00000011       0.00000064       0.00000027      -0.00000110      -0.00000254      -0.00000828
O        1.69573062       1.19906264       6.68653513       0.00173831       0.00122923      -0.00000079
O        6.02521408       4.26046993       6.68653475      -0.00173324      -0.00122827      -0.00000002
O        4.94284407       1.19906241       4.81181244      -0.00087422       0.00123543       0.00151396
O        2.77810195       4.26046939       8.56125596       0.00086915      -0.00123024      -0.00150591
O        2.77810111       4.26047022       4.81181267       0.00086817      -0.00122988       0.00150472
O        4.94284287       1.19906332       8.56125614      -0.00086725       0.00122446      -0.00150138
