9
Lattice="6.1916325043704825 -1.5199164542587531e-06 3.574741922685285 2.063875920607732 5.837528452802036 3.574742178783238 -2.8833086677285246e-07 1.0977388118037239e-07 7.149484344774282" Properties=species:S:1:pos:R:3:forces:R:3 energy=-36.767669677734375 free_energy=-36.767669677734375 stress="0.00014632855891250074 -4.368783379504748e-07 -4.148668608650041e-08 -4.368783379504748e-07 0.00014668129733763635 3.856401775692575e-08 -4.148668608650041e-08 3.856401775692575e-08 0.00014698144514113665" pbc="T T T"
Cs       2.06387689       1.45938047       3.57474174       0.00000151       0.00000029      -0.00000004
Cs       6.19163114       4.37814639      10.72422637      -0.00000227      -0.00000168       0.00000096
Zr      -0.00000141      -0.00000257       0.00000259       0.00000849       0.00001493      -0.00001404
Se       2.20771912       1.56109710       7.14948336      -0.00328543      -0.00232966       0.00000338
Se       6.04779247       4.27643176       7.14948472       0.00327836       0.00232350       0.00000028
Se       5.08776827       1.56109694       5.48669012       0.00165689      -0.00234303      -0.00286917
Se       3.16773941       4.27642948       8.81227887      -0.00165837       0.00234103       0.00287151
Se       3.16773854       4.27643121       5.48668815      -0.00165543       0.00233706      -0.00286473
Se       5.08776822       1.56109740       8.81227799       0.00165635      -0.00234232       0.00287205
