9
Lattice="5.6037209107020605 -1.2730377053225123e-07 3.235309936763692 1.867906949763681 5.283238543728746 3.235309764333165 1.9647055392888794e-07 -7.225776796638082e-08 6.470619533230446" Properties=species:S:1:pos:R:3:forces:R:3 energy=-27.48519515991211 free_energy=-27.48519515991211 stress="-0.00016042933566495776 2.4975621570888507e-08 -1.355923195944797e-08 2.4975621570888507e-08 -0.0001604302815394476 -2.468416226975023e-08 -1.355923195944797e-08 -2.468416226975023e-08 -0.00016044052608776838" pbc="T T T"
Cu       1.86790595       1.32080842       3.23531017      -0.00000272      -0.00000264       0.00000152
Cu       5.60372043       3.96242854       9.70592953      -0.00000125       0.00000005      -0.00000003
Ag      -0.00000019       0.00000087       0.00000078       0.00000119      -0.00000494      -0.00000753
Se       2.15258832       1.52210962       6.47061982       0.00464521       0.00328549       0.00000059
Se       5.31903974       3.76112910       6.47062010      -0.00464345      -0.00328285       0.00000087
Se       4.52742751       1.52210883       5.09950528      -0.00232337       0.00328758       0.00402539
Se       2.94420169       3.76112952       7.84173274       0.00232137      -0.00328012      -0.00402074
Se       2.94420101       3.76112896       5.09950559       0.00232286      -0.00328501       0.00402173
Se       4.52742779       1.52210952       7.84173298      -0.00231982       0.00328255      -0.00402185
