9
Lattice="4.722773968628005 -1.372058358008019e-07 2.726694728979419 1.5742578913400505 4.452673562368321 2.7266946750150862 1.4480812899690686e-08 -5.585305475601165e-08 5.453389432877359" Properties=species:S:1:pos:R:3:forces:R:3 energy=-33.22306823730469 free_energy=-33.22306823730469 stress="0.00047945749247446656 -3.020264571773623e-08 -3.4995974118601225e-08 -3.020264571773623e-08 0.00047948426799848676 6.096847027237118e-09 -3.4995974118601225e-08 6.096847027237118e-09 0.0004796053108293563" pbc="T T T"
Cu       1.57426000       1.11316800       2.72669408       0.00001502      -0.00000334      -0.00000500
Cu       4.72277231       3.33950548       8.18008552      -0.00001357       0.00000505       0.00000742
Au      -0.00000035       0.00000019       0.00000031       0.00001021      -0.00000633      -0.00002537
O        1.59849602       1.13030623       5.45339000      -0.00530615      -0.00375760       0.00000323
O        4.69853578       3.32236722       5.45338863       0.00530106       0.00375637      -0.00000383
O        3.92352585       1.13030688       4.11103181       0.00264607      -0.00374588      -0.00459328
O        2.37350639       3.32236632       6.79574680      -0.00265582       0.00375915       0.00460911
O        2.37350634       3.32236650       4.11103155      -0.00264622       0.00375000      -0.00459608
O        3.92352512       1.13030658       6.79574663       0.00264955      -0.00375736       0.00460374
