9
Lattice="5.686799161024561 4.144848545781549e-08 3.2832748739041846 1.8955997504975604 5.361565227236212 3.2832748893575325 6.056977195376481e-08 6.175565250298366e-08 6.566549642898439" Properties=species:S:1:pos:R:3:forces:R:3 energy=-27.983861923217773 free_energy=-27.983861923217773 stress="-1.92416446225252e-05 5.290190507878378e-09 -3.827108852050287e-09 5.290190507878378e-09 -1.92264596989844e-05 -1.768339141783315e-09 -3.827108852050287e-09 -1.768339141783315e-09 -1.9244833310949616e-05" pbc="T T T"
Cu       1.89559979       1.34039049       3.28327438      -0.00000019      -0.00000256      -0.00000090
Cu       5.68680005       4.02117543       9.84982452       0.00000299       0.00000346       0.00000103
Au       0.00000046      -0.00000110       0.00000100      -0.00000217       0.00000593      -0.00000506
Se       2.21922837       1.56923116       6.56654977      -0.00062840      -0.00044527       0.00000047
Se       5.36317029       3.79233461       6.56654996       0.00062743       0.00044430       0.00000004
Se       4.57718504       1.56923111       5.20518350       0.00031443      -0.00044518      -0.00054295
Se       3.00521365       3.79233416       7.92791607      -0.00031496       0.00044376       0.00054387
Se       3.00521333       3.79233470       5.20518244      -0.00031395       0.00044259      -0.00054168
Se       4.57718495       1.56923072       7.92791600       0.00031490      -0.00044698       0.00054516
