9
Lattice="5.471443100239059 -1.2072182489509036e-08 3.1589390574298593 1.8238143535047007 5.158526105454849 3.15893906065126 -2.331770788475183e-08 -1.2542640947410044e-08 6.317878155247163" Properties=species:S:1:pos:R:3:forces:R:3 energy=-27.845603942871094 free_energy=-27.845603942871094 stress="2.881976070057135e-05 -7.985055283654674e-09 -3.627343092560409e-09 -7.985055283654674e-09 2.8846945497207344e-05 -4.782749751797155e-09 -3.627343092560409e-09 -4.782749751797155e-09 2.8844397093052976e-05" pbc="T T T"
Cu       1.82381450       1.28963205       3.15893888       0.00000021       0.00000232       0.00000007
Cu       5.47144263       3.86889392       9.47681720      -0.00000038      -0.00000253      -0.00000017
Au       0.00000008      -0.00000007       0.00000002      -0.00000260       0.00000062      -0.00000109
S        1.95790722       1.38445006       6.31787838      -0.00205946      -0.00145388       0.00000053
S        5.33735042       3.77407638       6.31787814       0.00205958       0.00145516       0.00000081
S        4.49248957       1.38444975       4.85453625       0.00102924      -0.00145403      -0.00178361
S        2.80276802       3.77407614       7.78121999      -0.00102845       0.00145355       0.00178406
S        2.80276784       3.77407632       4.85453621      -0.00102817       0.00145325      -0.00178409
S        4.49248943       1.38444976       7.78122005       0.00102995      -0.00145429       0.00178367
