9
Lattice="6.112772634963922 4.477087503271585e-08 3.5292104931468056 2.037590889902491 5.763177227669792 3.529210546198206 -9.57626462419456e-09 5.8202994917820086e-08 7.058421002880172" Properties=species:S:1:pos:R:3:forces:R:3 energy=-24.51966667175293 free_energy=-24.51966667175293 stress="-0.00018984373309649527 8.766306791585521e-09 3.556692163009245e-10 8.766306791585521e-09 -0.00018984347116202116 1.0779706904884279e-08 3.556692163009245e-10 1.0779706904884279e-08 -0.00018991822435054928" pbc="T T T"
Cu       2.03759278       1.44079688       3.52921014       0.00000772       0.00001139      -0.00000218
Cu       6.11277217       4.32238256      10.58763311      -0.00000313      -0.00000353       0.00000663
Ag       0.00000013       0.00000038       0.00000042      -0.00000288      -0.00000490      -0.00000123
Te       2.24918353       1.59041264       7.05842084      -0.00336874      -0.00238295       0.00000004
Te       5.90118047       4.17276356       7.05841941       0.00337169       0.00238210      -0.00000508
Te       4.98818045       1.59041406       5.47705913       0.00168342      -0.00237725      -0.00291990
Te       3.16218217       4.17276250       8.63978271      -0.00168491       0.00237522       0.00292055
Te       3.16218262       4.17276318       5.47705937      -0.00168337       0.00237901      -0.00292025
Te       4.98817977       1.59041351       8.63978308       0.00168020      -0.00237912       0.00292148
