9
Lattice="4.683470173625688 4.927907083069352e-08 2.7040027617258775 1.5611567583957315 4.415618199249829 2.7040027835616547 -1.6908911530808047e-08 1.4786873589602667e-08 5.408005552738909" Properties=species:S:1:pos:R:3:forces:R:3 energy=-31.602787017822266 free_energy=-31.602787017822266 stress="1.0006820957642049e-05 -2.1433107733059842e-08 4.937201580901274e-08 -2.1433107733059842e-08 9.89098862191895e-06 -2.4719300384390408e-08 4.937201580901274e-08 -2.4719300384390408e-08 9.923332072503399e-06" pbc="T T T"
Cu       1.56115527       1.10390451       2.70400324      -0.00001123       0.00000042       0.00000342
Cu       4.68347024       3.31171453       8.11200842       0.00000087       0.00000498      -0.00000001
Ag       0.00000006       0.00000017       0.00000044      -0.00000354      -0.00001091      -0.00003501
O        1.59839772       1.13023741       5.40800553      -0.00205874      -0.00145864      -0.00000036
O        4.64622992       3.28537944       5.40800539       0.00207096       0.00145957       0.00000069
O        3.88427167       1.13023749       4.08825550       0.00102702      -0.00145411      -0.00177598
O        2.36035571       3.28538081       6.72775494      -0.00103530       0.00146955       0.00179470
O        2.36035542       3.28538088       4.08825607      -0.00103056       0.00145710      -0.00178009
O        3.88427176       1.13023780       6.72775480       0.00104088      -0.00146782       0.00179261
