9
Lattice="5.500534048959426 3.0939526652001995e-08 3.175734984755641 1.833511392301418 5.185953319284726 3.1757349614107944 1.475375852183992e-07 7.573328814474568e-08 6.351469713968716" Properties=species:S:1:pos:R:3:forces:R:3 energy=-27.17213249206543 free_energy=-27.17213249206543 stress="0.00016880834300536662 -2.317135106011392e-08 -1.2090779932805162e-08 -2.317135106011392e-08 0.00016880033945199102 -2.720320146920585e-08 -1.2090779932805162e-08 -2.720320146920585e-08 0.00016882260388229042" pbc="T T T"
Cu       1.83351154       1.29648838       3.17573533       0.00000045       0.00000015       0.00000202
Cu       5.50053434       3.88946529       9.52720455       0.00000180      -0.00000016      -0.00000010
Ag       0.00000104      -0.00000140       0.00000202      -0.00001625       0.00002474      -0.00002954
S        1.96999740       1.39299876       6.35146906       0.00790700       0.00558966      -0.00000042
S        5.36404805       3.79295521       6.35146995      -0.00790593      -0.00559202       0.00000295
S        4.51553503       1.39299862       4.88180245      -0.00395343       0.00558883       0.00684819
S        2.81851013       3.79295524       7.82113668       0.00395389      -0.00559071      -0.00684568
S        2.81850957       3.79295478       4.88180246       0.00395790      -0.00560164       0.00685793
S        4.51553530       1.39299888       7.82113628      -0.00394545       0.00558114      -0.00683522
