9
Lattice="5.37897047642224 6.205417948828928e-09 3.1055498915200648 1.7929902495225785 5.0713419826035935 3.105549744530219 5.974127357395263e-08 -1.37781548182814e-07 6.211099679565125" Properties=species:S:1:pos:R:3:forces:R:3 energy=-28.656497955322266 free_energy=-28.656497955322266 stress="3.084900163230486e-05 2.178337688008014e-08 -2.0499062447498773e-09 2.178337688008014e-08 3.084804120589979e-05 6.958190690298238e-10 -2.0499062447498773e-09 6.958190690298238e-10 3.0900722777005285e-05" pbc="T T T"
Cu       1.79299044       1.26783580       3.10554998       0.00000044       0.00000123       0.00000064
Cu       5.37897097       3.80350654       9.31664952       0.00000138       0.00000060       0.00000016
Be      -0.00000006       0.00000043       0.00000033      -0.00000099       0.00000058       0.00000055
Se       1.99167116       1.40832398       6.21109992       0.00121022       0.00085504       0.00000059
Se       5.18028896       3.66301769       6.21109977      -0.00121096      -0.00085617      -0.00000013
Se       4.38313521       1.40832434       4.83038753      -0.00060493       0.00085676       0.00104933
Se       2.78882600       3.66301754       7.59181097       0.00060577      -0.00085593      -0.00104819
Se       2.78882560       3.66301721       4.83038772       0.00060425      -0.00085742       0.00104696
Se       4.38313490       1.40832383       7.59181160      -0.00060514       0.00085536      -0.00104998
