9
Lattice="5.294925000107357 -8.678778754574679e-08 3.057025991401693 1.7649749662160255 4.992102761678354 3.0570259082553304 5.405266683834858e-08 -6.361204516870628e-08 6.114051889181395" Properties=species:S:1:pos:R:3:forces:R:3 energy=-28.644817352294922 free_energy=-28.644817352294922 stress="-0.00028470056713558733 9.18224163370951e-09 -1.789257453310711e-08 9.18224163370951e-09 -0.00028459689929150045 9.682040946756842e-09 -1.789257453310711e-08 9.682040946756842e-09 -0.0002845772251021117" pbc="T T T"
Cu       1.76497506       1.24802587       3.05702607       0.00000058       0.00000000       0.00000034
Cu       5.29492548       3.74407683       9.17107740       0.00000071      -0.00000040      -0.00000038
Be       0.00000042       0.00000002      -0.00000011       0.00000240      -0.00000101      -0.00000108
S        1.84566897       1.30508514       6.11405215      -0.00203319      -0.00143846       0.00000043
S        5.21423132       3.68701719       6.11405246       0.00203328       0.00143536       0.00000095
S        4.37209006       1.30508491       4.65542205       0.00101370      -0.00143559      -0.00175925
S        2.68780927       3.68701790       7.57268098      -0.00101661       0.00143932       0.00175921
S        2.68780904       3.68701753       4.65542260      -0.00101700       0.00143775      -0.00175998
S        4.37209047       1.30508512       7.57268158       0.00101609      -0.00143709       0.00175970
