9
Lattice="5.933057292213329 2.428930890704005e-07 3.4254523161080592 1.9776858523383092 5.59374085843217 3.42545255986773 1.6049033325506713e-07 4.120271452693198e-07 6.850904354238713" Properties=species:S:1:pos:R:3:forces:R:3 energy=-25.98020362854004 free_energy=-25.98020362854004 stress="-0.0001797255245037377 1.0891507429278136e-07 -1.2688062156485103e-07 1.0891507429278136e-07 -0.00017988400941248983 -6.122539986108677e-08 -1.2688062156485103e-07 -6.122539986108677e-08 -0.0001795111020328477" pbc="T T T"
Cu       1.97769191       1.39843633       3.42545102       0.00002823       0.00000505      -0.00000815
Cu       5.93305458       4.19530060      10.27635925      -0.00001627      -0.00002816       0.00001510
Be       0.00000008      -0.00000062       0.00000038      -0.00001008      -0.00000138       0.00000018
Te       1.86594101       1.31942189       6.85090481       0.00774997       0.00548932       0.00000516
Te       6.04479951       4.27432116       6.85090171      -0.00775167      -0.00547305      -0.00001192
Te       5.00008617       1.31942478       5.04140342      -0.00387688       0.00549778       0.00669396
Te       2.91065697       4.27431862       8.66040561       0.00387742      -0.00549427      -0.00670627
Te       2.91065886       4.27431954       5.04140391       0.00388925      -0.00548908       0.00670570
Te       5.00008410       1.31942372       8.66040694      -0.00388987       0.00549367      -0.00669375
