9
Lattice="5.735304438550066 2.280106593817119e-07 3.3112795933437096 1.91176839910365 5.407296806192285 3.3112795276127263 1.359777481700971e-07 1.5647101398764983e-08 6.6225589511670355" Properties=species:S:1:pos:R:3:forces:R:3 energy=-27.555667877197266 free_energy=-27.555667877197266 stress="-5.215373312239535e-05 -6.122826334831188e-08 -1.5670568842551802e-08 -6.122826334831188e-08 -5.211625466472469e-05 -1.577294028720644e-08 -1.5670568842551802e-08 -1.577294028720644e-08 -5.223026164458133e-05" pbc="T T T"
Cu       1.91176856       1.35182447       3.31127979       0.00000251       0.00000147       0.00000109
Cu       5.73530492       4.05547253       9.93383820      -0.00000150      -0.00000217      -0.00000383
Ca       0.00000066      -0.00000056       0.00000048      -0.00000616       0.00000439      -0.00000621
S        2.13932500       1.51273170       6.62255895      -0.00006357      -0.00004368       0.00000093
S        5.50774742       3.89456577       6.62255933       0.00006466       0.00004505       0.00000297
S        4.66564150       1.51273169       5.16398923       0.00003054      -0.00004512      -0.00005750
S        2.98143107       3.89456547       8.08112862      -0.00003055       0.00004476       0.00005616
S        2.98143089       3.89456544       5.16398910      -0.00002997       0.00004144      -0.00005387
S        4.66564187       1.51273174       8.08112861       0.00003388      -0.00004598       0.00006022
