9
Lattice="5.4162181691926765 3.708253891623543e-08 3.12705491960748 1.805406051606658 5.106460286571983 3.127054988461156 -1.196349292715028e-07 -2.6651974581653384e-10 6.2541100464287505" Properties=species:S:1:pos:R:3:forces:R:3 energy=-35.20268249511719 free_energy=-35.20268249511719 stress="0.00027062909794040024 3.196971221086642e-08 8.510965265884352e-09 3.196971221086642e-08 0.00027052851510234177 -7.309317151538153e-09 8.510965265884352e-09 -7.309317151538153e-09 0.0002706647210288793" pbc="T T T"
Cu       1.80540451       1.27661328       3.12705527      -0.00000372      -0.00000539       0.00000021
Cu       5.41621784       3.82984554       9.38116536      -0.00000145       0.00000009       0.00000128
Cr      -0.00000021      -0.00000015      -0.00000029       0.00000241       0.00000297       0.00000207
Se       1.97430071       1.39604123       6.25411025       0.00459111       0.00324643      -0.00000121
Se       5.24732433       3.71042011       6.25411013      -0.00459323      -0.00324572      -0.00000073
Se       4.42906857       1.39604066       4.83684906      -0.00229634       0.00324884       0.00397768
Se       2.79255609       3.71041949       7.67137071       0.00229624      -0.00324611      -0.00397908
Se       2.79255622       3.71041984       4.83684894       0.00229901      -0.00324840       0.00397779
Se       4.42906833       1.39604129       7.67137033      -0.00229401       0.00324734      -0.00397803
