9
Lattice="4.211474304141814 -1.299024732508066e-07 2.4314958142753436 1.403824706077 3.970615633289608 2.4314957094811662 -1.3133597390452852e-07 -2.2121470873625974e-07 4.862991856031263" Properties=species:S:1:pos:R:3:forces:R:3 energy=-42.11045837402344 free_energy=-42.11045837402344 stress="-0.0005890721804462373 -8.16415806070836e-08 1.4341478049573197e-07 -8.16415806070836e-08 -0.000589215662330389 -1.17103930108442e-07 1.4341478049573197e-07 -1.17103930108442e-07 -0.000589241273701191" pbc="T T T"
Cu       1.40382440       0.99265327       2.43149592      -0.00000078      -0.00000930       0.00000534
Cu       4.21147400       2.97796179       7.29448882      -0.00000306       0.00000105       0.00001118
C        0.00000023      -0.00000088      -0.00000121       0.00000008      -0.00000602       0.00000738
O        1.22526551       0.86639289       4.86299197       0.00535345       0.00379062      -0.00000013
O        4.39003359       3.10422246       4.86299153      -0.00535858      -0.00378811      -0.00000917
O        3.59884147       0.86639335       3.49260638      -0.00267375       0.00379539       0.00464004
O        2.01645715       3.10422245       6.23337646       0.00267828      -0.00379080      -0.00464928
O        2.01645742       3.10422235       3.49260657       0.00267416      -0.00377923       0.00463122
O        3.59884171       0.86639340       6.23337646      -0.00267053       0.00378555      -0.00463665
