9
Lattice="4.466726484897164 -4.9231845931794966e-08 2.5788656830455845 1.4889088301078728 4.211269840468339 2.5788655995174294 3.985511613865971e-08 -7.41189512020791e-08 5.157731297060185" Properties=species:S:1:pos:R:3:forces:R:3 energy=-39.63530731201172 free_energy=-39.63530731201172 stress="-0.0002344142267247662 1.1088145868143329e-07 3.661154934775368e-08 1.1088145868143329e-07 -0.0002343013766221702 -3.5209193782748116e-08 3.661154934775368e-08 -3.5209193782748116e-08 -0.0002341942017665133" pbc="T T T"
Cu       1.48890746       1.05281778       2.57886559      -0.00001191       0.00000438      -0.00000193
Cu       4.46672730       3.15845084       7.73659867       0.00000796      -0.00001352       0.00001304
Co       0.00000013       0.00000011      -0.00000008      -0.00000162      -0.00000446      -0.00000129
O        1.45704912       1.03029023       5.15773149       0.00145924       0.00103790       0.00000050
O        4.49858592       3.18097982       5.15773049      -0.00145590      -0.00103343      -0.00000422
O        3.73820273       1.03029022       3.84070710      -0.00072646       0.00104082       0.00126767
O        2.21743275       3.18098022       6.47475472       0.00072679      -0.00103551      -0.00126898
O        2.21743379       3.18098012       3.84070754       0.00072926      -0.00103188       0.00126344
O        3.73820241       1.03028961       6.47475489      -0.00072664       0.00103498      -0.00126868
