9
Lattice="6.573187262884839 -1.6202299355484664e-09 3.795031607731899 2.191062454920084 6.1972603214904876 3.7950315462682944 6.482180362114004e-08 -2.9441301059093702e-08 7.590063103188976" Properties=species:S:1:pos:R:3:forces:R:3 energy=-24.70870590209961 free_energy=-24.70870590209961 stress="-2.08141136681661e-05 -1.2334378851619476e-08 -8.435375176141235e-10 -1.2334378851619476e-08 -2.081875027215574e-05 -5.4554543105211906e-09 -8.435375176141235e-10 -5.4554543105211906e-09 -2.0800953279831447e-05" pbc="T T T"
Cu       2.19106224       1.54931507       3.79503138      -0.00000018      -0.00000095      -0.00000060
Cu       6.57318727       4.64794606      11.38509412      -0.00000052       0.00000215      -0.00000220
Ca       0.00000024       0.00000018      -0.00000128      -0.00000016      -0.00000080       0.00000639
Te       2.51669620       1.77957204       7.59006330       0.00126950       0.00089586      -0.00000018
Te       6.24755410       4.41768769       7.59006382      -0.00126918      -0.00089709       0.00000215
Te       5.31483895       1.77957231       5.97455462      -0.00063415       0.00089508       0.00109743
Te       3.44941025       4.41768816       9.20557237       0.00063542      -0.00089617      -0.00110076
Te       3.44941058       4.41768774       5.97455437       0.00063366      -0.00089537       0.00109818
Te       5.31483929       1.77957193       9.20557235      -0.00063438       0.00089726      -0.00110037
