9
Lattice="5.206174705855629 -3.328258547344422e-08 3.005786186215216 1.7353915193082317 4.9084284805718195 3.005786217272877 -4.568946997029894e-08 5.7303932662671944e-09 6.011572451566979" Properties=species:S:1:pos:R:3:forces:R:3 energy=-35.267662048339844 free_energy=-35.267662048339844 stress="0.00012091978715034202 1.8159603598633112e-08 4.812195530945473e-09 1.8159603598633112e-08 0.00012091590906493366 7.453135886237305e-09 4.812195530945473e-09 7.453135886237305e-09 0.00012092222459614277" pbc="T T T"
Cu       1.73539139       1.22710689       3.00578719       0.00000019      -0.00000025       0.00000329
Cu       5.20617521       3.68132130       9.01735939       0.00000191      -0.00000008       0.00000358
Co      -0.00000001       0.00000005       0.00000020      -0.00000169      -0.00000194      -0.00000137
S        1.76311031       1.24670761       6.01157202      -0.00231338      -0.00163470      -0.00000105
S        5.17845556       3.66172090       6.01157202       0.00231573       0.00163722      -0.00000145
S        4.32461919       1.24670730       4.53268448       0.00115563      -0.00163622      -0.00200450
S        2.61694661       3.66172129       7.49045984      -0.00115745       0.00163633       0.00200337
S        2.61694669       3.66172120       4.53268467      -0.00115779       0.00163612      -0.00200507
S        4.32461970       1.24670723       7.49045961       0.00115670      -0.00163656       0.00200316
