9
Lattice="5.380967514930091 -4.115676980968982e-08 3.106703121182383 1.7936558284637012 5.0732242801988265 3.1067030710279946 1.553441682706504e-08 -5.044184967938137e-08 6.213406215458396" Properties=species:S:1:pos:R:3:forces:R:3 energy=-32.794315338134766 free_energy=-32.794315338134766 stress="-5.517778845387511e-05 1.6323445706234452e-08 -3.6433167593941107e-09 1.6323445706234452e-08 -5.509613038157113e-05 -2.8988731415324764e-09 -3.6433167593941107e-09 -2.8988731415324764e-09 -5.520927152247168e-05" pbc="T T T"
Cu       1.79365630       1.26830590       3.10670293       0.00000172      -0.00000098      -0.00000050
Cu       5.38096753       3.80491665       9.32010896      -0.00000052      -0.00000348      -0.00000001
Co      -0.00000012      -0.00000016       0.00000003      -0.00000031       0.00000302       0.00000081
Se       1.91112528       1.35137066       6.21340621      -0.00772836      -0.00546329      -0.00000080
Se       5.26349759       3.72185425       6.21340633       0.00772642       0.00546382       0.00000056
Se       4.42540460       1.35137030       4.76178632       0.00386319      -0.00546342      -0.00669141
Se       2.74921837       3.72185414       7.66502611      -0.00386376       0.00546341       0.00669235
Se       2.74921926       3.72185461       4.76178638      -0.00386205       0.00546438      -0.00669237
Se       4.42540454       1.35137041       7.66502643       0.00386361      -0.00546343       0.00669141
