9
Lattice="6.017468841795042 2.574463017497715e-07 3.474187433216964 2.0058231916210714 5.6733242894585985 3.474187430387854 -4.262010027843217e-08 -3.360190752495927e-08 6.9483749402540695" Properties=species:S:1:pos:R:3:forces:R:3 energy=-31.751798629760742 free_energy=-31.751798629760742 stress="-5.5580503612873144e-06 2.5442849604928597e-08 -4.820579047049023e-09 2.5442849604928597e-08 -5.615529971692013e-06 -1.3465160542125432e-08 -4.820579047049023e-09 -1.3465160542125432e-08 -5.635916750179604e-06" pbc="T T T"
Cu       2.00582196       1.41833110       3.47418821      -0.00000519       0.00000033       0.00000235
Cu       6.01746945       4.25499355      10.42256203       0.00000155       0.00000002      -0.00000133
Cr      -0.00000020      -0.00000004      -0.00000008      -0.00000115      -0.00000123       0.00000364
Te       2.14149152       1.51426329       6.94837462       0.00027309       0.00019230      -0.00000077
Te       5.88180074       4.15906114       6.94837547      -0.00027034      -0.00019178       0.00000231
Te       4.94672338       1.51426339       5.32877396      -0.00013586       0.00019298       0.00023691
Te       3.07656868       4.15906143       8.56797556       0.00013824      -0.00019468      -0.00023970
Te       3.07656872       4.15906118       5.32877374       0.00013592      -0.00019266       0.00023609
Te       4.94672372       1.51426303       8.56797572      -0.00013622       0.00019471      -0.00023955
