9
Lattice="5.524381917965438 5.550057844771919e-09 3.1895035364392132 1.8414606534709204 5.208437302402906 3.1895035209954026 6.172861407470107e-08 2.473399661027869e-08 6.379006965961323" Properties=species:S:1:pos:R:3:forces:R:3 energy=-24.25869369506836 free_energy=-24.25869369506836 stress="-2.5946315872715786e-05 7.207041363699318e-08 6.263223273350604e-09 7.207041363699318e-08 -2.590814619907178e-05 -7.507764188119381e-09 6.263223273350604e-09 -7.507764188119381e-09 -2.588320967333857e-05" pbc="T T T"
Cu       1.84145953       1.30211006       3.18950427      -0.00000370       0.00000143       0.00000140
Cu       5.52438229       3.90632717       9.56851163       0.00000235      -0.00000182       0.00000339
Cd       0.00000048      -0.00000018       0.00000043      -0.00000372       0.00000054      -0.00000270
S        2.03437170       1.43851887       6.37900815      -0.00027539      -0.00018997       0.00000895
S        5.33147116       3.76991819       6.37900783       0.00027592       0.00019108       0.00000549
S        4.50719596       1.43851789       4.95132039       0.00013450      -0.00019487      -0.00024059
S        2.85864469       3.76991970       7.80669167      -0.00014466       0.00019591       0.00023222
S        2.85864684       3.76991985       4.95132035      -0.00013325       0.00019409      -0.00024074
S        4.50719789       1.43851777       7.80669142       0.00014782      -0.00019639       0.00023258
