9
Lattice="5.205827956722678 -1.525605684322853e-08 3.0055860822494274 1.7352759301547849 4.908101554860252 3.005586153325639 -2.9434057989189556e-08 6.62372344513924e-08 6.011172215480173" Properties=species:S:1:pos:R:3:forces:R:3 energy=-35.267662048339844 free_energy=-35.267662048339844 stress="-1.6655742001603357e-05 2.7016028525395086e-08 -9.746536910881787e-10 2.7016028525395086e-08 -1.6609848898951896e-05 2.6811393993853017e-08 -9.746536910881787e-10 2.6811393993853017e-08 -1.6649790268274955e-05" pbc="T T T"
Cu       1.73527594       1.22702509       3.00558614       0.00000061      -0.00000060       0.00000054
Cu       5.20582835       3.68107698       9.01675732       0.00000039       0.00000201      -0.00000338
Co       0.00000003      -0.00000011       0.00000024      -0.00000126       0.00000004       0.00000115
S        1.76289549       1.24655540       6.01117195       0.00133196       0.00094143      -0.00000081
S        5.17820816       3.66154598       6.01117252      -0.00133127      -0.00094274       0.00000015
S        4.32437982       1.24655519       4.53229866      -0.00066617       0.00094047       0.00115442
S        2.61672384       3.66154651       7.49004600       0.00066712      -0.00094159      -0.00115365
S        2.61672364       3.66154623       4.53229879       0.00066650      -0.00094178       0.00115478
S        4.32438012       1.24655519       7.49004627      -0.00066805       0.00094257      -0.00115326
