9
Lattice="4.212056735861787 2.9275863928312253e-07 2.431832322936044 1.4040191268618254 3.9711660855075643 2.4318324287775033 9.19758937667354e-08 1.9466557290930007e-07 4.863664486565161" Properties=species:S:1:pos:R:3:forces:R:3 energy=-42.110469818115234 free_energy=-42.110469818115234 stress="-9.60709439823404e-05 -2.147600142166084e-08 -5.752233533939943e-08 -2.147600142166084e-08 -9.630395652493462e-05 -1.830369313893243e-07 -5.752233533939943e-08 -1.830369313893243e-07 -9.573908027959988e-05" pbc="T T T"
Cu       1.40401973       0.99279156       2.43183311       0.00000465      -0.00000088       0.00000023
Cu       4.21205688       2.97837624       7.29549597      -0.00000027       0.00001385      -0.00001076
C       -0.00000121       0.00000051      -0.00000123      -0.00000250      -0.00000009      -0.00000306
O        1.22539349       0.86648391       4.86366495       0.00285745       0.00201511      -0.00000159
O        4.39068263       3.10468222       4.86366495      -0.00285852      -0.00202489       0.00000273
O        3.59935993       0.86648366       3.49305438      -0.00143093       0.00201857       0.00247604
O        2.01671603       3.10468231       6.23427534       0.00143230      -0.00201875      -0.00246489
O        2.01671598       3.10468199       3.49305453       0.00142449      -0.00202107       0.00246912
O        3.59936028       0.86648407       6.23427535      -0.00142580       0.00201744      -0.00246888
