9
Lattice="5.873608483616361 -8.102270541020173e-07 3.3911294675324206 1.9578691663888372 5.5376875432973645 3.3911287128095187 7.652649634739502e-07 -3.832188593894503e-07 6.782257609586921" Properties=species:S:1:pos:R:3:forces:R:3 energy=-30.27910804748535 free_energy=-30.27910804748535 stress="-0.0001361378381261602 -1.055232257130001e-08 3.3585759173782037e-10 -1.055232257130001e-08 -0.0001359075540676713 -2.541493593355426e-08 3.3585759173782037e-10 -2.541493593355426e-08 -0.00013601616956293583" pbc="T T T"
Cu       1.95787170       1.38442445       3.39112819       0.00001090       0.00001798      -0.00000106
Cu       5.87360702       4.15326392      10.17338488      -0.00000860      -0.00000292      -0.00000971
Co       0.00000085       0.00000240       0.00000238      -0.00000837      -0.00000985      -0.00002280
Te       2.00520839       1.41789463       6.78225721       0.00414061       0.00292940      -0.00000008
Te       5.82627248       4.11979101       6.78225881      -0.00413482      -0.00292728       0.00000395
Te       4.87100303       1.41789437       5.12768960      -0.00207243       0.00292758       0.00358718
Te       2.96047367       4.11978906       8.43682874       0.00206692      -0.00292644      -0.00357299
Te       2.96047272       4.11979026       5.12768731       0.00206957      -0.00292940       0.00358270
Te       4.87100338       1.41789614       8.43682715      -0.00206384       0.00292086      -0.00356717
