9
Lattice="6.017455631612595 1.1879000304080431e-07 3.474179628384137 2.005818646230928 5.6733117306913226 3.4741796450747526 5.400869804650572e-08 5.863156966929225e-08 6.948359163222585" Properties=species:S:1:pos:R:3:forces:R:3 energy=-31.751800537109375 free_energy=-31.751800537109375 stress="-7.926684702397324e-06 2.2931729404263024e-08 -1.549621231333731e-08 2.2931729404263024e-08 -7.945735887915362e-06 1.1316478421008469e-08 -1.549621231333731e-08 1.1316478421008469e-08 -7.947647645778488e-06" pbc="T T T"
Cu       2.00581831       1.41832749       3.47417979      -0.00000055      -0.00000153      -0.00000027
Cu       6.01745577       4.25498420      10.42253890      -0.00000129       0.00000044       0.00000026
Cr       0.00000030       0.00000021       0.00000003      -0.00000328      -0.00000132      -0.00000079
Te       2.14147352       1.51425020       6.94835957       0.00045589       0.00032124       0.00000080
Te       5.88180067       4.15906165       6.94835953      -0.00045277      -0.00031856       0.00000168
Te       4.94671913       1.51425061       5.32874979      -0.00022734       0.00032193       0.00039355
Te       3.07655521       4.15906151       8.56796817       0.00022820      -0.00032106      -0.00039447
Te       3.07655517       4.15906150       5.32874985       0.00022843      -0.00032255       0.00039515
Te       4.94671925       1.51425028       8.56796817      -0.00022731       0.00032143      -0.00039579
