9
Lattice="5.414629936600385 2.0163980201067388e-07 3.126138301364355 1.8048768414983622 5.104962523893021 3.1261382912195286 2.059939914550958e-07 1.332349729721059e-07 6.252276245936541" Properties=species:S:1:pos:R:3:forces:R:3 energy=-35.202701568603516 free_energy=-35.202701568603516 stress="-5.540730126085691e-05 4.8491530790784054e-09 -3.242912072209947e-08 4.8491530790784054e-09 -5.5478136346209794e-05 1.1536089861152732e-09 -3.242912072209947e-08 1.1536089861152732e-09 -5.54498728888575e-05" pbc="T T T"
Cu       1.80487670       1.27623941       3.12613860       0.00000055      -0.00000399       0.00000107
Cu       5.41462994       3.82872207       9.37841350      -0.00000116      -0.00000030      -0.00000334
Cr      -0.00000021       0.00000006       0.00000026       0.00000116       0.00000085      -0.00000097
Se       1.97404715       1.39586206       6.25227627      -0.00219169      -0.00154930      -0.00000019
Se       5.24546023       3.70910088       6.25227697       0.00219203       0.00154869       0.00000057
Se       4.42760619       1.39586190       4.83571286       0.00109356      -0.00154763      -0.00189754
Se       2.79190112       3.70910145       7.66883961      -0.00109476       0.00155177       0.00189815
Se       2.79190026       3.70910133       4.83571331      -0.00109475       0.00154907      -0.00189599
Se       4.42760661       1.39586231       7.66883994       0.00109504      -0.00154918       0.00189822
