9
Lattice="4.784902545344878 -6.853693305658856e-08 2.7625648618316956 1.5949674929642494 4.511249258947597 2.762564788277501 5.17442882480188e-08 -5.3496368015120295e-08 5.525129634039657" Properties=species:S:1:pos:R:3:forces:R:3 energy=-34.61723709106445 free_energy=-34.61723709106445 stress="-0.00020868958381470293 -4.7949157533366815e-08 2.6239181494247532e-08 -4.7949157533366815e-08 -0.00020862057863269 -5.798499458364859e-10 2.6239181494247532e-08 -5.798499458364859e-10 -0.0002086916792904958" pbc="T T T"
Cu       1.59496801       1.12781215       2.76256439       0.00000302      -0.00000159      -0.00000139
Cu       4.78490319       3.38343756       8.28769260       0.00000253       0.00000602      -0.00001067
Ca       0.00000046      -0.00000021      -0.00000065      -0.00000360       0.00000346       0.00000358
O        1.84348663       1.30354131       5.52512966       0.00376961       0.00266276      -0.00000024
O        4.53638347       3.20770727       5.52513065      -0.00376794      -0.00266415       0.00000619
O        3.86315848       1.30354146       4.35907184      -0.00188588       0.00265818       0.00326125
O        2.51671071       3.20770759       6.69118866       0.00188670      -0.00266534      -0.00326559
O        2.51671041       3.20770733       4.35907161       0.00188008      -0.00266322       0.00326629
O        3.86315898       1.30354206       6.69118840      -0.00188451       0.00266401      -0.00325932
