9
Lattice="4.673006375622471 -2.553158989037412e-07 2.697961556873051 1.557668613944119 4.405752383682301 2.697961448127849 1.474878639759364e-07 -2.8895512946590883e-08 5.395922858289625" Properties=species:S:1:pos:R:3:forces:R:3 energy=-30.442977905273438 free_energy=-30.442977905273438 stress="-0.00024484298774041235 8.856148525637764e-08 1.3685331090584896e-08 8.856148525637764e-08 -0.00024481554282829165 -1.0534770211734212e-07 1.3685331090584896e-08 -1.0534770211734212e-07 -0.00024487293558195233" pbc="T T T"
Cu       1.55766982       1.10143720       2.69796094       0.00000757      -0.00000689      -0.00000856
Cu       4.67300633       3.30431454       8.09388750      -0.00000162       0.00000372       0.00001604
Cd      -0.00000007      -0.00000010      -0.00000147      -0.00000107       0.00000289       0.00001164
O        1.75639482       1.24195887       5.39592354       0.00243789       0.00172405       0.00000337
O        4.47427987       3.16379343       5.39592216      -0.00243902      -0.00172275      -0.00001069
O        3.79480959       1.24195790       4.21904339      -0.00121837       0.00172605       0.00210877
O        2.43586626       3.16379362       6.57280155       0.00121833      -0.00172666      -0.00211714
O        2.43586701       3.16379495       4.21904381       0.00122630      -0.00171675       0.00210845
O        3.79480702       1.24195803       6.57280173      -0.00123008       0.00171632      -0.00211163
