9
Lattice="5.2046713822411625 2.925808059578549e-08 3.004918123383328 1.7348905468367746 4.907010949776048 3.0049180220497336 1.7709514478137858e-08 -1.1158527579442138e-07 6.0098362160928716" Properties=species:S:1:pos:R:3:forces:R:3 energy=-37.413795471191406 free_energy=-37.413795471191406 stress="-7.833527888578828e-07 2.656359932018404e-08 1.5505253969649857e-08 2.656359932018404e-08 -7.533092798439611e-07 1.4606838405484268e-08 1.5505253969649857e-08 1.4606838405484268e-08 -7.550953000645677e-07" pbc="T T T"
Cu       1.73489055       1.22675281       3.00491870       0.00000054       0.00000061       0.00000230
Cu       5.20467158       3.68025777       9.01475492       0.00000001      -0.00000097       0.00000259
Cr       0.00000029       0.00000006       0.00000060      -0.00000105       0.00000168      -0.00000247
S        1.79957344       1.27249070       6.00983632       0.00008222       0.00005823      -0.00000057
S        5.13998864       3.63452044       6.00983583      -0.00008368      -0.00005797       0.00000068
S        4.30488472       1.27249079       4.56339348      -0.00004292       0.00006045       0.00007236
S        2.63467667       3.63452051       7.45627781       0.00004277      -0.00005849      -0.00007531
S        2.63467724       3.63452020       4.56339374       0.00004302      -0.00006209       0.00007257
S        4.30488465       1.27249010       7.45627807      -0.00004083       0.00005858      -0.00007212
