9
Lattice="6.307581841461822 1.4952416919824238e-07 3.6416844067199046 2.1025273828464455 5.946844856876939 3.641684473600695 -2.146256054636179e-08 6.673561446733073e-08 7.283368850614157" Properties=species:S:1:pos:R:3:forces:R:3 energy=-21.99519157409668 free_energy=-21.99519157409668 stress="-3.3373315091012046e-05 1.3524173780865567e-08 -2.979095636845841e-09 1.3524173780865567e-08 -3.3296684705419466e-05 -1.1317996317927737e-08 -2.979095636845841e-09 -1.1317996317927737e-08 -3.335337169119157e-05" pbc="T T T"
Cu       2.10252628       1.48671063       3.64168434      -0.00000561      -0.00000102       0.00000021
Cu       6.30758252       4.46013276      10.92505290       0.00000324      -0.00000358      -0.00000282
Cd      -0.00000089       0.00000031      -0.00000016       0.00000424      -0.00000152      -0.00000004
Te       2.39432234       1.69304198       7.28336906       0.00006762       0.00004997      -0.00000030
Te       6.01578822       4.25380342       7.28336947      -0.00006957      -0.00005257       0.00000176
Te       5.11042155       1.69304189       5.71522811      -0.00003352       0.00005281       0.00006173
Te       3.29968778       4.25380395       8.85150915       0.00003297      -0.00004731      -0.00006103
Te       3.29968713       4.25380376       5.71522927       0.00003155      -0.00004841       0.00006270
Te       5.11042198       1.69304160       8.85150879      -0.00003083       0.00005161      -0.00006223
