9
Lattice="5.719847131986228 6.600059438075405e-08 3.3023554254175256 1.9066157104422305 5.39272390640446 3.3023555335765926 1.963158717340025e-07 2.7128375428677845e-07 6.6047105108059485" Properties=species:S:1:pos:R:3:forces:R:3 energy=-25.597742080688477 free_energy=-25.597742080688477 stress="-1.7817379557527602e-05 -3.995074493445827e-08 -2.915943220216377e-08 -3.995074493445827e-08 -1.7855318219517358e-05 -7.05904525943879e-08 -2.915943220216377e-08 -7.05904525943879e-08 -1.782502658898011e-05" pbc="T T T"
Cu       1.90661644       1.34818090       3.30235598       0.00000124      -0.00000130       0.00000252
Cu       5.71984595       4.04454305       9.90706470      -0.00000431       0.00000041      -0.00000515
Cd      -0.00000073      -0.00000048      -0.00000110       0.00000605       0.00000297       0.00000568
Se       2.24607556       1.58821418       6.60470877       0.00063197       0.00044447      -0.00000555
Se       5.38038859       3.80451089       6.60471136      -0.00063688      -0.00044711       0.00000184
Se       4.59680873       1.58821397       5.24751315      -0.00031751       0.00044295       0.00054654
Se       3.02965422       3.80450994       7.96191020       0.00032192      -0.00045072      -0.00054662
Se       3.02965322       3.80450858       5.24751404       0.00031409      -0.00044429       0.00054681
Se       4.59681015       1.58821590       7.96190878      -0.00031652       0.00045258      -0.00054613
