9
Lattice="4.558407982449048 -4.601002100007432e-07 2.631798202701195 1.5194691286861224 4.29770735313566 2.631797795687013 7.489691349887778e-07 3.1112653399274305e-08 5.2635951081497225" Properties=species:S:1:pos:R:3:forces:R:3 energy=-43.44342803955078 free_energy=-43.44342803955078 stress="-0.00040345778688788414 -5.307106754059987e-09 1.7200171953390964e-07 -5.307106754059987e-09 -0.00040345906745642424 -5.6049415775305533e-08 1.7200171953390964e-07 -5.6049415775305533e-08 -0.00040361398714594543" pbc="T T T"
Cu       1.51947623       1.07442932       2.63179987       0.00005687       0.00002008       0.00002044
Cu       4.55841051       3.22327956       7.89540684       0.00002594      -0.00000592       0.00010264
Cr       0.00000153       0.00000017      -0.00000087       0.00000937       0.00000029       0.00000343
O        1.47483413       1.04286754       5.26359327       0.00670421       0.00475821      -0.00002242
O        4.60304175       3.25484153       5.26359039      -0.00672710      -0.00475141      -0.00004456
O        3.82098834       1.04286538       3.90903880      -0.00338683       0.00476879       0.00580063
O        2.25688466       3.25483917       6.61814781       0.00333568      -0.00476038      -0.00583082
O        2.25688700       3.25484172       3.90904073       0.00336212      -0.00475857       0.00580055
O        3.82098739       1.04286338       6.61814729      -0.00337902       0.00472930      -0.00583002
