9
Lattice="4.55925762379999 2.3588698484187814e-07 2.632287140035289 1.5197528452610052 4.298510290026542 2.632286998703463 -4.520711727243441e-07 -4.927579214992559e-07 5.264575063080644" Properties=species:S:1:pos:R:3:forces:R:3 energy=-43.443443298339844 free_energy=-43.443443298339844 stress="-6.960816244827583e-05 8.85119035842763e-08 -9.174235771070016e-08 8.85119035842763e-08 -6.967010267544538e-05 1.9379072568881384e-07 -9.174235771070016e-08 1.9379072568881384e-07 -7.008980173850432e-05" pbc="T T T"
Cu       1.51975170       1.07462532       2.63228813      -0.00000242      -0.00001493       0.00001875
Cu       4.55925271       3.22388349       7.89687140      -0.00004181       0.00000122       0.00008175
Cr       0.00000100       0.00000049       0.00000008       0.00000222      -0.00000572       0.00001436
O        1.47513895       1.04307472       5.26457359       0.00098550       0.00065699      -0.00000079
O        4.60387286       3.25543566       5.26456526      -0.00097507      -0.00066528      -0.00004962
O        3.82169121       1.04307995       3.90978886      -0.00047147       0.00069726       0.00083825
O        2.25731978       3.25543049       6.61935778       0.00048646      -0.00069070      -0.00085539
O        2.25732007       3.25543049       3.90978873       0.00049141      -0.00069365       0.00083280
O        3.82169414       1.04307981       6.61935882      -0.00047472       0.00071421      -0.00088024
