9
Lattice="5.874431234009244 1.2134267877390961e-06 3.391610470042615 1.9581429893989848 5.538489056277573 3.3916137597258587 -3.1093307151983465e-06 1.8303934782302093e-06 6.783226325604294" Properties=species:S:1:pos:R:3:forces:R:3 energy=-30.279117584228516 free_energy=-30.279117584228516 stress="6.069241135264747e-05 -2.2763832419059327e-07 8.877324120248886e-08 -2.2763832419059327e-07 5.989466080791317e-05 -2.3031663687334003e-08 8.877324120248886e-08 -2.3031663687334003e-08 6.026679329806939e-05" pbc="T T T"
Cu       1.95813167       1.38463978       3.39161511      -0.00004328       0.00007486       0.00000989
Cu       5.87441858       4.15386081      10.17483341      -0.00005025      -0.00006039      -0.00002524
Co      -0.00000330      -0.00000382      -0.00000084       0.00001795       0.00001097      -0.00000728
Te       2.00572990       1.41827941       6.78322751       0.00039217       0.00027177       0.00000493
Te       5.82683658       4.12020873       6.78323038      -0.00037685      -0.00028211       0.00001016
Te       4.87157084       1.41828453       5.12862992      -0.00017062       0.00027903       0.00033048
Te       2.96101637       4.12020659       8.43782247       0.00019174      -0.00027645      -0.00029886
Te       2.96101333       4.12020308       5.12862824       0.00019217      -0.00029347       0.00030566
Te       4.87157244       1.41829043       8.43781500      -0.00015303       0.00027579      -0.00032968
