9
Lattice="5.245970980994248 -7.716071005545487e-08 3.0287629684077344 1.7486569527973619 4.94594879681774 3.0287629131891824 -1.4159185592306326e-08 -7.76406713376459e-08 6.05752596133986" Properties=species:S:1:pos:R:3:forces:R:3 energy=-36.607025146484375 free_energy=-36.607025146484375 stress="-4.8339966269850265e-06 -4.424943966796491e-08 3.297053297046659e-08 -4.424943966796491e-08 -4.805332082469249e-06 -4.0829121417118586e-08 3.297053297046659e-08 -4.0829121417118586e-08 -4.808802259503864e-06" pbc="T T T"
Cu       1.74865683       1.23648719       3.02876371      -0.00000063      -0.00000024       0.00000349
Cu       5.24597086       3.70946134       9.08628903      -0.00000029       0.00000016       0.00000223
Fe       0.00000058      -0.00000027       0.00000011      -0.00000907       0.00000654      -0.00000337
S        1.77496044       1.25508638       6.05752612      -0.00047457      -0.00033465      -0.00000033
S        5.21966748       3.69086182       6.05752571       0.00047761       0.00033700      -0.00000228
S        4.35849012       1.25508673       4.56592380       0.00023717      -0.00033799      -0.00041598
S        2.63613741       3.69086195       7.54912776      -0.00023752       0.00033534       0.00041038
S        2.63613699       3.69086252       4.56592398      -0.00023752       0.00033620      -0.00041229
S        4.35849106       1.25508706       7.54912732       0.00024441      -0.00034222       0.00041860
