9
Lattice="5.87007619132945 -5.696268510418479e-07 3.3890903942669093 1.956691548164466 5.534360710676403 3.3890903571363507 -3.253516356828341e-07 -2.755335261021274e-07 6.778181352059329" Properties=species:S:1:pos:R:3:forces:R:3 energy=-31.641029357910156 free_energy=-31.641029357910156 stress="0.00013682496501132846 -9.630313968500559e-08 7.9717857315309e-11 -9.630313968500559e-08 0.00013694370863959193 2.7287505588446948e-08 7.9717857315309e-11 2.7287505588446948e-08 0.0001369691890431568" pbc="T T T"
Cu       1.95668969       1.38359046       3.38909312      -0.00001083      -0.00000014       0.00001245
Cu       5.87007550       4.15076920      10.16727158      -0.00000205      -0.00000451      -0.00000053
Fe      -0.00000089      -0.00000053      -0.00000007       0.00000702       0.00000624       0.00000479
Te       1.97191884       1.39435705       6.77817912       0.00539680       0.00381905      -0.00000658
Te       5.85484831       4.14000183       6.77818175      -0.00540252      -0.00382321       0.00000070
Te       4.88411594       1.39435817       5.09682412      -0.00269280       0.00381262       0.00466609
Te       2.94265188       4.14000276       8.45953826       0.00269684      -0.00381172      -0.00467047
Te       2.94265264       4.14000265       5.09682337       0.00269794      -0.00381147       0.00466657
Te       4.88411771       1.39435793       8.45953719      -0.00269038       0.00381326      -0.00467295
