9
Lattice="5.55228855806397 2.592422998223415e-08 3.205615352481313 1.8507628778065175 5.234747725391256 3.205615351308811 9.304357094529639e-08 6.435573041772884e-08 6.411230543806492" Properties=species:S:1:pos:R:3:forces:R:3 energy=-34.53727722167969 free_energy=-34.53727722167969 stress="-2.166493868571706e-05 -1.781612191109616e-08 -2.024411216439148e-08 -1.781612191109616e-08 -2.1654015654348768e-05 -1.209362832099714e-08 -2.024411216439148e-08 -1.209362832099714e-08 -2.166615377063863e-05" pbc="T T T"
Cu       1.85076235       1.30868642       3.20561556      -0.00000147      -0.00000147       0.00000112
Cu       5.55228911       3.92606143       9.61684495       0.00000112       0.00000166      -0.00000276
Fe       0.00000002      -0.00000014       0.00000008       0.00000199       0.00000168       0.00000037
Se       1.85545316       1.31200365       6.41123041      -0.00024143      -0.00017005       0.00000001
Se       5.54759823       3.92274443       6.41123117       0.00023901       0.00016859       0.00000042
Se       4.62456186       1.31200292       4.81248519       0.00012085      -0.00017136      -0.00020769
Se       2.77848977       3.92274457       8.00997631      -0.00012016       0.00017101       0.00020874
Se       2.77848946       3.92274446       4.81248503      -0.00012039       0.00017053      -0.00020814
Se       4.62456221       1.31200361       8.00997627       0.00012054      -0.00017047       0.00020823
