9
Lattice="5.866689239263108 -8.906015922366466e-07 3.3871350204891555 1.9555624287541387 5.531167727085181 3.387134693707755 4.0024035870067457e-07 -1.1721078606440082e-07 6.7742693477415745" Properties=species:S:1:pos:R:3:forces:R:3 energy=-31.641128540039062 free_energy=-31.641128540039062 stress="1.9166755009791814e-05 -2.8934033480254584e-07 7.716037231375594e-08 -2.8934033480254584e-07 1.940614492923487e-05 -1.115135361828834e-07 7.716037231375594e-08 -1.115135361828834e-07 1.960292320291046e-05" pbc="T T T"
Cu       1.95556401       1.38279215       3.38713434       0.00000319       0.00000093      -0.00000068
Cu       5.86668748       4.14837449      10.16140499      -0.00000585      -0.00000121       0.00000158
Fe      -0.00000126      -0.00000011       0.00000213       0.00003133       0.00000392      -0.00004316
Te       1.97229357       1.39462026       6.77426887       0.00485296       0.00342659      -0.00000062
Te       5.84996033       4.13654567       6.77426893      -0.00487309      -0.00344656      -0.00000106
Te       4.88054261       1.39462204       5.09519047      -0.00242937       0.00343809       0.00420600
Te       2.94171012       4.13654471       8.45334740       0.00241376      -0.00341234      -0.00417836
Te       2.94171023       4.13654487       5.09519185       0.00242116      -0.00342230       0.00419134
Te       4.88054116       1.39462285       8.45334737      -0.00241403       0.00341285      -0.00417498
