9
Lattice="5.552086930335827 -1.8104048302734227e-07 3.205499196020061 1.8506955925406068 5.2345577285769505 3.205498988551718 1.1347683151285815e-07 -1.7385562550380094e-07 6.410998195492538" Properties=species:S:1:pos:R:3:forces:R:3 energy=-34.537269592285156 free_energy=-34.537269592285156 stress="-0.0001756002166075632 -8.486771463367404e-08 9.736178441244192e-08 -8.486771463367404e-08 -0.00017554637452121824 -1.332035850509783e-07 9.736178441244192e-08 -1.332035850509783e-07 -0.00017551118799019605" pbc="T T T"
Cu       1.85069552       1.30863947       3.20549909      -0.00000074       0.00000029       0.00000050
Cu       5.55208710       3.92591757       9.61649824       0.00000173      -0.00000122       0.00000257
Fe       0.00000031      -0.00000091       0.00000033      -0.00000629       0.00002085      -0.00001011
Se       1.85517434       1.31180627       6.41099833       0.00512886       0.00362602       0.00000006
Se       5.54760879       3.92275149       6.41099811      -0.00513393      -0.00363064       0.00000008
Se       4.62450003       1.31180668       4.81212678      -0.00256401       0.00362754       0.00444070
Se       2.77828245       3.92275136       8.00986893       0.00256617      -0.00362992      -0.00444701
Se       2.77828298       3.92275072       4.81212772       0.00256377      -0.00362647       0.00444096
Se       4.62449912       1.31180688       8.00986795      -0.00255556       0.00361368      -0.00442773
