9
Lattice="5.245348725195484 -2.058353731437826e-07 3.0284032553871807 1.7484494509555235 4.945361924833557 3.0284031342235553 -1.3274818413129582e-07 -2.422615982971309e-07 6.05680674070098" Properties=species:S:1:pos:R:3:forces:R:3 energy=-36.607025146484375 free_energy=-36.607025146484375 stress="-7.663711585337296e-05 -8.160154862935087e-08 2.235454132915038e-08 -8.160154862935087e-08 -7.658066897420213e-05 -2.6835055066953828e-08 2.235454132915038e-08 -2.6835055066953828e-08 -7.645772711839527e-05" pbc="T T T"
Cu       1.74844937       1.23634011       3.02840298       0.00000029       0.00000021      -0.00000057
Cu       5.24534867       3.70902051       9.08521077      -0.00000030      -0.00000200       0.00000335
Fe       0.00000054      -0.00000041      -0.00000001      -0.00001034       0.00000771       0.00000035
S        1.77490324       1.25504589       6.05680673      -0.00091732      -0.00064838       0.00000004
S        5.21889495       3.69031560       6.05680607       0.00091922       0.00065085      -0.00000078
S        4.35789704       1.25504650       4.56551516       0.00046355      -0.00065401      -0.00080293
S        2.63590076       3.69031558       7.54809817      -0.00045890       0.00064981       0.00079387
S        2.63590116       3.69031554       4.56551457      -0.00045934       0.00065151      -0.00079703
S        4.35789653       1.25504657       7.54809810       0.00046298      -0.00065565       0.00080359
