9
Lattice="4.5059070282426905 3.902636762530978e-09 2.6014866442377076 1.5019689985969935 4.248209883762119 2.601486669346647 4.492194111331386e-09 3.3928494707176945e-08 5.2029732806946845" Properties=species:S:1:pos:R:3:forces:R:3 energy=-40.68711853027344 free_energy=-40.68711853027344 stress="-0.00015092946705408394 -3.58822838109063e-08 7.020790615541728e-09 -3.58822838109063e-08 -0.00015075263218022883 -1.0878666856228847e-08 7.020790615541728e-09 -1.0878666856228847e-08 -0.0001507897104602307" pbc="T T T"
Cu       1.50196919       1.06205230       2.60148631       0.00000165      -0.00000343      -0.00000303
Cu       4.50590696       3.18615747       7.80446046       0.00000052       0.00000071       0.00000489
Fe      -0.00000000      -0.00000023       0.00000002      -0.00000024       0.00000130      -0.00000005
O        1.48848466       1.05251745       5.20297334      -0.00041057      -0.00028898       0.00000065
O        4.51939142       3.19569266       5.20297304       0.00040913       0.00028927      -0.00000123
O        3.76166458       1.05251764       3.89055220       0.00020670      -0.00029185      -0.00035869
O        2.24621138       3.19569248       6.51539444      -0.00020668       0.00029167       0.00035669
O        2.24621157       3.19569244       3.89055225      -0.00020560       0.00029272      -0.00035808
O        3.76166445       1.05251755       6.51539438       0.00020498      -0.00029150       0.00035872
