9
Lattice="5.495540682643036 3.19747101403509e-08 3.1728518370037975 1.8318469218172195 5.181245321730468 3.1728518414087223 -4.375817235598365e-08 -2.5546783808890144e-08 6.34570374979898" Properties=species:S:1:pos:R:3:forces:R:3 energy=-30.160280227661133 free_energy=-30.160280227661133 stress="7.640596777491737e-06 5.794971258410442e-08 1.8929229739228504e-08 5.794971258410442e-08 7.579176781291608e-06 2.438854274089408e-08 1.8929229739228504e-08 2.438854274089408e-08 7.436204668920254e-06" pbc="T T T"
Cu       1.83184742       1.29531149       3.17285190       0.00000181       0.00000113      -0.00000009
Cu       5.49554023       3.88593429       9.51855605      -0.00000170       0.00000001       0.00000041
Ge       0.00000020       0.00000004       0.00000033      -0.00000588      -0.00000265      -0.00000912
S        1.89973247       1.34331352       6.34570386      -0.00018507      -0.00013211       0.00000053
S        5.42765496       3.83793134       6.34570353       0.00019246       0.00013530      -0.00000219
S        4.54567447       1.34331373       4.81806777       0.00008976      -0.00012761      -0.00016010
S        2.78171330       3.83793148       7.87333932      -0.00009406       0.00013193       0.00016457
S        2.78171305       3.83793167       4.81806768      -0.00009060       0.00012729      -0.00015855
S        4.54567409       1.34331371       7.87333926       0.00009316      -0.00013348       0.00016463
