9
Lattice="6.160310598110633 -3.538405567557167e-07 3.556656239308296 2.053436319694715 5.807996897372842 3.5566566077814294 3.5185067303866406e-07 7.000816238726332e-07 7.113311869193281" Properties=species:S:1:pos:R:3:forces:R:3 energy=-26.054607391357422 free_energy=-26.054607391357422 stress="-0.00013501214561983943 -1.2314927744228044e-07 -8.224254344213477e-08 -1.2314927744228044e-07 -0.0001349500089418143 -5.238670652829569e-08 -8.224254344213477e-08 -5.238670652829569e-08 -0.00013507467519957572" pbc="T T T"
Cu       2.05343674       1.45199786       3.55665896       0.00000962      -0.00000124       0.00001008
Cu       6.16030843       4.35599755      10.66996357      -0.00001825      -0.00000527      -0.00001877
Ge       0.00000283       0.00000039       0.00000281      -0.00000538      -0.00000073      -0.00000656
Te       2.27710927       1.61015952       7.11331136      -0.00209771      -0.00148316      -0.00000667
Te       5.93663538       4.19783557       7.11331539       0.00210536       0.00149013       0.00001011
Te       5.02175051       1.61016174       5.52869061       0.00103957      -0.00148965      -0.00182513
Te       3.19199906       4.19783500       8.69793437      -0.00104018       0.00149401       0.00182842
Te       3.19199440       4.19783417       5.52868844      -0.00104801       0.00147846      -0.00182376
Te       5.02175282       1.61016715       8.69793314       0.00105503      -0.00148253       0.00183234
