9
Lattice="5.588886355999423 1.7481122139575874e-08 3.2267451223144428 1.8629621019930456 5.269252714742952 3.226745179740199 -8.584565976717761e-08 9.629926838507922e-09 6.453490393317852" Properties=species:S:1:pos:R:3:forces:R:3 energy=-29.909589767456055 free_energy=-29.909589767456055 stress="3.759431820071768e-06 1.755104506173666e-08 6.902969751365617e-09 1.755104506173666e-08 3.7529216569964774e-06 1.1077383454960454e-08 6.902969751365617e-09 1.1077383454960454e-08 3.727743433046271e-06" pbc="T T T"
Cu       1.86296054       1.31731249       3.22674539      -0.00000335      -0.00000152       0.00000021
Cu       5.58888648       3.95193958       9.68023651       0.00000048      -0.00000019       0.00000306
Ge       0.00000012       0.00000015       0.00000016       0.00000025      -0.00000097       0.00000009
Se       2.15400959       1.52311502       6.45349067       0.00137879       0.00097355       0.00000035
Se       5.29783928       3.74613818       6.45349017      -0.00137790      -0.00097456      -0.00000116
Se       4.51188212       1.52311458       5.09217177      -0.00068907       0.00097648       0.00119536
Se       2.93996639       3.74613832       7.81480800       0.00068949      -0.00097350      -0.00119565
Se       2.93996690       3.74613806       5.09217184       0.00069018      -0.00097439       0.00119309
Se       4.51188207       1.52311457       7.81480821      -0.00068896       0.00097512      -0.00119538
