9
Lattice="5.4952562309542685 1.5113400909870508e-07 3.172687750670243 1.8317522021490649 5.180977297604684 3.172687780680142 -6.093434691394578e-08 -6.332593742131313e-09 6.345375606881838" Properties=species:S:1:pos:R:3:forces:R:3 energy=-30.160274505615234 free_energy=-30.160274505615234 stress="-2.7293202947475947e-05 5.290626603482451e-08 2.684603295222132e-08 5.290626603482451e-08 -2.7296142434352078e-05 2.115665331814398e-08 2.684603295222132e-08 2.115665331814398e-08 -2.7378931918065064e-05" pbc="T T T"
Cu       1.83175235       1.29524426       3.17268749       0.00000091      -0.00000041      -0.00000150
Cu       5.49525627       3.88573322       9.51806374      -0.00000042       0.00000133       0.00000077
Ge       0.00000014       0.00000010       0.00000011      -0.00000511      -0.00000212      -0.00000142
S        1.89974474       1.34332208       6.34537550      -0.00098884      -0.00070161      -0.00000129
S        5.42726344       3.83765491       6.34537487       0.00099587       0.00070283      -0.00000361
S        4.54538449       1.34332239       4.81791476       0.00049734      -0.00069922      -0.00085700
S        2.78162471       3.83765528       7.87283655      -0.00049329       0.00070077       0.00085807
S        2.78162410       3.83765543       4.81791480      -0.00049722       0.00070095      -0.00085491
S        4.54538320       1.34332216       7.87283676       0.00049067      -0.00070259       0.00086075
