9
Lattice="4.528510136067193 1.0784874438739655e-07 2.614536775457156 1.5095034693636513 4.269520637121925 2.614536794520499 5.506455097896327e-08 6.228422539707638e-08 5.229073455539641" Properties=species:S:1:pos:R:3:forces:R:3 energy=-39.84468078613281 free_energy=-39.84468078613281 stress="-9.493023389950395e-05 -1.517882530777115e-08 5.723794771483881e-08 -1.517882530777115e-08 -9.500691521679983e-05 -8.58910276235747e-09 5.723794771483881e-08 -8.58910276235747e-09 -9.500189480604604e-05" pbc="T T T"
Cu       1.50950268       1.06738098       2.61453754      -0.00000947       0.00000844       0.00000606
Cu       4.52851056       3.20214161       7.84361186       0.00000359       0.00000886       0.00001249
Ge      -0.00000011      -0.00000008      -0.00000017       0.00000191       0.00000155       0.00000241
O        1.52551687       1.07870238       5.22907300      -0.00036108      -0.00026417      -0.00000466
O        4.51249780       3.19081721       5.22907338       0.00036621       0.00025213      -0.00000393
O        3.76575233       1.07870328       3.93567273       0.00018501      -0.00025630      -0.00031650
O        2.27226078       3.19081750       6.52247346      -0.00019091       0.00025767       0.00031233
O        2.27226179       3.19081755       3.93567265      -0.00018048       0.00025588      -0.00032043
O        3.76575200       1.07870295       6.52247388       0.00018442      -0.00026304       0.00031114
