9
Lattice="5.588921060399728 -5.527912244147712e-08 3.2267652107080798 1.8629737201077978 5.2692853460359785 3.226765062746673 1.1297211332207041e-07 -1.013316155054662e-07 6.453530225742736" Properties=species:S:1:pos:R:3:forces:R:3 energy=-29.909587860107422 free_energy=-29.909587860107422 stress="3.966535587096587e-05 -2.1910450342943477e-08 -9.605015449665188e-09 -2.1910450342943477e-08 3.968077362515032e-05 3.2233025137884397e-09 -9.605015449665188e-09 3.2233025137884397e-09 3.964202187489718e-05" pbc="T T T"
Cu       1.86297364       1.31732212       3.22676532      -0.00000002       0.00000183       0.00000108
Cu       5.58892077       3.95196334       9.68029379      -0.00000067      -0.00000065      -0.00000266
Ge      -0.00000011       0.00000005       0.00000031       0.00000159      -0.00000094      -0.00000224
Se       2.15397273       1.52308881       6.45353021       0.00268868       0.00190105       0.00000015
Se       5.29792222       3.74619669       6.45353086      -0.00268775      -0.00190156       0.00000097
Se       4.51193470       1.52308854       5.09216005      -0.00134489       0.00190019       0.00232878
Se       2.93996045       3.74619642       7.81490030       0.00134371      -0.00189962      -0.00232602
Se       2.93996000       3.74619613       5.09216037       0.00134356      -0.00190112       0.00232769
Se       4.51193517       1.52308865       7.81490080      -0.00134419       0.00190086      -0.00232767
