9
Lattice="4.527727631612519 -1.7142721876236037e-07 2.6140848821172877 1.5092423961279318 4.268782266134792 2.6140848580759704 4.717893261641775e-08 3.916095453018134e-09 5.228169682518277" Properties=species:S:1:pos:R:3:forces:R:3 energy=-39.84467315673828 free_energy=-39.84467315673828 stress="-0.0002858366642612964 -2.7454984063979282e-08 6.025048548963241e-08 -2.7454984063979282e-08 -0.0002860390522982925 -4.55739845861558e-09 6.025048548963241e-08 -4.55739845861558e-09 -0.0002860230451915413" pbc="T T T"
Cu       1.50924278       1.06719581       2.61408311       0.00000150       0.00000052      -0.00001635
Cu       4.52772800       3.20158604       7.84225289       0.00000446      -0.00000511      -0.00001724
Ge       0.00000003      -0.00000013       0.00000001      -0.00000133       0.00000385      -0.00000209
O        1.52548696       1.07868271       5.22817019      -0.00204444      -0.00143933       0.00000692
O        4.51148262       3.19009990       5.22817032       0.00203943       0.00144529       0.00000795
O        3.76498403       1.07868228       3.93519629       0.00102383      -0.00144839      -0.00176680
O        2.27198631       3.19009922       6.52114442      -0.00102043       0.00143915       0.00177372
O        2.27198596       3.19009994       3.93519625      -0.00102520       0.00144506      -0.00176239
O        3.76498379       1.07868285       6.52114406       0.00102168      -0.00144130       0.00177717
