9
Lattice="6.16141477081354 1.2513790363816882e-07 3.5572942406766743 2.0538049865697454 5.809037738029398 3.5572943359672506 3.318932851422592e-08 1.4017495099506283e-07 7.11458842386787" Properties=species:S:1:pos:R:3:forces:R:3 energy=-26.05457305908203 free_energy=-26.05457305908203 stress="-6.18888734607026e-05 -2.525426312516288e-09 1.2581019781521263e-08 -2.525426312516288e-09 -6.190514250192791e-05 6.217335535296797e-09 1.2581019781521263e-08 6.217335535296797e-09 -6.18721023784019e-05" pbc="T T T"
Cu       2.05380528       1.45225793       3.55729494       0.00000039      -0.00000594       0.00000311
Cu       6.16141472       4.35677825      10.67188181      -0.00000075      -0.00000033      -0.00000381
Ge       0.00000034       0.00000080       0.00000012      -0.00000109      -0.00000128      -0.00000017
Te       2.27856744       1.61119014       7.11458818      -0.00836100      -0.00591261      -0.00000154
Te       5.93665177       4.19784752       7.11458933       0.00836261       0.00591693       0.00000192
Te       5.02213095       1.61119069       5.53059089       0.00418077      -0.00591385      -0.00724287
Te       3.19308907       4.19784768       8.69858542      -0.00418109       0.00591528       0.00724146
Te       3.19308867       4.19784780       5.53059135      -0.00418119       0.00591473      -0.00724122
Te       5.02213096       1.61119121       8.69858597       0.00418143      -0.00591297       0.00724316
