9
Lattice="5.756104191256992 -1.7124207857161096e-07 3.323288310752049 1.918701238648328 5.426907092041883 3.323288305536541 1.1962587227444041e-08 2.0711542517307964e-09 6.646576600784295" Properties=species:S:1:pos:R:3:forces:R:3 energy=-24.94182777404785 free_energy=-24.94182777404785 stress="-4.859413093072362e-05 1.5791554730526514e-08 9.455221050558293e-10 1.5791554730526514e-08 -4.861767956754193e-05 -1.6486493947809322e-08 9.455221050558293e-10 -1.6486493947809322e-08 -4.85984783153981e-05" pbc="T T T"
Cu       1.91870240       1.35672590       3.32328809       0.00000214      -0.00000207      -0.00000089
Cu       5.75610338       4.07018032       9.96986518      -0.00000125       0.00000066       0.00000013
Hg      -0.00000057      -0.00000032      -0.00000010       0.00000444       0.00000426      -0.00000028
Se       2.27285705       1.60715208       6.64657704      -0.00293757      -0.00207642      -0.00000066
Se       5.40194922       3.81975596       6.64657688       0.00292715       0.00207266      -0.00000056
Se       4.61967598       1.60715095       5.29163924       0.00146671      -0.00207314      -0.00254045
Se       3.05512929       3.81975552       8.00151419      -0.00146633       0.00207557       0.00254019
Se       3.05512955       3.81975562       5.29163879      -0.00146353       0.00207363      -0.00253931
Se       4.61967547       1.60715170       8.00151354       0.00146820      -0.00207523       0.00254185
