9
Lattice="5.671341414167566 -2.1247022424528538e-07 3.274350569199172 1.8904470768285724 5.34699161182984 3.2743503282854602 1.4037738915249299e-08 -2.851316154136146e-07 6.548701114084194" Properties=species:S:1:pos:R:3:forces:R:3 energy=-36.17501449584961 free_energy=-36.17501449584961 stress="0.0004456682945601642 -6.893525750228946e-08 -9.567818537448147e-09 -6.893525750228946e-08 0.00044578415690921247 7.499218668272079e-08 -9.567818537448147e-09 7.499218668272079e-08 0.00044572330079972744" pbc="T T T"
Cu       1.89044730       1.33674685       3.27435053       0.00000058      -0.00000204       0.00000025
Cu       5.67134101       4.01024351       9.82305163      -0.00000111       0.00000058       0.00000010
Hf      -0.00000017       0.00000023      -0.00000019       0.00000002      -0.00000246      -0.00000046
Se       2.11007701       1.49204875       6.54870112      -0.00197010      -0.00139514       0.00000066
Se       5.45171167       3.85494150       6.54870098       0.00197203       0.00139330      -0.00000142
Se       4.61630283       1.49205028       5.10173053       0.00098658      -0.00139318      -0.00170788
Se       2.94548634       3.85494146       7.99567030      -0.00098626       0.00139689       0.00171031
Se       2.94548586       3.85494216       5.10173067      -0.00098574       0.00139533      -0.00171041
Se       4.61630219       1.49204976       7.99567244       0.00098400      -0.00139320       0.00170866
