9
Lattice="6.363675651076702 -4.1367019135893524e-08 3.674069952585188 2.121225235405441 5.999730737191129 3.6740698531981812 7.642382298699207e-08 -6.76839631654193e-08 7.348139772800417" Properties=species:S:1:pos:R:3:forces:R:3 energy=-33.1339225769043 free_energy=-33.1339225769043 stress="4.9723952542990446e-05 -8.896292591487054e-09 -6.862142409858052e-09 -8.896292591487054e-09 4.973214527126402e-05 1.3156316036599947e-08 -6.862142409858052e-09 1.3156316036599947e-08 4.9732749175745994e-05" pbc="T T T"
Cu       2.12122530       1.49993227       3.67407004      -0.00000019      -0.00000124       0.00000132
Cu       6.36367575       4.49979817      11.02220993      -0.00000040       0.00000142       0.00000173
Hf      -0.00000040       0.00000019       0.00000042       0.00000480      -0.00000029      -0.00000241
Te       2.30060685       1.62677446       7.34813974      -0.00207624      -0.00146922       0.00000019
Te       6.18429425       4.37295626       7.34813965       0.00207293       0.00146680      -0.00000002
Te       5.21337245       1.62677493       5.66645383       0.00103752      -0.00146694      -0.00179780
Te       3.27152866       4.37295580       9.02982548      -0.00103890       0.00146928       0.00179768
Te       3.27152884       4.37295577       5.66645384      -0.00103709       0.00146770      -0.00179720
Te       5.21337217       1.62677468       9.02982540       0.00103761      -0.00146757       0.00179638
