9
Lattice="5.595414072062324 -3.6807540717920106e-09 3.230513713328666 1.8651380180869264 5.275406696130047 3.2305137175957324 -2.2983715147070153e-08 -1.1025880733898734e-08 6.46102746646626" Properties=species:S:1:pos:R:3:forces:R:3 energy=-23.388736724853516 free_energy=-23.388736724853516 stress="4.810214522876777e-05 4.916510221164572e-08 -1.2486611744577658e-08 4.916510221164572e-08 4.82110699522309e-05 -1.1435367319734269e-08 -1.2486611744577658e-08 -1.1435367319734269e-08 4.810674727195874e-05" pbc="T T T"
Cu       1.86513773       1.31885229       3.23051354      -0.00000194       0.00000389      -0.00000037
Cu       5.59541430       3.95655470       9.69154124       0.00000171      -0.00000215       0.00000076
Hg      -0.00000009       0.00000124       0.00000123       0.00000051      -0.00001105      -0.00001388
S        2.08406753       1.47365841       6.46102721       0.00336598       0.00238381      -0.00000012
S        5.37648476       3.80174707       6.46102717      -0.00336045      -0.00238197      -0.00000105
S        4.55338133       1.47365812       5.03536849      -0.00168218       0.00238603       0.00291833
S        2.90717138       3.80174784       7.88668548       0.00167712      -0.00237869      -0.00290935
S        2.90717097       3.80174859       5.03536895       0.00168066      -0.00238000       0.00291581
S        4.55338035       1.47365847       7.88668626      -0.00168123       0.00238030      -0.00291001
