9
Lattice="6.305015917151965 1.0233875864869573e-07 3.6402028453955935 2.1016720535094247 5.944425808931679 3.64020287200064 2.1198077253204621e-07 1.824776390852602e-07 7.280405323629749" Properties=species:S:1:pos:R:3:forces:R:3 energy=-21.277019500732422 free_energy=-21.277019500732422 stress="-2.023343949986156e-05 -3.9806282714494046e-09 -1.4415642901610681e-08 -3.9806282714494046e-09 -2.0187973859719932e-05 -1.3039350932331217e-08 -1.4415642901610681e-08 -1.3039350932331217e-08 -2.0254510673112236e-05" pbc="T T T"
Cu       2.10167232       1.48610845       3.64020322       0.00000141       0.00000690       0.00000307
Cu       6.30501609       4.45831890      10.92060748      -0.00000065      -0.00000297      -0.00000270
Hg       0.00000022       0.00000036       0.00000018      -0.00000149      -0.00000109       0.00000200
Te       2.38423834       1.68591132       7.28040411       0.00087775       0.00062361      -0.00000184
Te       6.02245016       4.25851382       7.28040566      -0.00087638      -0.00062177       0.00000274
Te       5.11289649       1.68591187       5.70501386      -0.00043812       0.00061993       0.00075628
Te       3.29379117       4.25851457       8.85579836       0.00044115      -0.00062666      -0.00076018
Te       3.29379053       4.25851289       5.70501332       0.00043575      -0.00062451       0.00075904
Te       5.11289742       1.68591220       8.85579796      -0.00043941       0.00062652      -0.00075833
