9
Lattice="4.82938466366585 -7.788160229457277e-08 2.7882466585967713 1.6097948306225442 4.553187602687475 2.788246630604345 3.822093608630448e-08 -7.25725007094309e-09 5.576493250992914" Properties=species:S:1:pos:R:3:forces:R:3 energy=-43.673336029052734 free_energy=-43.673336029052734 stress="0.0007033281144686043 1.4118425317732886e-09 2.7055740758896718e-08 1.4118425317732886e-09 0.0007032144349068403 -3.235903633935777e-08 2.7055740758896718e-08 -3.235903633935777e-08 0.0007032312569208443" pbc="T T T"
Cu       1.60979541       1.13829628       2.78824683       0.00000511      -0.00000429       0.00000191
Cu       4.82938451       3.41489073       8.36473900      -0.00000252       0.00000150      -0.00000267
Ir      -0.00000020       0.00000013      -0.00000010      -0.00000317       0.00000708      -0.00000307
O        1.52627245       1.07923669       5.57649346      -0.00507611      -0.00358728       0.00000004
O        4.91290765       3.47395020       5.57649338       0.00507432       0.00358889       0.00000021
O        4.06624830       1.07923722       4.11003685       0.00253761      -0.00358915      -0.00439608
O        2.37293123       3.47395125       7.04294990      -0.00253424       0.00358793       0.00438869
O        2.37293053       3.47395014       4.11003688      -0.00253850       0.00358653      -0.00439107
O        4.06624818       1.07923755       7.04295000       0.00253752      -0.00359103       0.00440207
