9
Lattice="5.745191159088254 3.273046840214923e-07 3.316987947589645 1.9150640843144036 5.416618287672051 3.316987850538566 3.100817811276852e-07 1.0039809318033197e-07 6.633975358101806" Properties=species:S:1:pos:R:3:forces:R:3 energy=-27.62760353088379 free_energy=-27.62760353088379 stress="2.228454286523629e-05 -1.827684137367669e-08 -9.009698764828045e-09 -1.827684137367669e-08 2.22362759814132e-05 -5.265702984758036e-09 -9.009698764828045e-09 -5.265702984758036e-09 2.2228161469683982e-05" pbc="T T T"
Cu       1.91506332       1.35415353       3.31698855      -0.00000136      -0.00000325       0.00000160
Cu       5.74519166       4.06246482       9.95096426      -0.00000058       0.00000160       0.00000017
In      -0.00000012      -0.00000162      -0.00000123      -0.00000001       0.00001396       0.00000657
Se       2.23858359       1.58291765       6.63397493      -0.00006816      -0.00004959      -0.00000070
Se       5.42167253       3.83370332       6.63397620       0.00005979       0.00004521       0.00000052
Se       4.62589979       1.58291706       5.25565782       0.00003511      -0.00004908      -0.00005881
Se       3.03435593       3.83370191       8.01229356      -0.00002827       0.00004331       0.00005205
Se       3.03435530       3.83370156       5.25565672      -0.00003067       0.00004526      -0.00005627
Se       4.62590010       1.58291662       8.01229387       0.00003400      -0.00004742       0.00005487
