9
Lattice="5.517895593504167 4.1937634901033525e-08 3.1857582931488233 1.8392985522431342 5.202321947605262 3.1857583251296178 -2.846414576896334e-08 1.9041097949630507e-08 6.371516635598959" Properties=species:S:1:pos:R:3:forces:R:3 energy=-34.48988342285156 free_energy=-34.48988342285156 stress="0.00022070613340474665 5.409333425632212e-08 -5.311750483905087e-10 5.409333425632212e-08 0.00022066972451284528 -1.204265576149055e-08 -5.311750483905087e-10 -1.204265576149055e-08 0.00022066223027650267" pbc="T T T"
Cu       1.83929807       1.30058006       3.18575910      -0.00000019      -0.00000129       0.00000204
Cu       5.51789586       3.90174113       9.55727472       0.00000025      -0.00000085      -0.00000017
Ir      -0.00000003       0.00000025      -0.00000022      -0.00000080      -0.00000094      -0.00000009
Se       2.04224940       1.44408882       6.37151659       0.00053431       0.00037813       0.00000079
Se       5.31494435       3.75823342       6.37151693      -0.00053363      -0.00037705       0.00000109
Se       4.49677067       1.44408893       4.95439783      -0.00026857       0.00038042       0.00046458
Se       2.86042328       3.75823430       7.78863468       0.00026912      -0.00037852      -0.00046632
Se       2.86042338       3.75823304       4.95439823       0.00026760      -0.00037918       0.00046373
Se       4.49677148       1.44408805       7.78863516      -0.00026810       0.00037935      -0.00046575
