9
Lattice="4.662037490076097 -3.403125093553386e-08 2.6916287129496657 1.5540124395362132 4.395411019318622 2.6916287563736754 -4.385016456005757e-09 5.0082603789445065e-08 5.383257433494385" Properties=species:S:1:pos:R:3:forces:R:3 energy=-34.78803253173828 free_energy=-34.78803253173828 stress="-9.410921484231949e-05 -1.2602523469240623e-09 -1.9026815678557796e-08 -1.2602523469240623e-09 -9.400297130923718e-05 1.6954676551605985e-09 -1.9026815678557796e-08 1.6954676551605985e-09 -9.403495641890913e-05" pbc="T T T"
Cu       1.55401303       1.09885263       2.69162846       0.00000310      -0.00000127      -0.00000092
Cu       4.66203672       3.29655809       8.07488683      -0.00000384      -0.00000047       0.00000825
In       0.00000032      -0.00000002       0.00000068      -0.00000138       0.00000039      -0.00000361
O        1.70537733       1.20588378       5.38325706      -0.00129658      -0.00091793      -0.00000100
O        4.51067244       3.18952731       5.38325646       0.00129882       0.00091900      -0.00000466
O        3.80934859       1.20588392       4.16852903       0.00064871      -0.00091650      -0.00112472
O        2.40670111       3.18952712       6.59798616      -0.00064902       0.00091502       0.00112504
O        2.40670169       3.18952730       4.16852896      -0.00064605       0.00091882      -0.00112465
O        3.80934849       1.20588400       6.59798604       0.00064635      -0.00091721       0.00112616
