9
Lattice="5.32092013008267 1.2611540338282752e-07 3.072034720647317 1.7736400967406116 5.016611972687877 3.072034834136508 -2.8659845600123813e-08 1.1872974216920531e-07 6.144069490934941" Properties=species:S:1:pos:R:3:forces:R:3 energy=-36.528873443603516 free_energy=-36.528873443603516 stress="-0.0002743163495324552 -1.950392070071416e-09 1.0210384537856498e-08 -1.950392070071416e-09 -0.0002743887307588011 1.5367829675483335e-08 1.0210384537856498e-08 1.5367829675483335e-08 -0.0002743671939242631" pbc="T T T"
Cu       1.77364129       1.25415297       3.07203433       0.00000387      -0.00000055      -0.00000168
Cu       5.32091992       3.76245908       9.21610457       0.00000077       0.00000016       0.00000036
Ir       0.00000180       0.00000002      -0.00000095       0.00001505       0.00000009      -0.00000592
S        1.86863400       1.32132370       6.14406943      -0.00088876      -0.00062847      -0.00000045
S        5.22592507       3.69528822       6.14406880       0.00088108       0.00062650      -0.00000207
S        4.38660256       1.32132422       4.69031990       0.00043908      -0.00062725      -0.00076407
S        2.70795687       3.69528789       7.59782022      -0.00044572       0.00062555       0.00077051
S        2.70795719       3.69528834       4.69031970      -0.00044465       0.00062752      -0.00076610
S        4.38660227       1.32132455       7.59782018       0.00043926      -0.00062370       0.00076950
