9
Lattice="5.6348844417113515 4.002118063707563e-08 3.253302203294012 1.878294835558445 5.312620422113241 3.2533022311412587 -8.499224114954991e-08 -2.5992769962773573e-08 6.506604553798877" Properties=species:S:1:pos:R:3:forces:R:3 energy=-35.120765686035156 free_energy=-35.120765686035156 stress="2.406733756288304e-06 2.1546540551753424e-08 -3.979898188788411e-09 2.1546540551753424e-08 2.357576477152179e-06 2.2583947156817885e-08 -3.979898188788411e-09 2.2583947156817885e-08 2.33895298151765e-06" pbc="T T T"
Cu       1.87829454       1.32815492       3.25330235      -0.00000194      -0.00000047       0.00000103
Cu       5.63488446       3.98446539       9.75990705       0.00000104       0.00000008       0.00000054
Mn       0.00000014       0.00000017      -0.00000077      -0.00000468      -0.00000393       0.00001752
Se       1.90738303       1.34872351       6.50660415       0.00250587       0.00177234      -0.00000073
Se       5.60579577       3.96389686       6.50660417      -0.00250122      -0.00176913      -0.00000007
Se       4.68119307       1.34872350       4.90514446      -0.00125025       0.00176793       0.00216568
Se       2.83198573       3.96389727       8.10806505       0.00125547      -0.00177526      -0.00217417
Se       2.83198648       3.96389702       4.90514447       0.00125135      -0.00176838       0.00216535
Se       4.68119355       1.34872316       8.10806495      -0.00125559       0.00177678      -0.00217551
