9
Lattice="5.497922570528313 -8.692578288952885e-08 3.174226883478309 1.8326408249992898 5.183490714174789 3.174226796683672 8.486081496711034e-08 -4.6295701950216655e-08 6.348453619973356" Properties=species:S:1:pos:R:3:forces:R:3 energy=-26.903039932250977 free_energy=-26.903039932250977 stress="-6.90213855705224e-05 9.478133833340507e-09 -3.296241857242421e-08 9.478133833340507e-09 -6.90260058036074e-05 -1.098141688693488e-09 -3.296241857242421e-08 -1.098141688693488e-09 -6.898490391904488e-05" pbc="T T T"
Cu       1.83264030       1.29587277       3.17422721      -0.00000127      -0.00000015       0.00000101
Cu       5.49792304       3.88761798       9.52268030       0.00000124       0.00000085      -0.00000098
Mg       0.00000021      -0.00000015      -0.00000023      -0.00000072      -0.00000009       0.00000193
S        1.99167929       1.40832969       6.34845392       0.00195001       0.00138175       0.00000284
S        5.33888409       3.77516067       6.34845415      -0.00195143      -0.00138097       0.00000121
S        4.50208254       1.40832965       4.89907168      -0.00097437       0.00137733       0.00168994
S        2.82848033       3.77516148       7.79783518       0.00097501      -0.00137941      -0.00169267
S        2.82848035       3.77516087       4.89907173       0.00097343      -0.00137974       0.00168984
S        4.50208384       1.40832931       7.79783524      -0.00097196       0.00138039      -0.00169315
