9
Lattice="6.233427800019963 1.6981804637219462e-07 3.598871254333887 2.0778095104696708 5.876931548598593 3.5988711093779897 2.77832323703757e-07 1.8923121699017267e-08 7.197742027447958" Properties=species:S:1:pos:R:3:forces:R:3 energy=-23.561779022216797 free_energy=-23.561779022216797 stress="6.519060116261244e-05 2.0740449357958823e-08 -5.53402195180297e-08 2.0740449357958823e-08 6.536430737469345e-05 -1.4366683842581551e-08 -5.53402195180297e-08 -1.4366683842581551e-08 6.51640584692359e-05" pbc="T T T"
Cu       2.07780980       1.46923390       3.59887120      -0.00000046       0.00000805       0.00000245
Cu       6.23342826       4.40769684      10.79661054       0.00000151      -0.00000905      -0.00000793
Mg       0.00000087       0.00000060      -0.00000026      -0.00000789      -0.00000193       0.00000358
Te       2.34519853       1.65830740       7.19774155      -0.00257596      -0.00181361      -0.00000360
Te       5.96603787       4.21862431       7.19774394       0.00258010       0.00181832       0.00000733
Te       5.06082884       1.65830731       5.62987295       0.00128916      -0.00181809      -0.00223266
Te       3.25040872       4.21862482       8.76561259      -0.00128536       0.00181401       0.00223008
Te       3.25040757       4.21862370       5.62987250      -0.00129200       0.00181351      -0.00223215
Te       5.06082995       1.65830809       8.76561258       0.00129090      -0.00181124       0.00223284
