9
Lattice="4.595510255807795 1.1454718900819357e-07 2.6532193905407953 1.5318368809657639 4.332688052034158 2.653219354109421 8.042283825965653e-08 1.2248338189241115e-08 5.3064386417851965" Properties=species:S:1:pos:R:3:forces:R:3 energy=-44.667579650878906 free_energy=-44.667579650878906 stress="6.0138831031508744e-05 2.9112038646417204e-07 6.91960622134502e-08 2.9112038646417204e-07 6.030690929037519e-05 1.0051352461459828e-07 6.91960622134502e-08 1.0051352461459828e-07 6.0001781093887985e-05" pbc="T T T"
Cu       1.53183717       1.08317287       2.65321903       0.00000499       0.00000529      -0.00000335
Cu       4.59551123       3.24951584       7.95965906       0.00000934      -0.00000280       0.00000807
Mo       0.00000076       0.00000004      -0.00000089      -0.00000573       0.00000093       0.00000708
O        1.56948231       1.10979268       5.30643904      -0.00710654      -0.00501972       0.00000264
O        4.55786395       3.22289599       5.30643839       0.00710618       0.00502598       0.00000016
O        3.81076895       1.10979259       4.01243119       0.00354677      -0.00501740      -0.00614846
O        2.31657753       3.22289640       6.60044602      -0.00354785       0.00500911       0.00614095
O        2.31657800       3.22289555       4.01243135      -0.00355166       0.00501716      -0.00614846
O        3.81076903       1.10979100       6.60044598       0.00354385      -0.00501847       0.00614154
