9
Lattice="4.576865129654479 -5.340100406430556e-08 2.6424542269708122 1.5256217032596235 4.315109554790335 2.642454151242541 1.180298558411033e-07 -9.288102907788034e-09 5.28490824950792" Properties=species:S:1:pos:R:3:forces:R:3 energy=-48.56776428222656 free_energy=-48.56776428222656 stress="-7.310634828172624e-05 -1.4883154619838024e-07 7.384810984945034e-09 -1.4883154619838024e-07 -7.281072612386197e-05 7.401341406421125e-08 7.384810984945034e-09 7.401341406421125e-08 -7.267913315445185e-05" pbc="T T T"
Cu       1.52562164       1.07877738       2.64245405       0.00000213      -0.00000135       0.00000156
Cu       4.57686519       3.23633207       7.92736229       0.00000176      -0.00000046       0.00000190
Mn      -0.00000035       0.00000015      -0.00000000       0.00004286      -0.00002210       0.00002213
O        1.53582532       1.08599286       5.28490847       0.00060463       0.00042057       0.00000249
O        4.56666187       3.22911708       5.28490828      -0.00063944      -0.00045776       0.00000665
O        3.80895235       1.08599230       3.97251786      -0.00030297       0.00043917       0.00054252
O        2.29353448       3.22911719       6.59729872       0.00030959      -0.00042450      -0.00052488
O        2.29353467       3.22911699       3.97251794       0.00029534      -0.00041068       0.00050688
O        3.80895260       1.08599199       6.59729889      -0.00031543       0.00045753      -0.00055850
