9
Lattice="5.633981090688216 -4.529497668854847e-08 3.2527804702988514 1.8779937446128818 5.3117677560369465 3.252780313684474 8.45511246851042e-08 -1.320259641038817e-07 6.505560794150812" Properties=species:S:1:pos:R:3:forces:R:3 energy=-35.120765686035156 free_energy=-35.120765686035156 stress="-0.00011322349746478721 2.4222009287200308e-08 5.50278667077464e-09 2.4222009287200308e-08 -0.00011319627810735255 5.250099244236139e-10 5.50278667077464e-09 5.250099244236139e-10 -0.00011325779632898048" pbc="T T T"
Cu       1.87799381       1.32794262       3.25278003      -0.00000001       0.00000201      -0.00000131
Cu       5.63398086       3.98382495       9.75834060      -0.00000205      -0.00000234      -0.00000183
Mn      -0.00000000      -0.00000027       0.00000003       0.00000038       0.00000505      -0.00000043
Se       1.90731701       1.34867667       6.50556107       0.00320876       0.00226966      -0.00000031
Se       5.60465815       3.96309078       6.50556101      -0.00321093      -0.00227115      -0.00000022
Se       4.68032271       1.34867674       4.90456534      -0.00160541       0.00227028       0.00278059
Se       2.83165258       3.96309062       8.10655654       0.00160716      -0.00227222      -0.00278085
Se       2.83165213       3.96309110       4.90456504       0.00160661      -0.00227213       0.00278288
Se       4.68032245       1.34867711       8.10655666      -0.00160471       0.00227088      -0.00277844
