9
Lattice="5.913692832915117 -1.0653747148806569e-07 3.414271917934644 1.9712305695542662 5.575484416410601 3.414272393047064 -1.1400036751718006e-07 5.012808892322897e-07 6.8285440333237055" Properties=species:S:1:pos:R:3:forces:R:3 energy=-31.780006408691406 free_energy=-31.780006408691406 stress="-3.923428266716655e-06 -2.7364349008962563e-08 -3.857068264778718e-08 -2.7364349008962563e-08 -3.983047463407274e-06 9.641484410849444e-08 -3.857068264778718e-08 9.641484410849444e-08 -3.7919812712061685e-06" pbc="T T T"
Cu       1.97122817       1.39387040       3.41427286      -0.00000862      -0.00000503       0.00000165
Cu       5.91369569       4.18161322      10.24281379       0.00001494       0.00000149      -0.00000797
Mn       0.00000137       0.00000080      -0.00000036      -0.00000966      -0.00000769       0.00000075
Te       2.05262684       1.45142519       6.82854520       0.00124791       0.00087675       0.00000271
Te       5.83229814       4.12405835       6.82854560      -0.00123796      -0.00087845       0.00000457
Te       4.88737873       1.45142563       5.19189884      -0.00061825       0.00087376       0.00107251
Te       2.99754180       4.12405981       8.46518745       0.00061268      -0.00086854      -0.00107533
Te       2.99754096       4.12405911       5.19189998       0.00061588      -0.00087644       0.00107978
Te       4.88738126       1.45142617       8.46518964      -0.00061695       0.00088415      -0.00107892
