9
Lattice="5.441685885136981 1.2511567881993608e-08 3.1417587581959636 1.8138953213611229 5.1304704056036625 3.141758733047638 4.1450404030224485e-08 -1.490510446436309e-09 6.283517444597816" Properties=species:S:1:pos:R:3:forces:R:3 energy=-39.879539489746094 free_energy=-39.879539489746094 stress="8.226107638620306e-06 2.8577632704696043e-08 1.4782813195779454e-08 2.8577632704696043e-08 8.223275472118985e-06 -2.371724328043001e-08 1.4782813195779454e-08 -2.371724328043001e-08 8.213519322453067e-06" pbc="T T T"
Cu       1.81389450       1.28261761       3.14175962      -0.00000339       0.00000037       0.00000291
Cu       5.44168642       3.84785269       9.42527674       0.00000192      -0.00000039       0.00000107
Mo      -0.00000029       0.00000036      -0.00000080       0.00000302       0.00000048       0.00001027
S        1.87068802       1.32277626       6.28351751      -0.00019994      -0.00013952       0.00000248
S        5.38489347       3.80769373       6.28351720       0.00019853       0.00013827       0.00000225
S        4.50634152       1.32277617       4.76182205       0.00010025      -0.00014313      -0.00017372
S        2.74923894       3.80769518       7.80521300      -0.00009579       0.00013515       0.00016370
S        2.74923995       3.80769398       4.76182176      -0.00010157       0.00014415      -0.00017495
S        4.50634247       1.32277568       7.80521271       0.00009679      -0.00013539       0.00016591
