9
Lattice="5.378311702221374 -8.192049285682439e-08 3.1051692643572335 1.7927705139795496 5.070720586258479 3.105169223120839 4.83718220043425e-09 -4.708367610907584e-08 6.210338520336208" Properties=species:S:1:pos:R:3:forces:R:3 energy=-37.607967376708984 free_energy=-37.607967376708984 stress="-0.00019971915753558278 -1.0476939316106382e-08 -3.369528545071887e-10 -1.0476939316106382e-08 -0.00019968178821727633 -2.0943090817127086e-08 -3.369528545071887e-10 -2.0943090817127086e-08 -0.00019970715220551938" pbc="T T T"
Cu       1.79277074       1.26767954       3.10516876       0.00000137      -0.00000222      -0.00000097
Cu       5.37831122       3.80304057       9.31550686      -0.00000274       0.00000156      -0.00000232
Mn       0.00000010       0.00000070      -0.00000112       0.00000039      -0.00001154       0.00001365
S        1.81185480       1.28117433       6.21033838       0.00493509       0.00348771       0.00000101
S        5.35922670       3.78954566       6.21033880      -0.00492656      -0.00348258       0.00000172
S        4.47238389       1.28117508       4.67428154      -0.00246447       0.00348359       0.00426859
S        2.69869822       3.78954578       7.74639594       0.00246701      -0.00348896      -0.00426912
S        2.69869859       3.78954535       4.67428228       0.00245956      -0.00347856       0.00426227
S        4.47238465       1.28117483       7.74639625      -0.00246939       0.00349134      -0.00427496
