9
Lattice="5.7565378628279005 -1.5473734858535305e-08 3.323538601306664 1.9188459460829232 5.4273160113971475 3.3235385902289583 -3.2768603608689803e-08 -3.6738264476465826e-08 6.647077259370221" Properties=species:S:1:pos:R:3:forces:R:3 energy=-36.91939163208008 free_energy=-36.91939163208008 stress="-2.4095375920296647e-05 5.983761752759165e-08 1.2675886118529434e-08 5.983761752759165e-08 -2.41375710174907e-05 -1.5952348775272185e-08 1.2675886118529434e-08 -1.5952348775272185e-08 -2.4136337742675096e-05" pbc="T T T"
Cu       1.91884522       1.35682911       3.32353885      -0.00000248       0.00000016       0.00000025
Cu       5.75653771       4.07048698       9.97061699      -0.00000024       0.00000014       0.00000476
Mo      -0.00000035      -0.00000051      -0.00000052       0.00000508       0.00000636       0.00001217
Se       1.96873759       1.39210744       6.64707748       0.00050455       0.00035653       0.00000119
Se       5.70664686       4.03520844       6.64707681      -0.00051111      -0.00036357      -0.00000098
Se       4.77216920       1.39210762       5.02851481      -0.00025322       0.00035884       0.00043903
Se       2.90321444       4.03520896       8.26563941       0.00025930      -0.00036496      -0.00044935
Se       2.90321485       4.03520848       5.02851472       0.00025459      -0.00035787       0.00043937
Se       4.77216956       1.39210728       8.26563930      -0.00025643       0.00036442      -0.00044646
