9
Lattice="5.572047336721996 1.2669211401606782e-07 3.2170235567188117 1.857349223571196 5.2533767290336835 3.217023570775884 3.078192473539713e-07 2.3487749845307318e-07 6.434046580278934" Properties=species:S:1:pos:R:3:forces:R:3 energy=-26.89417839050293 free_energy=-26.89417839050293 stress="3.5227341868449e-05 -4.080417781437973e-08 -1.2050445263867005e-07 -4.080417781437973e-08 3.52675087924581e-05 -8.190319533696311e-08 -1.2050445263867005e-07 -8.190319533696311e-08 3.5133321944158524e-05" pbc="T T T"
Cu       1.85734935       1.31334481       3.21702448       0.00000088       0.00000194       0.00000401
Cu       5.57204812       3.94003224       9.65106807       0.00000062      -0.00000232      -0.00000638
Mg       0.00000015       0.00000038      -0.00000013      -0.00000433      -0.00000121      -0.00000195
Se       2.13785645       1.51169361       6.43404474       0.00139959       0.00099532      -0.00000833
Se       5.29154018       3.74168206       6.43404827      -0.00139760      -0.00098919      -0.00000046
Se       4.50311897       1.51169305       5.06846307      -0.00070027       0.00099031       0.00121077
Se       2.92627970       3.74168397       7.79963292       0.00070536      -0.00098984      -0.00121313
Se       2.92627594       3.74168293       5.06846147       0.00069593      -0.00099526       0.00121878
Se       4.50311862       1.51169533       7.79963203      -0.00070016       0.00099036      -0.00120328
