9
Lattice="4.5034881571155605 -2.6474167850225924e-08 2.6000901091118513 1.5011626873175947 4.245929370126589 2.600090120822007 -7.835342206851992e-08 -4.106230068342912e-08 5.200180353935768" Properties=species:S:1:pos:R:3:forces:R:3 energy=-35.10023880004883 free_energy=-35.10023880004883 stress="-0.00038011150900274515 -6.341554836808427e-08 -4.9107296007377954e-08 -6.341554836808427e-08 -0.0003802337741944939 -6.14318267366798e-08 -4.9107296007377954e-08 -6.14318267366798e-08 -0.0003802103456109762" pbc="T T T"
Cu       1.50116145       1.06148245       2.60009006      -0.00001256       0.00000137      -0.00000039
Cu       4.50348923       3.18444596       7.80027103       0.00000817      -0.00000993       0.00000366
Mg      -0.00000035       0.00000022      -0.00000012       0.00000450      -0.00000114       0.00000134
O        1.58762732       1.12262291       5.20018052      -0.00380908      -0.00268623       0.00000069
O        4.41702328       3.12330661       5.20018010       0.00380392       0.00268634      -0.00000208
O        3.70967507       1.12262229       3.97501584       0.00190677      -0.00268441      -0.00329015
O        2.29497590       3.12330739       6.42534431      -0.00190363       0.00269076       0.00328979
O        2.29497622       3.12330707       3.97501598      -0.00190369       0.00268968      -0.00329462
O        3.70967492       1.12262232       6.42534460       0.00190569      -0.00268634       0.00329193
