9
Lattice="5.378136377300462 -1.366164410988661e-07 3.10506877741995 1.7927119874504152 5.07055548410724 3.1050687938972055 -6.998863756225764e-08 -2.9308976079006744e-08 6.210137676063794" Properties=species:S:1:pos:R:3:forces:R:3 energy=-37.60797119140625 free_energy=-37.60797119140625 stress="-0.00015212020662147552 -1.0034250408352818e-07 -1.1590293169660981e-08 -1.0034250408352818e-07 -0.00015208810509648174 3.1966646218961614e-08 -1.1590293169660981e-08 3.1966646218961614e-08 -0.00015201677160803229" pbc="T T T"
Cu       1.79271269       1.26763905       3.10506877       0.00000231       0.00000192       0.00000005
Cu       5.37813629       3.80291644       9.31520535      -0.00000008      -0.00000031      -0.00000396
Mn      -0.00000005       0.00000000       0.00000098       0.00000288      -0.00000158      -0.00001377
S        1.81198313       1.28126585       6.21013764       0.00205529       0.00145367      -0.00000090
S        5.35886527       3.78928984       6.21013819      -0.00205743      -0.00145504      -0.00000014
S        4.47214425       1.28126540       4.67429243      -0.00102895       0.00145277       0.00177938
S        2.69870440       3.78928899       7.74598225       0.00102109      -0.00144446      -0.00176775
S        2.69870330       3.78928948       4.67429276       0.00102761      -0.00145468       0.00177884
S        4.47214399       1.28126626       7.74598254      -0.00102317       0.00144765      -0.00177187
