9
Lattice="4.576915627292746 -3.431658285497248e-08 2.642483592491589 1.5256384434960568 4.315157543676728 2.6424837078130468 6.381794727649501e-09 1.457519910552159e-07 5.284967173929566" Properties=species:S:1:pos:R:3:forces:R:3 energy=-48.56782531738281 free_energy=-48.56782531738281 stress="3.951257895096205e-05 2.543837922530656e-07 4.575379932703072e-07 2.543837922530656e-07 3.897680653608404e-05 -2.1024118268542225e-07 4.575379932703072e-07 -2.1024118268542225e-07 3.9098125853342935e-05" pbc="T T T"
Cu       1.52563851       1.07878946       2.64248361       0.00000080      -0.00000050      -0.00000253
Cu       4.57691560       3.23636840       7.92745080      -0.00000099      -0.00000039      -0.00000295
Mn      -0.00000020       0.00000012       0.00000050       0.00002664      -0.00001989      -0.00004594
O        1.53583318       1.08599799       5.28496727       0.00013793       0.00010026      -0.00001288
O        4.56672125       3.22915996       5.28496752      -0.00016868      -0.00012422       0.00000068
O        3.80899918       1.08599776       3.97255357      -0.00009906       0.00014222       0.00016820
O        2.29355489       3.22915934       6.59738027       0.00007468      -0.00008202      -0.00011528
O        2.29355488       3.22915955       3.97255405       0.00008774      -0.00012112       0.00013912
O        3.80899913       1.08599801       6.59738023      -0.00005883       0.00010550      -0.00012815
