9
Lattice="5.9140442389663415 3.182134344302419e-07 3.4144751049162227 1.97134833629518 5.57581603053765 3.4144751800435005 3.8945009718633117e-07 3.6739466074780163e-07 6.828949535284972" Properties=species:S:1:pos:R:3:forces:R:3 energy=-31.780000686645508 free_energy=-31.780000686645508 stress="4.2784955439856276e-05 5.437217343029488e-09 4.331864200679547e-09 5.437217343029488e-09 4.276428808225319e-05 -6.101437577399338e-08 4.331864200679547e-09 -6.101437577399338e-08 4.276833715266548e-05" pbc="T T T"
Cu       1.97134902       1.39395465       3.41447437       0.00000422       0.00000724      -0.00000167
Cu       5.91404372       4.18186086      10.24342331      -0.00000430      -0.00000914      -0.00000343
Mn       0.00000090       0.00000013       0.00000214      -0.00000742      -0.00000090      -0.00001676
Te       2.05267221       1.45145997       6.82894890       0.00143600       0.00101453      -0.00000056
Te       5.83272143       4.12435658       6.82894898      -0.00143084      -0.00101332      -0.00000202
Te       4.88770793       1.45145960       5.19213980      -0.00072169       0.00101815       0.00124685
Te       2.99768471       4.12435643       8.46575978       0.00071885      -0.00101553      -0.00123826
Te       2.99768342       4.12435686       5.19214157       0.00071856      -0.00101629       0.00125036
Te       4.88770871       1.45146178       8.46576025      -0.00071338       0.00101522      -0.00123429
