9
Lattice="5.893553127263072 -3.1719199243534563e-07 3.4026438976485904 1.9645173750075842 5.556493781415154 3.402643958319911 2.218103588882234e-07 2.3115044807227405e-07 6.805287411110277" Properties=species:S:1:pos:R:3:forces:R:3 energy=-28.63308334350586 free_energy=-28.63308334350586 stress="0.0002227430377388373 -3.8195725693412896e-08 -1.5509172612837574e-08 -3.8195725693412896e-08 0.0002227528893854469 9.491301966590981e-09 -1.5509172612837574e-08 9.491301966590981e-09 0.0002228047960670665" pbc="T T T"
Cu       1.96452110       1.38912112       3.40264383       0.00001842      -0.00001328       0.00000065
Cu       5.89354999       4.16737168      10.20793180      -0.00001706       0.00000939       0.00000084
Ni      -0.00000073       0.00000023       0.00000024       0.00000598       0.00000030      -0.00000168
Te       2.06465845       1.45992941       6.80528832       0.00617735       0.00435851       0.00000129
Te       5.79341277       4.09656437       6.80528847      -0.00618109      -0.00436208       0.00000164
Te       4.86122236       1.45993231       5.19068696      -0.00309254       0.00436540       0.00534118
Te       2.99684822       4.09656188       8.41988662       0.00308955      -0.00435990      -0.00534199
Te       2.99684821       4.09656219       5.19068742       0.00309197      -0.00436344       0.00534390
Te       4.86122249       1.45993156       8.41988753      -0.00309267       0.00436525      -0.00534603
