9
Lattice="4.447399159130243 9.619092177261927e-08 2.5677069590449837 1.4824664531855503 4.193048086788919 2.567707000407876 -5.695437890373893e-08 1.0386198591483405e-08 5.135414016737835" Properties=species:S:1:pos:R:3:forces:R:3 energy=-35.368804931640625 free_energy=-35.368804931640625 stress="-4.019902189611457e-05 2.039173629952984e-08 -3.8861909246179493e-08 2.039173629952984e-08 -4.0251405152957886e-05 2.547950650466646e-08 -3.8861909246179493e-08 2.547950650466646e-08 -4.024851295980625e-05" pbc="T T T"
Cu       1.48246726       1.04826199       2.56770690       0.00000849      -0.00000017      -0.00000128
Cu       4.44740096       3.14478635       7.70312035       0.00001302       0.00000277      -0.00000754
Ni      -0.00000002       0.00000002      -0.00000073      -0.00000570       0.00000240       0.00001674
O        1.47047827       1.03978526       5.13541432       0.00035040       0.00025091       0.00000028
O        4.45938695       3.15326338       5.13541390      -0.00035381      -0.00024626       0.00000058
O        3.71215932       1.03978495       3.84117884      -0.00017653       0.00024259       0.00030053
O        2.21770520       3.15326246       6.42964962       0.00017469      -0.00025493      -0.00031030
O        2.21770425       3.15326307       3.84117875       0.00017048      -0.00025128       0.00031048
O        3.71215993       1.03978513       6.42964995      -0.00018100       0.00025398      -0.00030957
