9
Lattice="5.891968189609534 1.805507583300866e-07 3.401729605471268 1.9639895090550028 5.55500176853359 3.4017297054216926 -3.035173877911351e-08 1.0095186275806196e-07 6.803459263513287" Properties=species:S:1:pos:R:3:forces:R:3 energy=-28.633129119873047 free_energy=-28.633129119873047 stress="3.0498082196572796e-05 8.421438657535418e-09 -3.250816860145278e-08 8.421438657535418e-09 3.050110535696149e-05 1.2638500912487416e-08 -3.250816860145278e-08 1.2638500912487416e-08 3.0513083402183838e-05" pbc="T T T"
Cu       1.96398766       1.38875160       3.40173000      -0.00000744       0.00000411       0.00000092
Cu       5.89196936       4.16625128      10.20518779       0.00000496      -0.00000194      -0.00000373
Ni       0.00000019       0.00000037      -0.00000021      -0.00000316      -0.00000172      -0.00000099
Te       2.06503756       1.46020310       6.80345974      -0.00064325      -0.00045467      -0.00000015
Te       5.79092013       4.09479800       6.80346059       0.00064842       0.00045438       0.00000281
Te       4.85945005       1.46020256       5.19010558       0.00032154      -0.00045519      -0.00055669
Te       2.99650770       4.09479920       8.41681293      -0.00032377       0.00045691       0.00055677
Te       2.99650719       4.09479900       5.19010499      -0.00032321       0.00045259      -0.00055566
Te       4.85945076       1.46020304       8.41681280       0.00032584      -0.00045439       0.00055677
