9
Lattice="5.410346307035583 4.238952673546163e-08 3.1236650530016536 1.8034488560524533 5.100923436143344 3.1236649714646045 6.414945302455161e-08 -5.450154036902175e-08 6.2473299948931915" Properties=species:S:1:pos:R:3:forces:R:3 energy=-40.17156982421875 free_energy=-40.17156982421875 stress="2.738567673077341e-05 8.233988069150655e-08 2.8674035590370295e-08 8.233988069150655e-08 2.73062087217113e-05 -6.411957542695745e-08 2.8674035590370295e-08 -6.411957542695745e-08 2.7247444450040348e-05" pbc="T T T"
Cu       1.80344936       1.27523105       3.12366502       0.00000135      -0.00000098       0.00000017
Cu       5.41034583       3.82569328       9.37099513      -0.00000133       0.00000185       0.00000023
Nb      -0.00000027      -0.00000013      -0.00000088       0.00000309       0.00000282       0.00001288
S        1.92169306       1.35884174       6.24733016      -0.00140402      -0.00099310       0.00000071
S        5.29210261       3.74208175       6.24733019       0.00139737       0.00098681       0.00000028
S        4.44950003       1.35884147       4.78789930       0.00069955      -0.00098725      -0.00121008
S        2.76429497       3.74208195       7.70676087      -0.00069350       0.00098173       0.00120261
S        2.76429510       3.74208156       4.78789943      -0.00069965       0.00099111      -0.00121328
S        4.44950021       1.35884106       7.70676088       0.00069727      -0.00098306       0.00120661
