9
Lattice="5.27076030970885 -8.6453099648277e-08 3.0430749755930084 1.7569200745737914 4.96932022568006 3.0430748840604496 -4.2545434805445715e-08 -1.421881441920966e-07 6.086150024876911" Properties=species:S:1:pos:R:3:forces:R:3 energy=-33.285926818847656 free_energy=-33.285926818847656 stress="-7.90232024883153e-06 4.046043944327948e-09 1.6157832405383488e-08 4.046043944327948e-09 -7.85540760261938e-06 -1.0817871043400373e-08 1.6157832405383488e-08 -1.0817871043400373e-08 -7.913085937616415e-06" pbc="T T T"
Cu       1.75691999       1.24232943       3.04307511       0.00000009      -0.00000203      -0.00000008
Cu       5.27075916       3.72699005       9.12922589      -0.00000404      -0.00000038       0.00000304
Ni       0.00000005      -0.00000013      -0.00000020      -0.00000180       0.00000453      -0.00000195
S        1.75692246       1.24233125       6.08615042       0.00012410       0.00008643       0.00000175
S        5.27075797       3.72698863       6.08614935      -0.00012359      -0.00008628      -0.00000163
S        4.39229926       1.24233195       4.56461376      -0.00006168       0.00008750       0.00010440
S        2.63538147       3.72698870       7.60768552       0.00006321      -0.00008756      -0.00010771
S        2.63538156       3.72698864       4.56461394       0.00006282      -0.00008768       0.00010642
S        4.39229928       1.24233152       7.60768552      -0.00005938       0.00008556      -0.00010398
