9
Lattice="4.44754122052617 -2.087175752905231e-07 2.5677892281737305 1.4825135465187878 4.193181712260467 2.5677892227623453 3.4848044671409556e-08 1.8013763704841694e-08 5.135578395988784" Properties=species:S:1:pos:R:3:forces:R:3 energy=-35.368804931640625 free_energy=-35.368804931640625 stress="-2.3226497432915494e-05 -5.412133674553843e-08 4.8870512081578e-09 -5.412133674553843e-08 -2.3108383174985647e-05 -5.80430103980234e-08 4.8870512081578e-09 -5.80430103980234e-08 -2.3107362721930258e-05" pbc="T T T"
Cu       1.48251116       1.04829650       2.56779129      -0.00002090       0.00000639       0.00001589
Cu       4.44754416       3.14488467       7.70336396       0.00002374      -0.00000992      -0.00002763
Ni      -0.00000015      -0.00000005       0.00000033       0.00000287       0.00000424      -0.00001142
O        1.47046119       1.03977396       5.13557794       0.00105715       0.00075668      -0.00000363
O        4.45959378       3.15340790       5.13558015      -0.00106230      -0.00075836       0.00001188
O        3.71231025       1.03977293       3.84124679      -0.00052871       0.00074910       0.00092185
O        2.21774387       3.15340873       6.42990999       0.00052706      -0.00074647      -0.00091712
O        2.21774261       3.15340750       3.84124727       0.00051534      -0.00075299       0.00092384
O        3.71231221       1.03977405       6.42990965      -0.00051408       0.00075111      -0.00091374
