9
Lattice="5.385132907529692 -9.7170695201006e-08 3.1091080372550293 1.795044240745283 5.077152108430933 3.109107985555473 9.962348790112598e-08 7.125723615891842e-09 6.2182159019571115" Properties=species:S:1:pos:R:3:forces:R:3 energy=-31.371341705322266 free_energy=-31.371341705322266 stress="2.1495059627341107e-05 1.8597468454117916e-08 -9.920712029654055e-10 1.8597468454117916e-08 2.148039493476972e-05 1.1180787851117202e-08 -9.920712029654055e-10 1.1180787851117202e-08 2.142686389561277e-05" pbc="T T T"
Cu       1.79504475       1.26928882       3.10910731       0.00000137       0.00000223      -0.00000166
Cu       5.38513280       3.80786324       9.32732476      -0.00000033      -0.00000243       0.00000156
Ni       0.00000017      -0.00000011       0.00000005      -0.00000039      -0.00000056       0.00000031
Se       1.92814880       1.36340737       6.21821599       0.00267857       0.00189391      -0.00000009
Se       5.25202807       3.71374466       6.21821535      -0.00267833      -0.00189345      -0.00000173
Se       4.42105861       1.36340740       4.77893352      -0.00133863       0.00189391       0.00231966
Se       2.75911868       3.71374437       7.65749831       0.00133920      -0.00189433      -0.00231880
Se       2.75911862       3.71374499       4.77893376       0.00133817      -0.00189312       0.00231978
Se       4.42105840       1.36340738       7.65749863      -0.00133963       0.00189379      -0.00231905
