9
Lattice="5.272138524310743 1.7619009322698814e-07 3.0438705601245926 1.757379605478338 4.970620086392939 3.0438706791837773 -3.927693751138758e-08 1.1804412677176833e-07 6.087741188278771" Properties=species:S:1:pos:R:3:forces:R:3 energy=-33.28590774536133 free_energy=-33.28590774536133 stress="8.873161277733743e-05 2.933083464995434e-08 -2.298173562564898e-08 2.933083464995434e-08 8.868463191902265e-05 6.443235633923905e-08 -2.298173562564898e-08 6.443235633923905e-08 8.86836860445328e-05" pbc="T T T"
Cu       1.75737942       1.24265560       3.04387080       0.00000011       0.00000213       0.00000082
Cu       5.27213896       3.72796467       9.13161124       0.00000172      -0.00000195      -0.00000382
Ni       0.00000009      -0.00000002       0.00000002      -0.00000653      -0.00000142       0.00000352
S        1.75671987       1.24218898       6.08774104       0.00781256       0.00552520      -0.00000110
S        5.27279806       3.72843080       6.08774166      -0.00780544      -0.00552174       0.00000204
S        4.39377846       1.24218921       4.56523484      -0.00390515       0.00552201       0.00676265
S        2.63573954       3.72843167       7.61024777       0.00390571      -0.00552443      -0.00676599
S        2.63573903       3.72843159       4.56523475       0.00390588      -0.00552708       0.00676900
S        4.39377893       1.24218897       7.61024789      -0.00390871       0.00552726      -0.00676751
