9
Lattice="6.2410557761398735 2.729655516968515e-08 3.6032752423331504 2.0803518460209234 5.884123889242005 3.6032754243621428 -9.811106331379664e-08 1.535640889599086e-07 7.206550654599615" Properties=species:S:1:pos:R:3:forces:R:3 energy=-32.99233627319336 free_energy=-32.99233627319336 stress="1.373709073959617e-05 -2.3805649007613283e-08 -1.2493257095513854e-08 -2.3805649007613283e-08 1.3776691048406065e-05 2.1170349917554176e-09 -1.2493257095513854e-08 2.1170349917554176e-09 1.3786013369099237e-05" pbc="T T T"
Cu       2.08035117       1.47103081       3.60327568      -0.00000287      -0.00000013       0.00000160
Cu       6.24105591       4.41309332      10.80982529       0.00000021      -0.00000001      -0.00000388
Nb       0.00000013       0.00000085      -0.00000011      -0.00000159      -0.00000668      -0.00000008
Te       2.21819714       1.56850253       7.20655076      -0.00158166      -0.00111908      -0.00000019
Te       6.10320961       4.31562106       7.20655116       0.00158937       0.00112310       0.00000131
Te       5.13195703       1.56850295       5.52429126       0.00079339      -0.00112295      -0.00137394
Te       3.18945122       4.31562073       8.88880981      -0.00079468       0.00112404       0.00137747
Te       3.18945056       4.31562096       5.52429134      -0.00079623       0.00112323      -0.00137524
Te       5.13195737       1.56850308       8.88881015       0.00079412      -0.00112156       0.00137284
