9
Lattice="5.656395414193272 -5.150358444402448e-08 3.265721328569089 1.8854651031084035 5.3329007704786315 3.2657213050097678 7.0893679778694425e-09 -2.3841221414890412e-08 6.531442644859182" Properties=species:S:1:pos:R:3:forces:R:3 energy=-36.67902755737305 free_energy=-36.67902755737305 stress="5.1237508159829304e-05 3.417629557134205e-08 2.283467814834239e-08 3.417629557134205e-08 5.121942376717925e-05 -2.2212999439830128e-08 2.283467814834239e-08 -2.2212999439830128e-08 5.121260619489476e-05" pbc="T T T"
Cu       1.88546520       1.33322521       3.26572165      -0.00000017       0.00000061       0.00000033
Cu       5.65639583       3.99967483       9.79716444       0.00000185      -0.00000242       0.00000031
Nb      -0.00000031      -0.00000043      -0.00000044       0.00000296       0.00000630       0.00000285
Se       2.03306280       1.43759288       6.53144253       0.00335484       0.00237396       0.00000082
Se       5.50879806       3.89530851       6.53144267      -0.00335953      -0.00237556       0.00000038
Se       4.63986414       1.43759243       5.02640471      -0.00168014       0.00237519       0.00290747
Se       2.90199560       3.89530889       8.03648051       0.00167989      -0.00237790      -0.00291147
Se       2.90199623       3.89530851       5.02640462       0.00167917      -0.00237519       0.00290910
Se       4.63986456       1.43759190       8.03648042      -0.00167880       0.00237501      -0.00290978
