9
Lattice="5.386278199092414 4.37166685242418e-08 3.1097695757299206 1.7954260736613235 5.078231837070801 3.109769634479771 -2.2211798806034742e-08 5.6247479684423246e-08 6.219539189931808" Properties=species:S:1:pos:R:3:forces:R:3 energy=-31.371299743652344 free_energy=-31.371299743652344 stress="0.00012941480963490903 -6.3056009302897564e-09 -2.8443782440490395e-08 -6.3056009302897564e-09 0.00012937813880853355 -1.7611506919479325e-08 -2.8443782440490395e-08 -1.7611506919479325e-08 0.00012932483514305204" pbc="T T T"
Cu       1.79542581       1.26955787       3.10977052      -0.00000050       0.00000029       0.00000237
Cu       5.38627702       3.80867458       9.32930706      -0.00000224       0.00000154      -0.00000481
Ni       0.00000009       0.00000001       0.00000016      -0.00000047       0.00000081       0.00000137
Se       1.92761287       1.36302754       6.21953845       0.00509457       0.00360191      -0.00000139
Se       5.25409171       3.71520420       6.21953997      -0.00509451      -0.00360180       0.00000077
Se       4.42247169       1.36302775       4.77913132      -0.00254657       0.00360166       0.00441132
Se       2.75923332       3.71520383       7.65994795       0.00254769      -0.00360321      -0.00441073
Se       2.75923209       3.71520385       4.77913117       0.00254778      -0.00360267       0.00441235
Se       4.42247233       1.36302813       7.65994712      -0.00254570       0.00360146      -0.00441109
