9
Lattice="4.613047986547007 -6.79746113927519e-08 2.6633446437874726 1.5376825583130138 4.349223525420413 2.6633447126924024 -1.1033396925329457e-07 6.3729981531932675e-09 5.326689478679124" Properties=species:S:1:pos:R:3:forces:R:3 energy=-49.11045837402344 free_energy=-49.11045837402344 stress="-4.3038751755375415e-05 1.3179257507545117e-07 -5.1529955413798234e-08 1.3179257507545117e-07 -4.311019438318908e-05 1.0538462191789222e-07 -5.1529955413798234e-08 1.0538462191789222e-07 -4.345555498730391e-05" pbc="T T T"
Cu       1.53768118       1.08730615       2.66334529      -0.00000548       0.00000056       0.00000427
Cu       4.61304792       3.26191672       7.99003147      -0.00000363      -0.00000870      -0.00002233
Nb      -0.00000015      -0.00000060      -0.00000075      -0.00000107       0.00000414       0.00000827
O        1.62008170       1.14557128       5.32668933      -0.00077975      -0.00054562       0.00000098
O        4.53064879       3.20365256       5.32669060       0.00078058       0.00054586       0.00000524
O        3.80300700       1.14557061       4.06637610       0.00038987      -0.00054795      -0.00066948
O        2.34772462       3.20365339       6.58700324      -0.00038028       0.00054795       0.00067139
O        2.34772296       3.20365300       4.06637682      -0.00038946       0.00054598      -0.00066531
O        3.80300788       1.14557074       6.58700323       0.00038970      -0.00054169       0.00066578
