9
Lattice="6.241991572548426 1.9838659860797938e-07 3.6038151538083136 2.0806639703985015 5.885006128554519 3.603815282254288 -2.3206508887651187e-08 1.409040188170792e-07 7.207630347811439" Properties=species:S:1:pos:R:3:forces:R:3 energy=-32.99231719970703 free_energy=-32.99231719970703 stress="0.00017099308024626225 4.798062036570627e-08 -2.1620868650984448e-08 4.798062036570627e-08 0.00017096419469453394 3.8038105998339233e-08 -2.1620868650984448e-08 3.8038105998339233e-08 0.0001709279022179544" pbc="T T T"
Cu       2.08066377       1.47125077       3.60381489      -0.00000085      -0.00000258      -0.00000148
Cu       6.24199067       4.41375355      10.81144593      -0.00000418      -0.00000565       0.00000302
Nb      -0.00000014       0.00000004      -0.00000076       0.00000070       0.00000052       0.00000835
Te       2.21871751       1.56887061       7.20763011      -0.00532109      -0.00376212      -0.00000020
Te       6.10393760       4.31613648       7.20762980       0.00532176       0.00376432      -0.00000162
Te       5.13263327       1.56887121       5.52528074       0.00266272      -0.00376188      -0.00460916
Te       3.19002281       4.31613608       8.88998072      -0.00265801       0.00376023       0.00460488
Te       3.19002328       4.31613630       5.52528040      -0.00265796       0.00376192      -0.00460590
Te       5.13263333       1.56887076       8.88998126       0.00265683      -0.00375473       0.00460205
