9
Lattice="5.411584179840576 -8.137613676601042e-08 3.1243796593036857 1.803861327591013 5.102090596662176 3.12437964019401 4.189775073769462e-09 -2.04418321607629e-08 6.248759311350426" Properties=species:S:1:pos:R:3:forces:R:3 energy=-40.17155075073242 free_energy=-40.17155075073242 stress="0.00035673571983352304 -2.87981816171623e-08 -8.74768169012441e-09 -2.87981816171623e-08 0.00035671412479132414 1.4547077320514745e-08 -8.74768169012441e-09 1.4547077320514745e-08 0.0003567986423149705" pbc="T T T"
Cu       1.80386138       1.27552238       3.12437942       0.00000032      -0.00000149      -0.00000050
Cu       5.41158359       3.82656819       9.37313902      -0.00000294       0.00000215       0.00000194
Nb       0.00000045       0.00000009       0.00000028      -0.00000664       0.00000002      -0.00000164
S        1.92202066       1.35907340       6.24875926      -0.00366038      -0.00258794      -0.00000101
S        5.29342474       3.74301689       6.24875921       0.00366372       0.00259222      -0.00000126
S        4.45057358       1.35907348       4.78889875       0.00183314      -0.00259258      -0.00317439
S        2.76487198       3.74301664       7.70862001      -0.00183174       0.00259075       0.00317338
S        2.76487198       3.74301703       4.78889870      -0.00182873       0.00258982      -0.00317219
S        4.45057362       1.35907384       7.70861988       0.00183292      -0.00259291       0.00317556
