9
Lattice="5.655746206845694 -9.050994097139112e-08 3.265346565449769 1.8852486617932698 5.3322884704561995 3.265346545511079 -2.0702772683947093e-08 -3.905887086520247e-08 6.530693166757737" Properties=species:S:1:pos:R:3:forces:R:3 energy=-36.67903518676758 free_energy=-36.67903518676758 stress="-3.710407327162102e-05 8.619560176725827e-09 7.032791682348716e-09 8.619560176725827e-09 -3.710323653649539e-05 -2.7101489052938632e-08 7.032791682348716e-09 -2.7101489052938632e-08 -3.715258208103478e-05" pbc="T T T"
Cu       1.88524854       1.33307131       3.26534664      -0.00000083      -0.00000227      -0.00000041
Cu       5.65574658       3.99921706       9.79604068       0.00000015       0.00000173       0.00000167
Nb       0.00000017       0.00000018      -0.00000032      -0.00000140      -0.00000331       0.00000525
Se       2.03314551       1.43765097       6.53069328       0.00070746       0.00050022       0.00000000
Se       5.50784864       3.89463709       6.53069285      -0.00070372      -0.00049658      -0.00000027
Se       4.63917339       1.43765109       5.02610217      -0.00035284       0.00049949       0.00061171
Se       2.90182134       3.89463768       8.03528362       0.00035350      -0.00049993      -0.00061302
Se       2.90182190       3.89463751       5.02610241       0.00035163      -0.00049749       0.00060865
Se       4.63917332       1.43765045       8.03528377      -0.00035389       0.00049815      -0.00061352
