9
Lattice="5.290237890842899 -1.9226597293955752e-07 3.054320196836346 1.7634125497027724 4.987683748914039 3.054320022432905 1.037446402535975e-07 -1.402411756550472e-07 6.108640213981679" Properties=species:S:1:pos:R:3:forces:R:3 energy=-38.316162109375 free_energy=-38.316162109375 stress="-0.00010342781752115116 2.86708168317773e-08 -3.0084162716548235e-08 2.86708168317773e-08 -0.00010338400170439854 1.703550367437856e-08 -3.0084162716548235e-08 1.703550367437856e-08 -0.00010337765706935897" pbc="T T T"
Cu       1.76341304       1.24692031       3.05431996       0.00000035      -0.00000186       0.00000191
Cu       5.29023783       3.74076251       9.16296051       0.00000068      -0.00000125       0.00000194
Os       0.00000081      -0.00000170       0.00000322       0.00000789      -0.00001539       0.00002957
S        1.88480175       1.33275598       6.10863977      -0.00287521      -0.00202852      -0.00000752
S        5.16884838       3.65492811       6.10863999       0.00287157       0.00203693      -0.00000614
S        4.34783732       1.33275532       4.68660610       0.00143662      -0.00203103      -0.00249267
S        2.70581382       3.65492750       7.53067384      -0.00143737       0.00203443       0.00248474
S        2.70581280       3.65492883       4.68660498      -0.00143886       0.00203478      -0.00249362
S        4.34783648       1.33275653       7.53067315       0.00143450      -0.00202835       0.00248206
