9
Lattice="4.720486881474474 8.306241102807688e-08 2.7253742889138044 1.5734956853680049 4.45051751063007 2.725374323731722 -5.4093680736909014e-08 4.393085630192523e-09 5.450748671520615" Properties=species:S:1:pos:R:3:forces:R:3 energy=-49.59130859375 free_energy=-49.59130859375 stress="4.788695150637068e-05 9.908667664149107e-09 3.865062936370123e-08 9.908667664149107e-09 4.800769602297805e-05 7.882326791275318e-09 3.865062936370123e-08 7.882326791275318e-09 4.7911962610669434e-05" pbc="T T T"
Cu       1.57349583       1.11262976       2.72537450       0.00000183       0.00000206       0.00000048
Cu       4.72048722       3.33788836       8.17612285       0.00000050      -0.00000003      -0.00000164
Os      -0.00000025      -0.00000028      -0.00000046       0.00000221       0.00000660       0.00000845
O        1.51172532       1.06895152       5.45074898      -0.00013322      -0.00009251       0.00000154
O        4.78225696       3.38156588       5.45074842       0.00012827       0.00009149       0.00000048
O        3.96462386       1.06895126       4.03456697       0.00006565      -0.00009716      -0.00011712
O        2.32935884       3.38156639       6.86693046      -0.00006291       0.00008976       0.00010735
O        2.32935810       3.38156599       4.03456711      -0.00006747       0.00009322      -0.00011277
O        3.96462416       1.06895163       6.86693013       0.00006539      -0.00009358       0.00011361
