9
Lattice="5.510256488948501 -1.879120026308137e-08 3.1813483511484524 1.8367522051211767 5.195119842048909 3.1813482474768366 6.025552941786105e-08 -8.43641721975393e-08 6.362696597931251" Properties=species:S:1:pos:R:3:forces:R:3 energy=-36.4227409362793 free_energy=-36.4227409362793 stress="-5.868319476576289e-06 -3.694457717529076e-08 1.1168900471147936e-08 -3.694457717529076e-08 -5.922645868849941e-06 -1.073275779361893e-08 1.1168900471147936e-08 -1.073275779361893e-08 -5.864939794264501e-06" pbc="T T T"
Cu       1.83675266       1.29877920       3.18134814       0.00000055      -0.00000094      -0.00000050
Cu       5.51025624       3.89634027       9.54404490      -0.00000026       0.00000089      -0.00000079
Os      -0.00000022       0.00000007      -0.00000026       0.00000080      -0.00000092       0.00000329
Se       2.02579262       1.43245145       6.36269662       0.00006983       0.00005038      -0.00000100
Se       5.32121606       3.76266889       6.36269660      -0.00007176      -0.00004888      -0.00000070
Se       4.49736002       1.43245139       4.93573654      -0.00003454       0.00004822       0.00006038
Se       2.84964880       3.76266777       7.78965685       0.00003460      -0.00004971      -0.00006026
Se       2.84964883       3.76266815       4.93573655       0.00003442      -0.00004803       0.00005916
Se       4.49736000       1.43245179       7.78965684      -0.00003366       0.00004867      -0.00005937
