9
Lattice="5.5475728558170525 -1.490104496561825e-07 3.20289267465015 1.8491908067057434 5.230301971836551 3.202892682868484 -7.387097476385211e-08 -4.2169229054598826e-08 6.4057854772486085" Properties=species:S:1:pos:R:3:forces:R:3 energy=-30.685928344726562 free_energy=-30.685928344726562 stress="-3.1456209399038926e-05 -2.1509341863179543e-08 6.409448083388725e-09 -2.1509341863179543e-08 -3.14403951051645e-05 8.445550037095018e-09 6.409448083388725e-09 8.445550037095018e-09 -3.137508610961959e-05" pbc="T T T"
Cu       1.84919122       1.30757569       3.20289257       0.00000139       0.00000074      -0.00000007
Cu       5.54757298       3.92272586       9.60867813       0.00000026      -0.00000109      -0.00000031
P        0.00000019      -0.00000010      -0.00000019      -0.00000019       0.00000492      -0.00000720
Se       1.86991566       1.32223039       6.40578527       0.00553954       0.00391814      -0.00000133
Se       5.52684811       3.90807202       6.40578528      -0.00554127      -0.00391805      -0.00000124
Se       4.61261478       1.32223013       4.82228696      -0.00277025       0.00391608       0.00479600
Se       2.78414841       3.90807116       7.98928383       0.00276768      -0.00391644      -0.00479433
Se       2.78414848       3.90807168       4.82228729       0.00277045      -0.00391862       0.00479990
Se       4.61261453       1.32223031       7.98928402      -0.00276762       0.00391427      -0.00479165
