9
Lattice="5.520766994725183 2.1197681828196927e-07 3.187415454648426 1.8402556492889999 5.205029626080786 3.1874158278588802 -3.7964554442815977e-07 1.8863761364479417e-07 6.37483156686214" Properties=species:S:1:pos:R:3:forces:R:3 energy=-31.976844787597656 free_energy=-31.976844787597656 stress="-0.00029956572689116 2.9018883296316744e-08 -1.0731589838997024e-08 2.9018883296316744e-08 -0.00029960862593725324 2.6590617707711317e-08 -1.0731589838997024e-08 2.6590617707711317e-08 -0.00029953595367260277" pbc="T T T"
Cu       1.84025376       1.30125624       3.18741675      -0.00000428      -0.00000434       0.00000307
Cu       5.52076734       3.90377354       9.56224565       0.00000171       0.00000335      -0.00000503
Pt       0.00000038      -0.00000051       0.00000097      -0.00000179       0.00000137      -0.00000276
Se       2.08461086       1.47404197       6.37483271       0.00213848       0.00150975       0.00000276
Se       5.27641239       3.73098754       6.37483202      -0.00213528      -0.00151144       0.00000088
Se       4.47846147       1.47404195       4.99274106      -0.00106960       0.00151149       0.00185206
Se       2.88256078       3.73098886       7.75692065       0.00106891      -0.00150910      -0.00185137
Se       2.88255954       3.73098809       4.99274040       0.00106915      -0.00151465       0.00185357
Se       4.47846257       1.47404242       7.75692117      -0.00106730       0.00151356      -0.00185318
