9
Lattice="5.537624078037948 1.6242664470160886e-07 3.197148668058442 1.8458748241379723 5.220922030105604 3.1971487056069736 4.445127728371684e-09 4.9130505579877726e-08 6.39429732841768" Properties=species:S:1:pos:R:3:forces:R:3 energy=-30.794513702392578 free_energy=-30.794513702392578 stress="-6.461873272201046e-05 1.2735447363354524e-08 -4.68351490923169e-09 1.2735447363354524e-08 -6.466111517511308e-05 -1.98197422918156e-08 -4.68351490923169e-09 -1.98197422918156e-08 -6.464516627602279e-05" pbc="T T T"
Cu       1.84587453       1.30522992       3.19714886      -0.00000067      -0.00000169       0.00000052
Cu       5.53762415       3.91569209       9.59144543       0.00000064       0.00000056      -0.00000235
Pd       0.00000042      -0.00000011      -0.00000050      -0.00000057       0.00000044       0.00000160
Se       2.08944496       1.47746076       6.39429710      -0.00408217      -0.00288659      -0.00000011
Se       5.29405361       3.74346128       6.39429769       0.00408377       0.00288764       0.00000121
Se       4.49290174       1.47746055       5.00666092       0.00204144      -0.00288803      -0.00353515
Se       2.89059707       3.74346227       7.78193423      -0.00204078       0.00288671       0.00353403
Se       2.89059719       3.74346179       5.00666095      -0.00204201       0.00288753      -0.00353495
Se       4.49290204       1.47746046       7.78193408       0.00204027      -0.00288645       0.00353520
