9
Lattice="5.521566816219223 -2.0273384279283097e-08 3.1878781605135686 1.8405222773335823 5.205783157773126 3.187878118295805 5.318831636366183e-09 -4.794491585829661e-08 6.3757563118146185" Properties=species:S:1:pos:R:3:forces:R:3 energy=-31.976863861083984 free_energy=-31.976863861083984 stress="-0.00017558342369738966 -1.64383873180185e-09 -3.8564576532174044e-10 -1.64383873180185e-09 -0.00017561209097038954 -5.367160049729591e-09 -3.8564576532174044e-10 -5.367160049729591e-09 -0.00017561460845172405" pbc="T T T"
Cu       1.84052254       1.30144704       3.18787770       0.00000095       0.00000359      -0.00000097
Cu       5.52156494       3.90433708       9.56363477      -0.00000573      -0.00000085       0.00000136
Pt       0.00000049      -0.00000038       0.00000019      -0.00000088      -0.00000052      -0.00000117
Se       2.08566083       1.47478475       6.37575627      -0.00218227      -0.00154353       0.00000130
Se       5.27642858       3.73099776       6.37575582       0.00218481       0.00154308       0.00000008
Se       4.47873652       1.47478502       4.99411289       0.00109222      -0.00154417      -0.00189169
Se       2.88335331       3.73099819       7.75739986      -0.00108935       0.00154236       0.00189077
Se       2.88335297       3.73099814       4.99411315      -0.00109138       0.00154443      -0.00189103
Se       4.47873620       1.47478474       7.75739971       0.00109166      -0.00154445       0.00189137
