9
Lattice="5.434638354128658 -7.074317183961057e-08 3.1376899837357946 1.8115460639702068 5.123825950058189 3.137689961869281 -5.6908094752074445e-08 -6.702097992074466e-08 6.2753800660393315" Properties=species:S:1:pos:R:3:forces:R:3 energy=-31.835805892944336 free_energy=-31.835805892944336 stress="6.047332590242149e-06 -1.501740065634749e-08 -4.038487233515298e-08 -1.501740065634749e-08 6.128822406026302e-06 4.4157633993791023e-08 -4.038487233515298e-08 4.4157633993791023e-08 6.117928478488466e-06" pbc="T T T"
Cu       1.81154653       1.28095668       3.13769006       0.00000316       0.00000115      -0.00000027
Cu       5.43463828       3.84286872       9.41306975      -0.00000006      -0.00000206      -0.00000174
Pd       0.00000001      -0.00000012      -0.00000056      -0.00000084       0.00000159       0.00000415
S        1.90995559       1.35054272       6.27538004      -0.00476867      -0.00337237       0.00000025
S        5.33622855       3.77328317       6.27538029       0.00476921       0.00337195       0.00000031
S        4.47966014       1.35054314       4.79176019       0.00238422      -0.00337309      -0.00413311
S        2.76652409       3.77328296       7.75899985      -0.00238463       0.00337160       0.00413144
S        2.76652391       3.77328296       4.79176031      -0.00238606       0.00337178      -0.00413156
S        4.47966037       1.35054291       7.75900011       0.00238389      -0.00337112       0.00413072
