9
Lattice="5.375545354234308 -1.0132851288602399e-07 3.103572423649662 1.7918482985382693 5.068112714112254 3.1035725229649542 -1.331772001754151e-07 2.746547625515902e-08 6.207145077968963" Properties=species:S:1:pos:R:3:forces:R:3 energy=-33.752342224121094 free_energy=-33.752342224121094 stress="-3.4824210160877556e-05 1.8810007773595316e-08 -4.105005757537583e-08 1.8810007773595316e-08 -3.481291059870273e-05 4.519187868368135e-08 -4.105005757537583e-08 4.519187868368135e-08 -3.4822722227545455e-05" pbc="T T T"
Cu       1.79184827       1.26702775       3.10357236      -0.00000012       0.00000005       0.00000038
Cu       5.37554552       3.80108448       9.31071782       0.00000034      -0.00000047       0.00000072
Pt      -0.00000008      -0.00000005      -0.00000018      -0.00000062       0.00000060       0.00000608
S        1.86155843       1.31632094       6.20714522      -0.00491798      -0.00347853       0.00000124
S        5.30583489       3.75179200       6.20714498       0.00491858       0.00347760       0.00000161
S        4.44476580       1.31632136       4.71572955       0.00246182      -0.00348070      -0.00426406
S        2.72262713       3.75179213       7.69856036      -0.00245979       0.00347805       0.00425875
S        2.72262787       3.75179176       4.71572948      -0.00245923       0.00347826      -0.00426000
S        4.44476621       1.31632021       7.69856053       0.00245681      -0.00347501       0.00425529
