9
Lattice="4.168855860089631 -4.28723592083138e-06 2.4068876689247287 1.3896170980896818 3.9304259586490446 2.406883303979253 2.2929984542790842e-06 -3.724549993684867e-06 4.813771366259358" Properties=species:S:1:pos:R:3:forces:R:3 energy=-37.298858642578125 free_energy=-37.298858642578125 stress="-5.7788234698818997e-05 5.3764447329740506e-06 -2.4939106424426427e-06 5.3764447329740506e-06 -3.761437255889177e-05 -1.4510181927107624e-06 -2.4939106424426427e-06 -1.4510181927107624e-06 -3.9896964153740555e-05" pbc="T T T"
Cu       1.38976015       0.98259136       2.40684533       0.00164954      -0.00000064      -0.00048058
Cu       4.16890370       2.94786373       7.22063758       0.00081821       0.00052578      -0.00029574
Pd      -0.00001859       0.00000226       0.00000488       0.00213258      -0.00087234      -0.00046643
O        1.47774423       1.04493326       4.81378311       0.00285280       0.00219452       0.00008267
O        4.08069868       2.88550383       4.81378403      -0.00473702      -0.00325525       0.00014504
O        3.42993660       1.04490815       3.68665520      -0.00266117       0.00310934       0.00410008
O        2.12847831       2.88547264       5.94088604       0.00113910      -0.00219178      -0.00248682
O        2.12847378       2.88548969       3.68666851       0.00129664      -0.00240552       0.00301456
O        3.42992652       1.04490390       5.94090258      -0.00249034       0.00289547      -0.00361383
