9
Lattice="5.434871085512846 -3.212867679567605e-08 3.1378243706474978 1.8116236516076765 5.1240455810566745 3.1378243936354204 -5.174275543086232e-08 -8.433326839183188e-09 6.275648830916032" Properties=species:S:1:pos:R:3:forces:R:3 energy=-31.835811614990234 free_energy=-31.835811614990234 stress="-4.2925980778818484e-06 -3.549881499864682e-09 9.821023105871518e-09 -3.549881499864682e-09 -4.254857230989728e-06 -3.836701623072258e-09 9.821023105871518e-09 -3.836701623072258e-09 -4.272964815754676e-06" pbc="T T T"
Cu       1.81162343       1.28101072       3.13782434       0.00000010      -0.00000246      -0.00000033
Cu       5.43487040       3.84303431       9.41347316      -0.00000205       0.00000093       0.00000018
Pd       0.00000009       0.00000021       0.00000022       0.00000047      -0.00000260      -0.00000008
S        1.90974862       1.35039591       6.27564873       0.00072533       0.00051147      -0.00000017
S        5.33674601       3.77364963       6.27564865      -0.00072479      -0.00050986      -0.00000107
S        4.47999680       1.35039583       4.79171520      -0.00036371       0.00051105       0.00062704
S        2.76649836       3.77364967       7.75958237       0.00036365      -0.00051010      -0.00062621
S        2.76649833       3.77364979       4.79171526       0.00036401      -0.00050974       0.00062656
S        4.47999666       1.35039613       7.75958242      -0.00036338       0.00051129      -0.00062591
