9
Lattice="4.43103075276439 4.042214508699488e-07 2.5582565311461045 1.4770105470659487 4.177615991115298 2.558256678299561 7.575058143949428e-08 2.3378941827538662e-07 5.116512931088373" Properties=species:S:1:pos:R:3:forces:R:3 energy=-36.88310623168945 free_energy=-36.88310623168945 stress="0.0007673534564673901 -9.561873071106675e-08 -8.70521716933581e-08 -9.561873071106675e-08 0.0007674660882912576 8.595051070869886e-08 -8.70521716933581e-08 8.595051070869886e-08 0.0007674266817048192" pbc="T T T"
Cu       1.47701960       1.04439872       2.55825811       0.00007080      -0.00003925       0.00002215
Cu       4.43103799       3.13321655       7.67480242       0.00005581       0.00003053       0.00025491
Pd      -0.00000070       0.00000014      -0.00000176      -0.00001539       0.00000142      -0.00000737
O        1.55865727       1.10213826       5.11651278      -0.00806066      -0.00568673      -0.00001401
O        4.34938096       3.07547969       5.11650228       0.00803156       0.00570459      -0.00007683
O        3.65169963       1.10214416       3.90808788       0.00401527      -0.00567601      -0.00702884
O        2.25633353       3.07547884       6.32492596      -0.00406247       0.00569036       0.00692652
O        2.25634279       3.07548002       3.90809123      -0.00401456       0.00571235      -0.00700170
O        3.65169468       1.10212939       6.32492507       0.00397952      -0.00573730       0.00692504
