9
Lattice="5.537715240602525 1.3024354475233697e-07 3.1972013633032055 1.8459051607686754 5.221008383879355 3.1972014364424917 4.95470681954318e-08 1.2461205781907112e-07 6.394402640788343" Properties=species:S:1:pos:R:3:forces:R:3 energy=-30.794509887695312 free_energy=-30.794509887695312 stress="-5.3742634918307886e-05 3.819841776220301e-09 2.795444098424582e-09 3.819841776220301e-09 -5.379744106903672e-05 -1.656590953302839e-08 2.795444098424582e-09 -1.656590953302839e-08 -5.373817475629039e-05" pbc="T T T"
Cu       1.84590554       1.30525162       3.19720135       0.00000123      -0.00000201      -0.00000055
Cu       5.53771533       3.91575735       9.59160385       0.00000032       0.00000342       0.00000077
Pd      -0.00000021       0.00000031      -0.00000043      -0.00000032      -0.00000049       0.00000118
Se       2.08957599       1.47755277       6.39440250      -0.00520954      -0.00368495      -0.00000040
Se       5.29404436       3.74345569       6.39440269       0.00520921       0.00368469      -0.00000131
Se       4.49292748       1.47755277       5.00682707       0.00260486      -0.00368445      -0.00451177
Se       2.89069279       3.74345562       7.78197883      -0.00260576       0.00368385       0.00451111
Se       2.89069294       3.74345547       5.00682721      -0.00260499       0.00368447      -0.00451129
Se       4.49292753       1.47755296       7.78197868       0.00260502      -0.00368446       0.00451227
