9
Lattice="5.628803277472563 -2.7783575660941115e-08 3.2497909393335247 1.8762677402646426 5.306886656746175 3.249790926686528 -6.045345952444154e-08 -5.823638550984978e-08 6.49958198337548" Properties=species:S:1:pos:R:3:forces:R:3 energy=-27.89813232421875 free_energy=-27.89813232421875 stress="-3.405017196200788e-05 -1.7463008816775982e-09 2.549455047073934e-08 -1.7463008816775982e-09 -3.408027987461537e-05 4.287056043494886e-08 2.549455047073934e-08 4.287056043494886e-08 -3.408583143027499e-05" pbc="T T T"
Cu       1.87626812       1.32672160       3.24979077       0.00000185       0.00000018      -0.00000160
Cu       5.62880321       3.98016508       9.74937306      -0.00000057      -0.00000006       0.00000231
Pb      -0.00000005       0.00000034       0.00000015      -0.00000170      -0.00000445       0.00000142
S        2.08431204       1.47383108       6.49958168      -0.00180335      -0.00127533       0.00000023
S        5.42075902       3.83305529       6.49958150       0.00180570       0.00127744      -0.00000275
S        4.58664709       1.47383093       5.05485801       0.00090157      -0.00127473      -0.00156218
S        2.91842391       3.83305506       7.94430601      -0.00090190       0.00127609       0.00156300
S        2.91842395       3.83305582       5.05485824      -0.00090122       0.00127671      -0.00156245
S        4.58664653       1.47383109       7.94430595       0.00089961      -0.00127589       0.00156200
