9
Lattice="5.501543660460833 -6.69890007238006e-08 3.176317618336787 1.8338478051562959 5.18690485415825 3.176317650390365 -2.4325715332731354e-08 2.2056576561103365e-08 6.352635278806948" Properties=species:S:1:pos:R:3:forces:R:3 energy=-32.27513885498047 free_energy=-32.27513885498047 stress="-0.0002979230775963515 -1.0448051313005635e-07 2.7132756041936545e-09 -1.0448051313005635e-07 -0.0002978589618578553 2.597401049797554e-08 2.7132756041936545e-09 2.597401049797554e-08 -0.0002977899566758424" pbc="T T T"
Cu       1.83384776       1.29672634       3.17631787      -0.00000027      -0.00000003       0.00000149
Cu       5.50154344       3.89017869       9.52895299       0.00000020       0.00000002      -0.00000039
P        0.00000015      -0.00000028       0.00000007       0.00000065       0.00000287      -0.00000632
S        1.76637917       1.24901900       6.35263520       0.00523007       0.00369924       0.00000006
S        5.56901209       3.93788618       6.35263509      -0.00523281      -0.00369942       0.00000005
S        4.61835375       1.24901894       4.70604710      -0.00261199       0.00369340       0.00452399
S        2.71703801       3.93788584       7.99922343       0.00261128      -0.00369257      -0.00452137
S        2.71703756       3.93788570       4.70604708       0.00261313      -0.00369549       0.00452518
S        4.61835385       1.24901890       7.99922329      -0.00261027       0.00369251      -0.00452304
