9
Lattice="5.376205529490905 2.4735039275312008e-08 3.1039538595060696 1.7920684529095585 5.068735591720252 3.1039539984877895 -5.197183308676811e-08 1.3346756448551118e-07 6.207907809030028" Properties=species:S:1:pos:R:3:forces:R:3 energy=-33.752349853515625 free_energy=-33.752349853515625 stress="3.068471414735541e-05 2.5021764216148767e-08 -5.946642733789531e-09 2.5021764216148767e-08 3.068320802412927e-05 1.6809529768124776e-08 -5.946642733789531e-09 1.6809529768124776e-08 3.0669758416479453e-05" pbc="T T T"
Cu       1.79206849       1.26718497       3.10395396       0.00000000       0.00000369      -0.00000022
Cu       5.37620552       3.80155128       9.31186062      -0.00000004      -0.00000273      -0.00000295
Pt       0.00000012      -0.00000015      -0.00000005       0.00000248       0.00000134       0.00000301
S        1.86137316       1.31619032       6.20790795       0.00165260       0.00117022       0.00000059
S        5.30690075       3.75254539       6.20790879      -0.00165468      -0.00117171       0.00000238
S        4.44551880       1.31618986       4.71595037      -0.00082812       0.00117147       0.00143212
S        2.72275526       3.75254570       7.69986559       0.00082818      -0.00117198      -0.00143296
S        2.72275469       3.75254554       4.71595035       0.00082767      -0.00117350       0.00143349
S        4.44551888       1.31619018       7.69986522      -0.00082800       0.00117329      -0.00143546
