9
Lattice="4.632953853528188 6.671439258841178e-08 2.6748370430120514 1.5443179592801828 4.367990632253162 2.6748371379193445 -6.254020807266137e-08 7.201465358957961e-08 5.349674194346881" Properties=species:S:1:pos:R:3:forces:R:3 energy=-38.55134582519531 free_energy=-38.55134582519531 stress="-7.977921632118523e-05 -9.808391610022227e-08 -3.0388193295038946e-08 -9.808391610022227e-08 -7.965929398778826e-05 8.19854975020462e-08 -3.0388193295038946e-08 8.19854975020462e-08 -7.980287773534656e-05" pbc="T T T"
Cu       1.54431862       1.09199794       2.67483649       0.00000601       0.00000311      -0.00000223
Cu       4.63295349       3.27599315       8.02451253      -0.00000295      -0.00000084       0.00000664
Pt       0.00000010      -0.00000007       0.00000032      -0.00000115       0.00000303      -0.00002044
O        1.54990692       1.09595015       5.34967467      -0.00384694      -0.00271739       0.00000550
O        4.62736455       3.27204095       5.34967371       0.00384328       0.00271875      -0.00000465
O        3.85799977       1.09595009       4.01709534       0.00192012      -0.00271593      -0.00332880
O        2.31927197       3.27204089       6.68225247      -0.00192353       0.00272359       0.00333494
O        2.31927148       3.27204027       4.01709518      -0.00191699       0.00270985      -0.00332338
O        3.85800014       1.09594989       6.68225237       0.00192209      -0.00272411       0.00333291
