9
Lattice="4.840329002354763 6.75654662540309e-09 2.7945651277365378 1.6134430277295093 4.5635060294234515 2.7945650921005667 -4.407319033063887e-08 -7.480951059420718e-08 5.58913033181013" Properties=species:S:1:pos:R:3:forces:R:3 energy=-35.08964920043945 free_energy=-35.08964920043945 stress="0.0002486125158611685 -1.723286513488631e-09 6.5159619921928424e-09 -1.723286513488631e-09 0.0002485755831003189 2.1869341892966077e-08 6.5159619921928424e-09 2.1869341892966077e-08 0.0002486606244929135" pbc="T T T"
Cu       1.61344216       1.14087748       2.79456451      -0.00000453       0.00000681      -0.00000287
Cu       4.84032837       3.42262922       8.38369384      -0.00000281      -0.00000274      -0.00001004
Pb      -0.00000003       0.00000044      -0.00000079       0.00000061      -0.00000751       0.00000986
O        1.70484368       1.20550686       5.58913119      -0.00219317      -0.00155213       0.00000617
O        4.74892850       3.35799886       5.58913121       0.00219956       0.00155075       0.00000750
O        3.98790661       1.20550724       4.27100339       0.00109838      -0.00155410      -0.00190249
O        2.46586544       3.35799940       6.90725775      -0.00109337       0.00155029       0.00190428
O        2.46586495       3.35799811       4.27100354      -0.00110232       0.00155532      -0.00190800
O        3.98790823       1.20550620       6.90725756       0.00109768      -0.00154671       0.00189584
