9
Lattice="4.426997488071685 -1.2427080073438845e-07 2.555928016541658 1.475665702805483 4.173813376166214 2.5559280328023397 -1.8902743811956917e-07 -1.1374741868890508e-07 5.111856360488423" Properties=species:S:1:pos:R:3:forces:R:3 energy=-45.48223114013672 free_energy=-45.48223114013672 stress="-0.0003802933497354388 2.59912535938156e-08 -8.691177555419927e-08 2.59912535938156e-08 -0.0003801536513492465 -1.0627530855344958e-07 -8.691177555419927e-08 -1.0627530855344958e-07 -0.0003800440754275769" pbc="T T T"
Cu       1.47566477       1.04345257       2.55592850      -0.00000546      -0.00000541       0.00000494
Cu       4.42699853       3.13035969       7.66778307       0.00000617      -0.00000060      -0.00000979
P        0.00000018       0.00000012      -0.00000008      -0.00000625      -0.00000436       0.00000072
O        1.37689825       0.97361396       5.11185611       0.00439334       0.00310957       0.00000090
O        4.52576423       3.20019907       5.11185658      -0.00438857      -0.00310349       0.00000131
O        3.73854814       0.97361399       3.74835731      -0.00219178       0.00310302       0.00380552
O        2.16411496       3.20019940       6.47535562       0.00219333      -0.00310481      -0.00380671
O        2.16411464       3.20019887       3.74835719       0.00219071      -0.00309968       0.00380552
O        3.73854821       0.97361437       6.47535570      -0.00219011       0.00310576      -0.00380194
