9
Lattice="4.63156884334144 -7.961084061343907e-09 2.6740375156913214 1.5438562773249205 4.3666849726478 2.6740375092534845 2.245898517130768e-09 -6.296619439413509e-09 5.348075027492634" Properties=species:S:1:pos:R:3:forces:R:3 energy=-38.55131530761719 free_energy=-38.55131530761719 stress="-0.0004518781788647175 -4.319576163425154e-08 -7.835093462915665e-09 -4.319576163425154e-08 -0.00045193088590167463 6.526562845721173e-09 -7.835093462915665e-09 6.526562845721173e-09 -0.00045190987293608487" pbc="T T T"
Cu       1.54385624       1.09167130       2.67403750      -0.00000079       0.00000108      -0.00000097
Cu       4.63156884       3.27501371       8.02211248      -0.00000055      -0.00000166       0.00000179
Pt       0.00000010       0.00000005       0.00000015      -0.00000059      -0.00000143       0.00001150
O        1.54973507       1.09582813       5.34807502      -0.00063729      -0.00044978      -0.00000020
O        4.62569000       3.27085678       5.34807502       0.00063998       0.00045043      -0.00000128
O        3.85670128       1.09582813       4.01614742       0.00032119      -0.00045228      -0.00055394
O        2.31872387       3.27085671       6.68000262      -0.00031924       0.00044833       0.00054985
O        2.31872380       3.27085681       4.01614744      -0.00032033       0.00045303      -0.00055534
O        3.85670128       1.09582821       6.68000255       0.00031774      -0.00044769       0.00054863
