9
Lattice="5.677313015291811 3.315569384433946e-08 3.2777982022647962 1.8924376711440518 5.352622145143693 3.2777982574814746 -5.309023700824727e-08 3.008592854316943e-08 6.55559649648435" Properties=species:S:1:pos:R:3:forces:R:3 energy=-38.0889892578125 free_energy=-38.0889892578125 stress="-9.557253360981122e-05 2.0498513109146188e-08 -4.721283808351018e-09 2.0498513109146188e-08 -9.559405589243397e-05 1.1314776671156324e-08 -4.721283808351018e-09 1.1314776671156324e-08 -9.561589831719175e-05" pbc="T T T"
Cu       1.89243793       1.33815593       3.27779766       0.00000047       0.00000099      -0.00000194
Cu       5.67731260       4.01446661       9.83339520      -0.00000157       0.00000029       0.00000102
Re      -0.00000019       0.00000008       0.00000022       0.00000122      -0.00000127      -0.00000110
Se       1.99283356       1.40914644       6.55559641       0.00220966       0.00156277      -0.00000064
Se       5.57691712       3.94347595       6.55559605      -0.00220990      -0.00156251      -0.00000183
Se       4.68089659       1.40914589       5.00364284      -0.00110464       0.00156292       0.00191554
Se       2.88885479       3.94347549       8.10755042       0.00110589      -0.00156301      -0.00191200
Se       2.88885456       3.94347619       5.00364271       0.00110520      -0.00156328       0.00191441
Se       4.68089564       1.40914624       8.10755028      -0.00110634       0.00156292      -0.00191355
