9
Lattice="4.651536843074324 3.2940029300396705e-07 2.6855659542384926 1.5505124381719948 4.385511601069816 2.6855662199600445 9.464978949718211e-08 3.92368471695422e-07 5.371131744538879" Properties=species:S:1:pos:R:3:forces:R:3 energy=-45.07059097290039 free_energy=-45.07059097290039 stress="1.3891558410250582e-05 -8.099216586288094e-08 -1.4743458010002541e-08 -8.099216586288094e-08 1.39882668008795e-05 3.492765188184421e-08 -1.4743458010002541e-08 3.492765188184421e-08 1.4133335753285792e-05" pbc="T T T"
Cu       1.55051307       1.09637939       2.68556405       0.00000405       0.00000683      -0.00001412
Cu       4.65153683       3.28913348       8.05669722       0.00000067      -0.00000433      -0.00000964
Ru       0.00000018       0.00000007      -0.00000051      -0.00000321      -0.00000463      -0.00001223
O        1.50952212       1.06739422       5.37113255       0.00144702       0.00102454       0.00000373
O        4.69252688       3.31811821       5.37113245      -0.00144148      -0.00102052       0.00000212
O        3.89677614       1.06739394       3.99285146      -0.00071838       0.00101769       0.00125074
O        2.30527445       3.31811678       6.74941370       0.00071719      -0.00101906      -0.00123465
O        2.30527309       3.31811813       3.99285185       0.00071669      -0.00101903       0.00125158
O        3.89677477       1.06739529       6.74941360      -0.00072241       0.00101852      -0.00123781
