9
Lattice="5.270694009705417 -7.934256335663036e-08 3.0430363939695892 1.7568979284383957 4.969258020928369 3.0430363939554974 -8.610087106961819e-08 -6.089976505317108e-08 6.086072937070268" Properties=species:S:1:pos:R:3:forces:R:3 energy=-37.12299346923828 free_energy=-37.12299346923828 stress="-5.069259350420907e-05 -3.052321506658018e-09 4.420095400803348e-09 -3.052321506658018e-09 -5.068305108579807e-05 1.0356336233030561e-08 4.420095400803348e-09 1.0356336233030561e-08 -5.068488098913804e-05" pbc="T T T"
Cu       1.75689778       1.24231449       3.04303621      -0.00000080       0.00000129      -0.00000180
Cu       5.27069402       3.72694337       9.12910890      -0.00000006       0.00000077      -0.00000286
Ru      -0.00000088       0.00000260      -0.00000252      -0.00000506       0.00001541      -0.00001456
S        1.86243095       1.31693752       6.08607308      -0.00245881      -0.00174171       0.00000346
S        5.16516080       3.65231996       6.08607308       0.00246030       0.00173599       0.00000312
S        4.33947849       1.31693726       4.65594941       0.00123149      -0.00174367      -0.00212610
S        2.68811346       3.65232002       7.51619698      -0.00122806       0.00173536       0.00213331
S        2.68811385       3.65231946       4.65595009      -0.00122932       0.00173762      -0.00212729
S        4.33947901       1.31693688       7.51619763       0.00123021      -0.00174120       0.00213248
