9
Lattice="6.130067629436898 -2.9560608907846425e-07 3.5391962576210885 2.043355625852924 5.779483123704699 3.539196208995527 -6.150175793920949e-08 -1.0304220596745847e-07 7.078392621766411" Properties=species:S:1:pos:R:3:forces:R:3 energy=-34.261558532714844 free_energy=-34.261558532714844 stress="-2.776557039396721e-06 -6.22150508888808e-08 -1.4299232020675845e-08 -6.22150508888808e-08 -2.730478172452422e-06 2.509052876575879e-08 -1.4299232020675845e-08 2.509052876575879e-08 -2.6705365598900244e-06" pbc="T T T"
Cu       2.04335582       1.44487041       3.53919595       0.00000045      -0.00000054      -0.00000183
Cu       6.13006715       4.33461206      10.61758954      -0.00000071      -0.00000038       0.00000474
Re      -0.00000056       0.00000001       0.00000003       0.00000616      -0.00000156      -0.00000079
Te       2.15520553       1.52396002       7.07839249      -0.00025991      -0.00018343      -0.00000021
Te       6.01821841       4.25552291       7.07839216       0.00025585       0.00017963      -0.00000230
Te       5.05246493       1.52396042       5.40565930       0.00013222      -0.00018439      -0.00022787
Te       3.12095854       4.25552235       8.75112567      -0.00013407       0.00018883       0.00023031
Te       3.12095885       4.25552254       5.40565937      -0.00012982       0.00018637      -0.00022779
Te       5.05246403       1.52396013       8.75112595       0.00012987      -0.00018463       0.00022572
