9
Lattice="4.750949523303288 1.3526941153759934e-07 2.7429617830422988 1.5836498667652088 4.4792383701164535 2.742961959484716 -7.272002935720478e-08 1.6467615653885575e-07 5.485923692039433" Properties=species:S:1:pos:R:3:forces:R:3 energy=-40.10163879394531 free_energy=-40.10163879394531 stress="0.0002504159929230809 -6.824360632151638e-09 -9.7753738437234e-10 -6.824360632151638e-09 0.000250429060542956 1.892497536459814e-08 -9.7753738437234e-10 1.892497536459814e-08 0.0002505157026462257" pbc="T T T"
Cu       1.58365272       1.11980849       2.74296054       0.00001528      -0.00000809      -0.00001158
Cu       4.75095005       3.35942669       8.22888536       0.00000522      -0.00001793      -0.00000180
Rh      -0.00000018      -0.00000025       0.00000004       0.00000477      -0.00000835      -0.00001300
O        1.55962409       1.10282267       5.48592406      -0.00191712      -0.00134933       0.00000154
O        4.77497324       3.37641791       5.48592315       0.00191092       0.00136167      -0.00000429
O        3.97113757       1.10282219       4.09363720       0.00095314      -0.00134546      -0.00165445
O        2.36346270       3.37641617       6.87821016      -0.00096467       0.00136173       0.00166959
O        2.36346157       3.37641747       4.09363777      -0.00095946       0.00135559      -0.00165564
O        3.97113557       1.10282379       6.87821176       0.00095189      -0.00134990       0.00166988
