9
Lattice="4.738251483478479 -3.5514005525974485e-07 2.7356314054683257 1.5794168374245192 4.467267076165836 2.7356313862524533 -7.207771664728846e-08 -7.450120373283248e-08 5.471262935778921" Properties=species:S:1:pos:R:3:forces:R:3 energy=-51.76234436035156 free_energy=-51.76234436035156 stress="0.00014661066234111786 -4.211078064031426e-08 -1.707454089228122e-08 -4.211078064031426e-08 0.00014656527491752058 -4.8408033137548045e-08 -1.707454089228122e-08 -4.8408033137548045e-08 0.00014653801918029785" pbc="T T T"
Cu       1.57941618       1.11681547       2.73563258      -0.00000357      -0.00000636       0.00000898
Cu       4.73825118       3.35045068       8.20689262      -0.00000349       0.00000606      -0.00000643
Re      -0.00000080       0.00000093      -0.00000013       0.00000628      -0.00000389       0.00000734
O        1.54617967       1.09331252       5.47126269      -0.00058937      -0.00041819       0.00000134
O        4.77148924       3.37395368       5.47126290       0.00058627       0.00041616       0.00000261
O        3.96516184       1.09331365       4.07466153       0.00029904      -0.00041711      -0.00050879
O        2.35250667       3.37395403       6.86786438      -0.00029087       0.00041378       0.00050199
O        2.35250583       3.37395294       4.07466191      -0.00030154       0.00042105      -0.00050998
O        3.96516248       1.09331296       6.86786351       0.00029743      -0.00041080       0.00050271
