9
Lattice="5.306253562483628 -7.372060945656529e-08 3.063567045817359 1.7687511261702868 5.002783755368989 3.063567031648804 2.1574096505069037e-08 -2.097720676313827e-09 6.127134054267338" Properties=species:S:1:pos:R:3:forces:R:3 energy=-35.49773025512695 free_energy=-35.49773025512695 stress="0.00013748773199040443 1.639290836408236e-08 -8.861284150896154e-09 1.639290836408236e-08 0.00013742432929575443 2.2404393007491308e-08 -8.861284150896154e-09 2.2404393007491308e-08 0.0001374709390802309" pbc="T T T"
Cu       1.76875141       1.25069562       3.06356695       0.00000103      -0.00000160      -0.00000119
Cu       5.30625340       3.75208795       9.19070045      -0.00000005       0.00000091      -0.00000260
Rh       0.00000015      -0.00000007      -0.00000024      -0.00000043       0.00000079       0.00000390
S        1.85691569       1.31303780       6.12713406      -0.00413942      -0.00292748      -0.00000030
S        5.21808880       3.68974596       6.12713475       0.00413984       0.00292903       0.00000078
S        4.37779547       1.31303765       4.67170361       0.00207010      -0.00292942      -0.00358576
S        2.69720917       3.68974599       7.58256479      -0.00206929       0.00292602       0.00358415
S        2.69720906       3.68974606       4.67170351      -0.00206947       0.00292805      -0.00358349
S        4.37779554       1.31303773       7.58256477       0.00206771      -0.00292632       0.00358427
