9
Lattice="5.392034750669989 5.844325717726124e-08 3.1130929409457027 1.7973449146417604 5.083659335342453 3.1130930402770973 2.134075087264573e-08 1.3674593438195442e-07 6.226185844928039" Properties=species:S:1:pos:R:3:forces:R:3 energy=-41.323204040527344 free_energy=-41.323204040527344 stress="-0.00017875467892736197 -4.36728484487503e-08 -2.7635742583242973e-08 -4.36728484487503e-08 -0.00017871864838525653 4.0576811355386155e-10 -2.7635742583242973e-08 4.0576811355386155e-10 -0.0001787282235454768" pbc="T T T"
Cu       1.79734549       1.27091547       3.11309265       0.00000087       0.00000121       0.00000039
Cu       5.39203380       3.81274464       9.33927815      -0.00000260       0.00000066      -0.00000213
Re       0.00000011       0.00000019      -0.00000021      -0.00000026      -0.00000090       0.00000000
S        1.88276643       1.33131673       6.22618593       0.00803232       0.00567794      -0.00000093
S        5.30661352       3.75234237       6.22618605      -0.00803030      -0.00567782       0.00000008
S        4.45065143       1.33131691       4.74361691      -0.00401405       0.00567716       0.00695264
S        2.73872842       3.75234224       7.70875549       0.00401518      -0.00567704      -0.00695127
S        2.73872816       3.75234228       4.74361701       0.00401431      -0.00567853       0.00695300
S        4.45065152       1.33131745       7.70875536      -0.00401476       0.00567758      -0.00695187
