9
Lattice="5.483438066865389 1.7772819372964943e-07 3.1658643193621776 1.8278128674548635 5.169834683135715 3.1658643004204308 -9.50214531437224e-09 -2.991779922500671e-08 6.33172865518247" Properties=species:S:1:pos:R:3:forces:R:3 energy=-35.230796813964844 free_energy=-35.230796813964844 stress="-1.5948194231896196e-06 -2.4793779473952782e-08 9.881746088069576e-09 -2.4793779473952782e-08 -1.5117775546968915e-06 9.901670594558709e-09 9.881746088069576e-09 9.901670594558709e-09 -1.5501742609558278e-06" pbc="T T T"
Cu       1.82781288       1.29245858       3.16586401       0.00000019      -0.00000009      -0.00000094
Cu       5.48343837       3.87737582       9.49759349       0.00000071      -0.00000094       0.00000238
Ru      -0.00000021       0.00000040      -0.00000013       0.00000074      -0.00000094       0.00000005
Se       2.00281080       1.41620156       6.33172901       0.00036542       0.00025817       0.00000037
Se       5.30843957       3.75363379       6.33172821      -0.00036417      -0.00025873      -0.00000184
Se       4.48203254       1.41620173       4.90034932      -0.00018260       0.00025934       0.00031694
Se       2.82921874       3.75363295       7.76310753       0.00018190      -0.00025755      -0.00031384
Se       2.82921836       3.75363311       4.90034997       0.00018052      -0.00025746       0.00031445
Se       4.48203260       1.41620137       7.76310777      -0.00018268       0.00025830      -0.00031766
