9
Lattice="5.480390200406077 8.832839156692313e-08 3.1641047649216354 1.8267967988115876 5.1669613740022795 3.16410479598401 -3.893284656898592e-08 1.0513790846569268e-08 6.328209597276834" Properties=species:S:1:pos:R:3:forces:R:3 energy=-33.55091094970703 free_energy=-33.55091094970703 stress="-3.319868483231403e-05 4.8365972560304726e-08 1.9422284225356634e-08 4.8365972560304726e-08 -3.322287375340238e-05 -1.028652807377739e-08 1.9422284225356634e-08 -1.028652807377739e-08 -3.3272492146352306e-05" pbc="T T T"
Cu       1.82679663       1.29174035       3.16410479      -0.00000019      -0.00000019      -0.00000063
Cu       5.48038999       3.87522097       9.49231437      -0.00000038      -0.00000035       0.00000060
Rh       0.00000073       0.00000005      -0.00000043      -0.00000310       0.00000009       0.00000210
Se       2.02991293       1.43536503       6.32820969      -0.00225917      -0.00159891      -0.00000030
Se       5.27727355       3.73159557       6.32820915       0.00226224       0.00159794      -0.00000146
Se       4.46543398       1.43536492       4.92206069       0.00112874      -0.00159752      -0.00195602
Se       2.84175295       3.73159666       7.73435884      -0.00112874       0.00159712       0.00195555
Se       2.84175314       3.73159688       4.92206081      -0.00112956       0.00159829      -0.00195599
Se       4.46543398       1.43536538       7.73435880       0.00113014      -0.00159640       0.00195619
