9
Lattice="6.3186993651359735 4.953620155424457e-08 3.6481027272345834 2.1062332138814956 5.957326825188032 3.6481026484845818 2.1011164574688394e-10 -9.630009571787109e-08 7.296205454105188" Properties=species:S:1:pos:R:3:forces:R:3 energy=-29.835660934448242 free_energy=-29.835660934448242 stress="-0.00030890991911292076 2.347256611301418e-08 5.772123223835024e-09 2.347256611301418e-08 -0.0003089211240876466 1.6361033639000766e-09 5.772123223835024e-09 1.6361033639000766e-09 -0.0003089442616328597" pbc="T T T"
Cu       2.10623265       1.48933212       3.64810301      -0.00000122       0.00000298       0.00000057
Cu       6.31869969       4.46799503      10.94430880       0.00000109       0.00000016       0.00000385
Sc       0.00000059       0.00000098      -0.00000103      -0.00000388      -0.00000842       0.00000830
Te       2.30431949       1.62939985       7.29620537      -0.00840828      -0.00594415      -0.00000023
Te       6.12061283       4.32792635       7.29620483       0.00841308       0.00594848      -0.00000106
Te       5.16654004       1.62940007       5.64370187       0.00420692      -0.00594644      -0.00728397
Te       3.25839212       4.32792721       8.94870951      -0.00420447       0.00594416       0.00727905
Te       3.25839315       4.32792615       5.64370176      -0.00420619       0.00594759      -0.00728606
Te       5.16653971       1.62939931       8.94870906       0.00420294      -0.00594433       0.00727960
