9
Lattice="6.110074716197734 -1.2969973640111208e-07 3.5276530731351934 2.0366914863532064 5.76063283971434 3.5276530097951446 1.3674394811541183e-07 1.911730834087919e-08 7.055305909422919" Properties=species:S:1:pos:R:3:forces:R:3 energy=-26.462724685668945 free_energy=-26.462724685668945 stress="5.501466148416512e-06 -2.2732165039229812e-09 3.991256658508746e-09 -2.2732165039229812e-09 5.425533345260192e-06 -2.670070209376263e-08 3.991256658508746e-09 -2.670070209376263e-08 5.456709914142266e-06" pbc="T T T"
Cu       2.03669155       1.44015706       3.52765343      -0.00000067      -0.00000719       0.00000128
Cu       6.11007428       4.32047740      10.58296037      -0.00000332       0.00001370       0.00000677
Si      -0.00000038      -0.00000029       0.00000062       0.00000180       0.00000006      -0.00000255
Te       2.15858221       1.52634563       7.05530626       0.00255027       0.00179552       0.00000031
Te       5.98818487       4.23428678       7.05530487      -0.00255026      -0.00179799      -0.00000332
Te       5.03078367       1.52634595       5.39703891      -0.00127555       0.00179649       0.00220724
Te       3.11598247       4.23428673       8.71357283       0.00127450      -0.00179575      -0.00220687
Te       3.11598309       4.23428628       5.39703836       0.00127761      -0.00179892       0.00220489
Te       5.03078362       1.52634539       8.71357231      -0.00127442       0.00179405      -0.00220785
