9
Lattice="6.356553482516688 -1.756564958949046e-08 3.6699579979063883 2.118851137466928 5.993016271425345 3.669958009703225 1.7501190667871304e-08 2.6823322431746972e-08 7.339915965499843" Properties=species:S:1:pos:R:3:forces:R:3 energy=-25.409624099731445 free_energy=-25.409624099731445 stress="1.2806380027541309e-06 5.166846950288573e-09 -1.0197084843177606e-10 5.166846950288573e-09 1.2738815939883352e-06 -8.014785279897296e-09 -1.0197084843177606e-10 -8.014785279897296e-09 1.2567714975375566e-06" pbc="T T T"
Cu       2.11885150       1.49825430       3.66995798       0.00000139       0.00000082      -0.00000069
Cu       6.35655313       4.49476183      11.00987423      -0.00000220      -0.00000109       0.00000136
Sn       0.00000035       0.00000008      -0.00000053      -0.00000077       0.00000055       0.00000365
Te       2.36506620       1.67235430       7.33991604       0.00125244       0.00088476       0.00000080
Te       6.11033849       4.32066180       7.33991579      -0.00125374      -0.00088671      -0.00000081
Te       5.17402006       1.67235472       5.71816522      -0.00062589       0.00088676       0.00108394
Te       3.30138418       4.32066180       8.96166698       0.00062835      -0.00088716      -0.00108673
Te       3.30138447       4.32066176       5.71816529       0.00062715      -0.00088618       0.00108421
Te       5.17402017       1.67235456       8.96166695      -0.00062676       0.00088824      -0.00108567
