9
Lattice="4.510011459800102 1.5087931798901214e-08 2.6038560850714094 1.5033371892821001 4.2520788937109275 2.6038560473293777 1.34458517670661e-07 4.885217902676656e-08 5.207711937253844" Properties=species:S:1:pos:R:3:forces:R:3 energy=-37.432342529296875 free_energy=-37.432342529296875 stress="1.6626465367153287e-05 2.0029004232924308e-08 1.5944475961759963e-08 2.0029004232924308e-08 1.66207773872884e-05 7.110541133670267e-08 1.5944475961759963e-08 7.110541133670267e-08 1.6212019545491785e-05" pbc="T T T"
Cu       1.50333793       1.06301970       2.60385409       0.00000527      -0.00000161      -0.00002757
Cu       4.51001107       3.18906066       7.81156882      -0.00000283       0.00001123      -0.00001290
Se       0.00000023      -0.00000028      -0.00000929       0.00000386       0.00000031      -0.00013042
O        1.53329739       1.08420385       5.20771290      -0.00306356      -0.00216901       0.00002757
O        4.48005206       3.16787395       5.20771319       0.00306678       0.00216389       0.00002516
O        3.74336265       1.08420468       3.93173164       0.00152975      -0.00216568      -0.00262880
O        2.26998577       3.16787443       6.48369670      -0.00153351       0.00216353       0.00268674
O        2.26998600       3.16787562       3.93173305      -0.00153291       0.00216985      -0.00262320
O        3.74336220       1.08420390       6.48369555       0.00152719      -0.00217223       0.00268543
