9
Lattice="4.470440362577893 1.3765632869481816e-07 2.581010001709641 1.4901469027979302 4.214771781800565 2.5810100268445964 -6.698759284391931e-08 -1.658347448528494e-08 5.162020119445197" Properties=species:S:1:pos:R:3:forces:R:3 energy=-45.651554107666016 free_energy=-45.651554107666016 stress="-0.00060974684311077 -4.176173362679947e-08 1.2239634195054805e-08 -4.176173362679947e-08 -0.0006094669224694371 -9.619926188975114e-09 1.2239634195054805e-08 -9.619926188975114e-09 -0.0006094638374634087" pbc="T T T"
Cu       1.49014696       1.05369324       2.58101028      -0.00000090       0.00000154       0.00000173
Cu       4.47044034       3.16107888       7.74302978       0.00000094       0.00000025      -0.00000234
Si      -0.00000003      -0.00000007      -0.00000014       0.00000107      -0.00000085      -0.00000353
O        1.41822543       1.00283684       5.16201998       0.00758648       0.00536180      -0.00000220
O        4.54236154       3.21193515       5.16202035      -0.00758410      -0.00536233       0.00000171
O        3.76132768       1.00283691       3.80922953      -0.00379342       0.00536096       0.00656492
O        2.19925918       3.21193465       6.51481055       0.00378913      -0.00536001      -0.00655979
O        2.19925966       3.21193471       3.80922950       0.00378901      -0.00536060       0.00656044
O        3.76132810       1.00283713       6.51481039      -0.00378895       0.00535941      -0.00656104
