9
Lattice="5.49868869918422 -3.5547291566358314e-08 3.174669388858048 1.8328961878936734 5.18421355602845 3.1746694090423353 -4.090104058318365e-08 -4.200731578153329e-09 6.349338848558741" Properties=species:S:1:pos:R:3:forces:R:3 energy=-28.904022216796875 free_energy=-28.904022216796875 stress="-6.671115988865495e-05 -1.8582966276881052e-08 2.646985208798469e-08 -1.8582966276881052e-08 -6.664037937298417e-05 -2.6804148234305103e-08 2.646985208798469e-08 -2.6804148234305103e-08 -6.664861575700343e-05" pbc="T T T"
Cu       1.83289585       1.29605348       3.17466906      -0.00000039       0.00000044      -0.00000038
Cu       5.49868878       3.88816049       9.52400846       0.00000031      -0.00000021       0.00000100
Se      -0.00000017      -0.00000008      -0.00000048       0.00000036       0.00000526       0.00001624
S        1.78845935       1.26463163       6.34933813      -0.00351357      -0.00248480      -0.00000215
S        5.54312599       3.91958151       6.34933776       0.00351018       0.00248119      -0.00000338
S        4.60445936       1.26463171       4.72352124       0.00176129      -0.00248998      -0.00304604
S        2.72712559       3.91958163       7.97515783      -0.00175184       0.00247654       0.00303715
S        2.72712592       3.91958189       4.72352144      -0.00176159       0.00249225      -0.00304586
S        4.60445868       1.26463189       7.97515722       0.00175506      -0.00248086       0.00304353
