9
Lattice="5.550213061647697 5.5011496835568106e-08 3.204416989014419 1.8500710381181997 5.232791328278886 3.2044170484174748 -1.192796454694267e-07 -1.1589891154759308e-08 6.408834184627262" Properties=species:S:1:pos:R:3:forces:R:3 energy=-29.49064064025879 free_energy=-29.49064064025879 stress="-3.577714232960716e-05 -4.937840003549354e-08 2.367045226492337e-08 -4.937840003549354e-08 -3.586753155104816e-05 1.7894338455448633e-08 2.367045226492337e-08 1.7894338455448633e-08 -3.58301040250808e-05" pbc="T T T"
Cu       1.85007125       1.30819767       3.20441710       0.00000096      -0.00000037      -0.00000046
Cu       5.55021274       3.92459338       9.61325182      -0.00000110      -0.00000062       0.00000211
Sn       0.00000013      -0.00000008       0.00000111      -0.00000165       0.00000305      -0.00001227
S        2.03211986       1.43692561       6.40883414      -0.00343340      -0.00242918      -0.00000050
S        5.36816417       3.79586579       6.40883292       0.00343449       0.00243087      -0.00000359
S        4.53415314       1.43692548       4.96428428       0.00171535      -0.00242792      -0.00297229
S        2.86613140       3.79586483       7.85338364      -0.00171870       0.00242902       0.00297826
S        2.86613099       3.79586611       4.96428415      -0.00171394       0.00242775      -0.00297125
S        4.53415232       1.43692668       7.85338370       0.00171805      -0.00243255       0.00298008
