9
Lattice="4.626208615435723 1.1370406389167758e-08 2.6709424992835538 1.542069629637348 4.361630657605906 2.670942359959711 1.1350861535806417e-07 -9.037350884558537e-08 5.341884801964416" Properties=species:S:1:pos:R:3:forces:R:3 energy=-37.73551940917969 free_energy=-37.73551940917969 stress="-7.485724927391857e-05 9.186983618292288e-08 1.3959577493949382e-08 9.186983618292288e-08 -7.483142690034583e-05 2.1800728333687402e-08 1.3959577493949382e-08 2.1800728333687402e-08 -7.510446448577568e-05" pbc="T T T"
Cu       1.54206963       1.09040716       2.67094222       0.00000140      -0.00000435      -0.00000192
Cu       4.62620882       3.27122296       8.01282761      -0.00000086       0.00000252       0.00000378
Sn      -0.00000003       0.00000051       0.00000010      -0.00000141      -0.00000704       0.00000021
O        1.65793674       1.17233818       5.34188487       0.00048792       0.00034571       0.00000084
O        4.51034112       3.18929293       5.34188464      -0.00048667      -0.00034046      -0.00000286
O        3.79724072       1.17233780       4.10675754      -0.00024477       0.00034767       0.00042713
O        2.37103801       3.18929223       6.57701207       0.00024229      -0.00034469      -0.00042331
O        2.37103815       3.18929253       4.10675730       0.00024617      -0.00034589       0.00042289
O        3.79724049       1.17233789       6.57701218      -0.00024423       0.00034672      -0.00042635
