9
Lattice="5.404859667846676 -1.875111046079897e-07 3.120497302620831 1.8016197014207134 5.0957509453716865 3.120497321802149 -1.98824634679191e-07 -1.170980085361937e-07 6.240994949616084" Properties=species:S:1:pos:R:3:forces:R:3 energy=-32.03525161743164 free_energy=-32.03525161743164 stress="-1.2622263056982774e-05 6.9657337675721465e-09 1.6598910690390767e-08 6.9657337675721465e-09 -1.2659262210945599e-05 2.4862071512643524e-08 1.6598910690390767e-08 2.4862071512643524e-08 -1.2660701031563804e-05" pbc="T T T"
Cu       1.80161973       1.27393797       3.12049722       0.00000048      -0.00000033      -0.00000020
Cu       5.40485897       3.82181235       9.36149113      -0.00000027      -0.00000133      -0.00000174
Si      -0.00000015      -0.00000007       0.00000000       0.00000281       0.00000053      -0.00000203
S        1.82976817       1.29384185       6.24099475       0.00008607       0.00006235      -0.00000114
S        5.37671090       3.80190917       6.24099487      -0.00008994      -0.00006193      -0.00000167
S        4.48997563       1.29384119       4.70512344      -0.00004384       0.00006181       0.00007761
S        2.71650431       3.80190893       7.77686653       0.00004393      -0.00006056      -0.00007236
S        2.71650367       3.80190926       4.70512346       0.00004363      -0.00006270       0.00007564
S        4.48997526       1.29384198       7.77686661      -0.00004256       0.00006202      -0.00007421
