9
Lattice="4.625230468194774 -1.3612334750363105e-09 2.6703781592559737 1.5417435204574774 4.3607087254471235 2.6703781032369345 6.645711986383381e-08 -2.161674594038567e-08 5.340756203404894" Properties=species:S:1:pos:R:3:forces:R:3 energy=-37.735496520996094 free_energy=-37.735496520996094 stress="-0.0005157687701284885 5.960336224575258e-08 -1.0256017901610903e-07 5.960336224575258e-08 -0.0005156843108125031 6.931021800937742e-08 -1.0256017901610903e-07 6.931021800937742e-08 -0.0005157405394129455" pbc="T T T"
Cu       1.54174420       1.09017682       2.67037764       0.00000434      -0.00000388      -0.00000496
Cu       4.62523103       3.27053179       8.01113568       0.00000516       0.00000434       0.00001305
Sn       0.00000035      -0.00000024      -0.00000034      -0.00000636       0.00000367       0.00000088
O        1.65745065       1.17199456       5.34075644       0.00688803       0.00487286      -0.00000005
O        4.50952339       3.18871383       5.34075538      -0.00688708      -0.00486970      -0.00000637
O        3.79650471       1.17199416       4.10577255      -0.00344631       0.00486970       0.00596201
O        2.37046819       3.18871446       6.57574026       0.00344232      -0.00487363      -0.00597119
O        2.37046907       3.18871559       4.10577211       0.00345021      -0.00487196       0.00597334
O        3.79650470       1.17199387       6.57574031      -0.00344998       0.00486857      -0.00596684
