9
Lattice="5.743508095760811 1.620827995867481e-08 3.3160160334164637 1.9145029046396667 5.415031391719234 3.316015702990679 1.3869226789169106e-07 -3.066170979045566e-07 6.632031826610854" Properties=species:S:1:pos:R:3:forces:R:3 energy=-29.123292922973633 free_energy=-29.123292922973633 stress="6.290533929131925e-05 6.6109242524703404e-09 2.6834388933139053e-08 6.6109242524703404e-09 6.283516268013045e-05 1.0177684472978399e-08 2.6834388933139053e-08 1.0177684472978399e-08 6.282560934778303e-05" pbc="T T T"
Cu       1.91450325       1.35375891       3.31601631       0.00000056       0.00000225       0.00000012
Cu       5.74350777       4.06127425       9.94804791      -0.00000110       0.00000097       0.00000029
Sn       0.00000008      -0.00000006       0.00000076       0.00000080      -0.00000323      -0.00000786
Se       2.23594902       1.58105288       6.63203231       0.00273154       0.00192926      -0.00000067
Se       5.42206121       3.83397716       6.63203127      -0.00272776      -0.00192680      -0.00000032
Se       4.62553479       1.58105404       5.25240339      -0.00136735       0.00193295       0.00236629
Se       3.03247748       3.83397585       8.01165994       0.00136266      -0.00193053      -0.00236108
Se       3.03247712       3.83397711       5.25240308       0.00136492      -0.00193306       0.00236496
Se       4.62553385       1.58105430       8.01165927      -0.00136432       0.00192813      -0.00236168
