9
Lattice="5.49925129396539 1.4143593343403172e-07 3.17499405506369 1.8330839270948565 5.1847437152903 3.174994004673693 3.9366533423439147e-08 -3.387852800172957e-08 6.349988041942504" Properties=species:S:1:pos:R:3:forces:R:3 energy=-28.904033660888672 free_energy=-28.904033660888672 stress="-2.0084469724679366e-05 9.636075049002102e-08 -5.541721526114429e-10 9.636075049002102e-08 -2.019241037487518e-05 2.8252390649186054e-08 -5.541721526114429e-10 2.8252390649186054e-08 -2.0256935385987163e-05" pbc="T T T"
Cu       1.83308345       1.29618585       3.17499422      -0.00000152      -0.00000038       0.00000006
Cu       5.49925116       3.88855781       9.52498279      -0.00000049      -0.00000039       0.00000160
Se       0.00000005       0.00000007      -0.00000045      -0.00000228      -0.00000809       0.00000877
S        1.78834406       1.26454983       6.34998796      -0.00026548      -0.00018832       0.00000084
S        5.54399132       3.92019400       6.34998754       0.00027126       0.00019309       0.00000029
S        4.60507994       1.26454996       4.72374437       0.00013167      -0.00018510      -0.00022525
S        2.72725541       3.92019434       7.97623175      -0.00012848       0.00018257       0.00022399
S        2.72725567       3.92019415       4.72374431      -0.00013152       0.00018618      -0.00022864
S        4.60508003       1.26454924       7.97623179       0.00012642      -0.00017944       0.00021839
