9
Lattice="5.452703045812611 6.990798276188617e-08 3.1481194967057426 1.8175676868443023 5.140858263247815 3.1481196023662177 -7.595538765604121e-08 7.569861527700221e-08 6.2962391249699765" Properties=species:S:1:pos:R:3:forces:R:3 energy=-30.950408935546875 free_energy=-30.950408935546875 stress="0.000474505010060966 -1.0552954066156417e-09 2.0997465099981127e-08 -1.0552954066156417e-09 0.000474477099487558 -9.118533705887444e-10 2.0997465099981127e-08 -9.118533705887444e-10 0.000474525528261438" pbc="T T T"
Cu       1.81756929       1.28521588       3.14811945       0.00000362       0.00000252      -0.00000051
Cu       5.45270250       3.85564310       9.44435881      -0.00000106      -0.00000178       0.00000043
Si      -0.00000011      -0.00000004      -0.00000001      -0.00000124       0.00000029       0.00000009
Se       2.04104928       1.44323993       6.29623927       0.00273952       0.00193578      -0.00000008
Se       5.22922129       3.69761807       6.29623946      -0.00273968      -0.00193742       0.00000138
Se       4.43217807       1.44324058       4.91571971      -0.00137069       0.00193726       0.00237281
Se       2.83809209       3.69761814       7.67675818       0.00137040      -0.00193707      -0.00237382
Se       2.83809240       3.69761785       4.91571988       0.00136917      -0.00193650       0.00237276
Se       4.43217774       1.44324015       7.67675817      -0.00137006       0.00193698      -0.00237307
