9
Lattice="6.356586303185479 1.1901793308100372e-07 3.6699766609614595 2.118862111783524 5.993047152108983 3.6699768367463608 -1.4262973495799878e-07 1.1443718024256954e-07 7.33995356896479" Properties=species:S:1:pos:R:3:forces:R:3 energy=-25.409626007080078 free_energy=-25.409626007080078 stress="5.295726623444352e-06 2.198939919040299e-09 -2.689230393926323e-09 2.198939919040299e-09 5.3013213801023085e-06 7.887159370056906e-09 -2.689230393926323e-09 7.887159370056906e-09 5.301526016410207e-06" pbc="T T T"
Cu       2.11886243       1.49826203       3.66997665       0.00000116      -0.00000038      -0.00000113
Cu       6.35658590       4.49478553      11.00992967      -0.00000050      -0.00000107      -0.00000243
Sn       0.00000042      -0.00000034      -0.00000073      -0.00000060       0.00000056       0.00000558
Te       2.36516538       1.67242465       7.33995381       0.00077857       0.00054969      -0.00000039
Te       6.11028232       4.32062263       7.33995394      -0.00077683      -0.00055021      -0.00000038
Te       5.17400345       1.67242466       5.71827014      -0.00038902       0.00054961       0.00067344
Te       3.30144524       4.32062251       8.96163675       0.00038866      -0.00054906      -0.00067300
Te       3.30144476       4.32062262       5.71827062       0.00038832      -0.00055075       0.00067294
Te       5.17400315       1.67242527       8.96163740      -0.00038978       0.00055154      -0.00067462
