9
Lattice="5.640190812373808 1.3762732772979667e-07 3.2563657466507117 1.880063855193436 5.31762235282793 3.2563655365312902 2.798007202149008e-07 -5.949370475795434e-08 6.512731008672316" Properties=species:S:1:pos:R:3:forces:R:3 energy=-32.25688171386719 free_energy=-32.25688171386719 stress="0.0004042317159473896 3.1688319523937025e-08 -4.14433003470549e-08 3.1688319523937025e-08 0.00040435834671370685 1.725779164019059e-08 -4.14433003470549e-08 1.725779164019059e-08 0.00040416678530164063" pbc="T T T"
Cu       1.88006394       1.32940545       3.25636571       0.00000036       0.00000010       0.00000050
Cu       5.64019107       3.98821678       9.76909710      -0.00000038      -0.00000035      -0.00000014
Sc      -0.00000033       0.00000012      -0.00000123       0.00000560      -0.00000033       0.00001187
Se       2.11604472       1.49627092       6.51273182      -0.00572999      -0.00404453       0.00000073
Se       5.40421075       3.82135364       6.51273249       0.00572656       0.00405090       0.00000281
Se       4.58216846       1.49626908       5.08891297       0.00286081      -0.00404817      -0.00496420
Se       2.93808630       3.82135220       7.93654771      -0.00286314       0.00404651       0.00495493
Se       2.93808606       3.82135244       5.08891335      -0.00286344       0.00404535      -0.00496411
Se       4.58216885       1.49626909       7.93654928       0.00286371      -0.00404957       0.00495756
