9
Lattice="4.511942958373267 4.5423942174120253e-08 2.604971387883577 1.5039810284404955 4.253900675447169 2.60497138876706 4.905842325919464e-08 3.5771511198884974e-08 5.20994269079549" Properties=species:S:1:pos:R:3:forces:R:3 energy=-37.43231201171875 free_energy=-37.43231201171875 stress="7.10119420546107e-05 1.7811041530535476e-08 -5.437234218419462e-09 1.7811041530535476e-08 7.087545964168385e-05 -8.504237314355123e-09 -5.437234218419462e-09 -8.504237314355123e-09 7.091573206707835e-05" pbc="T T T"
Cu       1.50398016       1.06347390       2.60497214      -0.00002943      -0.00003043       0.00001687
Cu       4.51194103       3.19042409       7.81491622      -0.00004011      -0.00003036       0.00002687
Se      -0.00001335      -0.00001203       0.00000614      -0.00020175      -0.00018222       0.00009834
O        1.53254017       1.08366913       5.20994174       0.00643456       0.00455630      -0.00002195
O        4.48338979       3.17023635       5.20994082      -0.00633740      -0.00447261      -0.00002201
O        3.74567729       1.08367022       3.93218569      -0.00314701       0.00455499       0.00550640
O        2.27025204       3.17023597       6.48769656       0.00323516      -0.00447464      -0.00555730
O        2.27025266       3.17023545       3.93218487       0.00323397      -0.00447679       0.00550318
O        3.74567685       1.08366969       6.48769727      -0.00314659       0.00455534      -0.00555122
