9
Lattice="4.437534259241873 2.484245413566617e-07 2.5620116800220947 1.479178249482304 4.183747826390188 2.562011803254994 6.099984262299068e-08 1.940622461320075e-07 5.124023254389363" Properties=species:S:1:pos:R:3:forces:R:3 energy=-41.7176513671875 free_energy=-41.7176513671875 stress="-2.2619226001552306e-05 8.9088914023705e-09 -3.2810113737014035e-08 8.9088914023705e-09 -2.2350679500959814e-05 -3.0773435355513357e-08 -3.2810113737014035e-08 -3.0773435355513357e-08 -2.2402398826670833e-05" pbc="T T T"
Cu       1.47917853       1.04593722       2.56201147       0.00000075       0.00000110      -0.00000058
Cu       4.43753429       3.13781120       7.68603484       0.00000084      -0.00000000      -0.00000322
S       -0.00000026       0.00000021       0.00000002       0.00000733      -0.00000995       0.00000488
O        1.32548918       0.93726300       5.12402341       0.00008225       0.00005686       0.00000362
O        4.59122346       3.24648545       5.12402343      -0.00008321      -0.00005686       0.00000086
O        3.77478954       0.93726315       3.70991910      -0.00004184       0.00005853       0.00006843
O        2.14192322       3.24648542       6.53812781       0.00004375      -0.00005984      -0.00006509
O        2.14192255       3.24648531       3.70991970       0.00003481      -0.00004697       0.00005913
O        3.77478989       0.93726282       6.53812744      -0.00004399       0.00005686      -0.00006771
