9
Lattice="5.5140703011216115 6.907937504078134e-08 3.1835501073127572 1.8380235240902967 5.198715549902817 3.1835500635707836 8.186671916070597e-08 4.315740027846878e-09 6.367100072828207" Properties=species:S:1:pos:R:3:forces:R:3 energy=-33.98320388793945 free_energy=-33.98320388793945 stress="8.740817429497838e-05 -3.0787660421083274e-08 -3.680936444538929e-08 -3.0787660421083274e-08 8.738236647332087e-05 2.208753180354961e-08 -3.680936444538929e-08 2.208753180354961e-08 8.733347931411117e-05" pbc="T T T"
Cu       1.83802330       1.29967851       3.18355007      -0.00000021      -0.00000066       0.00000154
Cu       5.51407007       3.89903681       9.55065051      -0.00000136       0.00000120       0.00000128
Sc      -0.00000027      -0.00000016      -0.00000025       0.00000399       0.00000113       0.00000205
S        1.99525688       1.41085946       6.36710027      -0.00198196      -0.00140126      -0.00000142
S        5.35683732       3.78785636       6.36709998       0.00198010       0.00140002      -0.00000149
S        4.51644216       1.41085994       4.91149314       0.00099050      -0.00140328      -0.00171709
S        2.83565189       3.78785615       7.82270725      -0.00098880       0.00140082       0.00171575
S        2.83565217       3.78785599       4.91149305      -0.00099134       0.00140116      -0.00171503
S        4.51644212       1.41085943       7.82270699       0.00098909      -0.00139909       0.00171442
