9
Lattice="5.761342174791081 -8.932143907306786e-08 3.3263122770838405 1.9204472522608154 5.431845405683044 3.326312372559796 -7.978479822510503e-08 6.051741865945448e-08 6.652624692359019" Properties=species:S:1:pos:R:3:forces:R:3 energy=-28.57601547241211 free_energy=-28.57601547241211 stress="-1.3513732483261265e-05 -1.4491771338498438e-08 -1.2761430134844431e-08 -1.4491771338498438e-08 -1.3526561815524474e-05 1.2235882307365387e-09 -1.2761430134844431e-08 1.2235882307365387e-09 -1.3532359844248276e-05" pbc="T T T"
Cu       1.92044783       1.35796166       3.32631234       0.00000029       0.00000040      -0.00000011
Cu       5.76134213       4.07388401       9.97893764       0.00000110       0.00000015       0.00000182
Te       0.00000070       0.00000033       0.00000040      -0.00001081      -0.00000310      -0.00000546
Se       2.31649736       1.63801109       6.65262484       0.00501171       0.00354588      -0.00000034
Se       5.36528930       3.79383235       6.65262419      -0.00498620      -0.00352259      -0.00000058
Se       4.60309314       1.63801253       5.33245928      -0.00250439       0.00353047       0.00432512
Se       3.07869693       3.79383358       7.97279035       0.00249423      -0.00353755      -0.00433081
Se       3.07869702       3.79383362       5.33245873       0.00249642      -0.00354122       0.00433373
Se       4.60309297       1.63801240       7.97278951      -0.00250235       0.00352760      -0.00432315
