9
Lattice="5.366705530554565 1.2930487555361374e-08 3.0984690360591145 1.7889018649830806 5.059778691482429 3.0984690199961693 7.903053827993692e-08 3.6210060304091363e-08 6.196937935233343" Properties=species:S:1:pos:R:3:forces:R:3 energy=-37.69891357421875 free_energy=-37.69891357421875 stress="0.0002487819583620876 -5.744631081938678e-08 9.399484746097642e-09 -5.744631081938678e-08 0.00024880547425709665 -1.0530952998522025e-08 9.399484746097642e-09 -1.0530952998522025e-08 0.0002488837926648557" pbc="T T T"
Cu       1.78890195       1.26494455       3.09846918      -0.00000038      -0.00000005       0.00000003
Cu       5.36670566       3.79483397       9.29540679       0.00000044      -0.00000024      -0.00000014
Ti       0.00000007       0.00000022       0.00000022      -0.00000116      -0.00000153      -0.00000212
S        1.88969734       1.33621806       6.19693788      -0.00782913      -0.00553519      -0.00000102
S        5.26591004       3.72356055       6.19693782       0.00783050       0.00553593      -0.00000135
S        4.42185664       1.33621772       4.73499533       0.00391507      -0.00553666      -0.00678252
S        2.73375091       3.72356064       7.65888054      -0.00391762       0.00554100       0.00678551
S        2.73375061       3.72356093       4.73499532      -0.00391541       0.00553733      -0.00678372
S        4.42185663       1.33621830       7.65888091       0.00391780      -0.00554062       0.00678560
