9
Lattice="5.722484669294649 1.0300461475544783e-07 3.3038781646384385 1.9074949201717564 5.395210233260739 3.3038782801780875 3.6566881662495535e-08 1.6736326779730126e-07 6.607756265941196" Properties=species:S:1:pos:R:3:forces:R:3 energy=-27.37125587463379 free_energy=-27.37125587463379 stress="-5.847182819707086e-06 8.285534391916372e-08 -4.299793232576121e-08 8.285534391916372e-08 -5.891135515412316e-06 1.2690229311829171e-08 -4.299793232576121e-08 1.2690229311829171e-08 -6.012659468979109e-06" pbc="T T T"
Cu       1.90749497       1.34880248       3.30387832      -0.00000011       0.00000034       0.00000170
Cu       5.72248444       4.04640760       9.91163346      -0.00000052      -0.00000188      -0.00000498
Te       0.00000009      -0.00000008       0.00000012      -0.00000704       0.00000239       0.00000232
S        1.92740516       1.36288156       6.60775629      -0.00677788      -0.00479221       0.00000015
S        5.70257432       4.03232865       6.60775720       0.00678194       0.00479501       0.00000331
S        4.75878165       1.36288146       4.97305970       0.00338721      -0.00479347      -0.00587159
S        2.87119780       4.03232932       8.24245273      -0.00338551       0.00478962       0.00586522
S        2.87119729       4.03232939       4.97306007      -0.00338611       0.00478694      -0.00586230
S        4.75878269       1.36288171       8.24245305       0.00338760      -0.00478679       0.00586593
