9
Lattice="6.130754809525982 -2.1946267844400944e-07 3.539592835724914 2.043584772668382 5.7801308016879664 3.5395927611236537 -1.503497652038526e-07 -1.9768098858352057e-07 7.079185931863358" Properties=species:S:1:pos:R:3:forces:R:3 energy=-31.60089874267578 free_energy=-31.60089874267578 stress="3.679511428344995e-05 3.7193739643726076e-08 -2.5328311670236303e-10 3.7193739643726076e-08 3.6758752685273066e-05 -2.364971551926942e-10 -2.5328311670236303e-10 -2.364971551926942e-10 3.673352694022469e-05" pbc="T T T"
Cu       2.04358409       1.44503064       3.53959353      -0.00000255      -0.00000717       0.00000236
Cu       6.13075534       4.33509804      10.61877933       0.00000204       0.00000282       0.00000222
Ti      -0.00000009       0.00000013      -0.00000107      -0.00000073      -0.00000047       0.00000806
Te       2.18039514       1.54177133       7.07918612      -0.00020356      -0.00014560       0.00000106
Te       5.99394352       4.23835958       7.07918594       0.00020596       0.00014813       0.00000145
Te       5.04055702       1.54177206       5.42786978       0.00010323      -0.00014580      -0.00017810
Te       3.13378192       4.23835968       8.73050097      -0.00010185       0.00014345       0.00017152
Te       3.13378269       4.23835919       5.42787034      -0.00010376       0.00014682      -0.00017815
Te       5.04055810       1.54177087       8.73050114       0.00010117      -0.00014217       0.00016955
