9
Lattice="5.38649299149896 1.5177718137703122e-07 3.1098934051660954 1.7954977158780199 5.078434712933348 3.109893562872509 -1.3218332342133524e-08 1.8380331743145628e-07 6.219786833226995" Properties=species:S:1:pos:R:3:forces:R:3 energy=-41.8729133605957 free_energy=-41.8729133605957 stress="8.9619379650685e-06 3.6263756442167505e-08 -5.696551497180735e-08 3.6263756442167505e-08 8.831461855152156e-06 4.417881172003035e-08 -5.696551497180735e-08 4.417881172003035e-08 8.827804776956327e-06" pbc="T T T"
Cu       1.79549819       1.26960804       3.10989351       0.00000060      -0.00000044       0.00000041
Cu       5.38649291       3.80882636       9.32967970      -0.00000047      -0.00000061      -0.00000055
Ta       0.00000024       0.00000010      -0.00000002      -0.00000471      -0.00000237       0.00000314
S        1.93429156       1.36775089       6.21978676      -0.00124219      -0.00087853      -0.00000224
S        5.24769902       3.71068429       6.21978719       0.00124612       0.00088145      -0.00000035
S        4.41934699       1.36775107       4.78503928       0.00062351      -0.00087970      -0.00107816
S        2.76264387       3.71068432       7.65453460      -0.00061996       0.00087914       0.00107652
S        2.76264317       3.71068408       4.78503944      -0.00062077       0.00087617      -0.00107211
S        4.41934682       1.36775105       7.65453479       0.00061788      -0.00087515       0.00107348
