9
Lattice="5.628369943198372 -8.588886024574953e-08 3.2495408523131504 1.8761232872772473 5.306478047070367 3.249540759034212 5.292409296684116e-08 -7.68199055462112e-08 6.499081612959081" Properties=species:S:1:pos:R:3:forces:R:3 energy=-38.511356353759766 free_energy=-38.511356353759766 stress="-9.199800115311518e-05 3.8852636663477824e-08 -7.017417757992916e-10 3.8852636663477824e-08 -9.201865032082424e-05 -2.5964958183521958e-08 -7.017417757992916e-10 -2.5964958183521958e-08 -9.203504305332899e-05" pbc="T T T"
Cu       1.87612400       1.32661943       3.24954062       0.00000119       0.00000012      -0.00000095
Cu       5.62836979       3.97985734       9.74862289       0.00000059      -0.00000174       0.00000112
Ta      -0.00000014      -0.00000004      -0.00000046      -0.00000061       0.00000052       0.00000346
Se       2.04176203       1.44374403       6.49908130      -0.00169284      -0.00119692      -0.00000008
Se       5.46273103       3.86273462       6.49908139       0.00169267       0.00119612      -0.00000006
Se       4.60748933       1.44374421       5.01775833       0.00084646      -0.00119440      -0.00146620
Se       2.89700405       3.86273446       7.98040530      -0.00084470       0.00119421       0.00146299
Se       2.89700423       3.86273409       5.01775874      -0.00084630       0.00119616      -0.00146475
Se       4.60748879       1.44374343       7.98040486       0.00084355      -0.00119409       0.00146441
