9
Lattice="6.1296919010582105 2.7056373508741674e-08 3.538979221616219 2.0432306045362125 5.7791293106189405 3.5389793162880614 1.0821174612150927e-08 1.236006569928465e-07 7.077958424489546" Properties=species:S:1:pos:R:3:forces:R:3 energy=-31.60089111328125 free_energy=-31.60089111328125 stress="-0.00012078374129487202 -1.397066284880566e-08 -9.849267179617982e-09 -1.397066284880566e-08 -0.00012074598635081202 -1.3537765575222238e-08 -9.849267179617982e-09 -1.3537765575222238e-08 -0.00012071923265466467" pbc="T T T"
Cu       2.04323045       1.44478253       3.53897906       0.00000096       0.00000007      -0.00000083
Cu       6.12969152       4.33434583      10.61693911      -0.00000159      -0.00000686       0.00000952
Ti       0.00000018      -0.00000012       0.00000061       0.00000007       0.00000025      -0.00000299
Te       2.17976577       1.54132848       7.07795809       0.00382863       0.00271007      -0.00000189
Te       5.99315652       4.23780132       7.07795737      -0.00382669      -0.00270682      -0.00000422
Te       5.03980911       1.54132841       5.42671211      -0.00191375       0.00270806       0.00331434
Te       3.13311353       4.23780137       8.72920471       0.00191315      -0.00270722      -0.00331458
Te       3.13311423       4.23780184       5.42671198       0.00191495      -0.00270506       0.00331495
Te       5.03980878       1.54132821       8.72920486      -0.00191567       0.00270753      -0.00331432
