9
Lattice="4.58156658953524 6.969055695810457e-08 2.645168745276215 1.5271889900259918 4.319542224214067 2.6451686393740386 2.489101368589635e-08 -1.1210260017577759e-07 5.29033744744002" Properties=species:S:1:pos:R:3:forces:R:3 energy=-46.94060134887695 free_energy=-46.94060134887695 stress="-0.00011592708324315026 4.166424716345318e-08 2.5710898299280416e-08 4.166424716345318e-08 -0.00011591621296247467 -6.069495128713243e-08 2.5710898299280416e-08 -6.069495128713243e-08 -0.0001158636441687122" pbc="T T T"
Cu       1.52718889       1.07988425       2.64516696       0.00000002      -0.00000981      -0.00001527
Cu       4.58156502       3.23965717       7.93550589      -0.00001405       0.00000429      -0.00000202
Ti       0.00000012       0.00000004       0.00000023      -0.00000244       0.00000010      -0.00000411
O        1.55019607       1.09615392       5.29033779      -0.00159782      -0.00113440       0.00000493
O        4.55855956       3.22338836       5.29033712       0.00159967       0.00113541      -0.00000050
O        3.80646921       1.09615356       3.98767821       0.00080168      -0.00113064      -0.00137806
O        2.30228761       3.22338767       6.59299777      -0.00079212       0.00112832       0.00138938
O        2.30228793       3.22338920       3.98767805      -0.00079194       0.00113946      -0.00138319
O        3.80646815       1.09615427       6.59299710       0.00079727      -0.00113279       0.00138837
