9
Lattice="5.366054154729277 -4.729121023210907e-08 3.098092906821153 1.7886846680918198 5.0591643917567914 3.098092916459525 -8.169595082623897e-08 -4.5963282111100034e-08 6.19618595514385" Properties=species:S:1:pos:R:3:forces:R:3 energy=-37.69893264770508 free_energy=-37.69893264770508 stress="9.502437023911625e-06 -2.1145835304992033e-08 -1.0174584730293645e-08 -2.1145835304992033e-08 9.474986654822715e-06 -7.11171299627722e-09 -1.0174584730293645e-08 -7.11171299627722e-09 9.489195690548513e-06" pbc="T T T"
Cu       1.78868438       1.26479155       3.09809272      -0.00000062       0.00000048      -0.00000017
Cu       5.36605404       3.79437364       9.29427864       0.00000020       0.00000101       0.00000032
Ti      -0.00000010      -0.00000019       0.00000018       0.00000013       0.00000170      -0.00000148
S        1.88922620       1.33588446       6.19618596      -0.00004455      -0.00003278      -0.00000031
S        5.26551277       3.72327975       6.19618628       0.00004303       0.00003025      -0.00000039
S        4.42144116       1.33588458       4.73421110       0.00002322      -0.00003223      -0.00003983
S        2.73329790       3.72327943       7.65816075      -0.00002308       0.00003327       0.00004022
S        2.73329759       3.72327944       4.73421088      -0.00002114       0.00003140      -0.00003855
S        4.42144098       1.33588454       7.65816051       0.00002299      -0.00003301       0.00003983
