9
Lattice="4.5821437849427875 2.674374336606178e-07 2.6455019064059133 1.5273814086529474 4.320088154574023 2.6455020885087435 -3.4712762886547464e-07 -2.2426842918401725e-08 5.291004414054418" Properties=species:S:1:pos:R:3:forces:R:3 energy=-46.94059753417969 free_energy=-46.94059753417969 stress="2.6629961212165654e-05 2.6124601504307066e-07 3.345107302266115e-08 2.6124601504307066e-07 2.6203979359706864e-05 5.777927469807764e-08 3.345107302266115e-08 5.777927469807764e-08 2.60640535998391e-05" pbc="T T T"
Cu       1.52738082       1.08002072       2.64550081      -0.00000036      -0.00000944      -0.00001703
Cu       4.58214457       3.24006729       7.93650353       0.00001054       0.00000459      -0.00002863
Ti       0.00000065      -0.00000005      -0.00000088      -0.00000249      -0.00000000      -0.00000623
O        1.55028158       1.09621547       5.29100530      -0.00353396      -0.00249636       0.00000585
O        4.55924309       3.22387301       5.29100574       0.00353402       0.00250202       0.00001028
O        3.80700312       1.09621374       3.98808541       0.00175750      -0.00250018      -0.00304186
O        2.30252220       3.22387287       6.59392352      -0.00176069       0.00249362       0.00305456
O        2.30252076       3.22387521       3.98808622      -0.00176370       0.00249702      -0.00303280
O        3.80700211       1.09621595       6.59392352       0.00175896      -0.00249106       0.00305670
