9
Lattice="4.71296839192426 9.961013426124356e-08 2.721033667277823 1.5709895117288077 4.443429266337095 2.721033747228084 -2.4071682256733066e-08 8.089741294788604e-08 5.442067376249037" Properties=species:S:1:pos:R:3:forces:R:3 energy=-39.40306854248047 free_energy=-39.40306854248047 stress="0.00020028262224514037 4.8509303240962254e-08 -9.132723732818704e-08 4.8509303240962254e-08 0.00020033195323776454 1.5419144006045826e-07 -9.132723732818704e-08 1.5419144006045826e-07 0.00020017221686430275" pbc="T T T"
Cu       1.57098952       1.11085754       2.72103390       0.00000075       0.00000194       0.00000037
Cu       4.71296863       3.33257219       8.16309948       0.00000258       0.00000069      -0.00001040
Te      -0.00000009       0.00000018       0.00000007       0.00000359      -0.00000845      -0.00000192
O        1.57058935       1.11057461       5.44206773      -0.00162655      -0.00115186       0.00000114
O        4.71336840       3.33285519       5.44206799       0.00162745       0.00115108       0.00000269
O        3.92767358       1.11057407       4.08120426       0.00081205      -0.00115246      -0.00140470
O        2.35628430       3.33285468       6.80293054      -0.00081724       0.00115764       0.00141639
O        2.35628366       3.33285458       4.08120397      -0.00081420       0.00114679      -0.00140744
O        3.92767404       1.11057474       6.80293130       0.00081152      -0.00114536       0.00140440
