9
Lattice="6.242632040067879 9.594253907402178e-08 3.6041850483497657 2.0808773925751614 5.885609653310732 3.604185125546636 -6.849321039727146e-08 4.611438213988238e-08 7.208370215333266" Properties=species:S:1:pos:R:3:forces:R:3 energy=-34.69856262207031 free_energy=-34.69856262207031 stress="4.2736144678201526e-05 2.0741298456528057e-08 -2.445811997375813e-09 2.0741298456528057e-08 4.27179729740601e-05 -4.3001944227683e-09 -2.445811997375813e-09 -4.3001944227683e-09 4.270787030691281e-05" pbc="T T T"
Cu       2.08087774       1.47140243       3.60418494       0.00000163      -0.00000038      -0.00000127
Cu       6.24263211       4.41420748      10.81255455      -0.00000048       0.00000087      -0.00000283
Ta       0.00000044       0.00000016       0.00000030      -0.00000441      -0.00000022      -0.00000041
Te       2.22313072       1.57199063       7.20837027      -0.00124991      -0.00088406       0.00000019
Te       6.10037826       4.31361910       7.20837038       0.00125208       0.00088569       0.00000014
Te       5.13106645       1.57199060       5.52947272       0.00062433      -0.00088391      -0.00108104
Te       3.19244297       4.31361865       8.88726772      -0.00062420       0.00088326       0.00108252
Te       3.19244238       4.31361897       5.52947295      -0.00062453       0.00088246      -0.00108004
Te       5.13106636       1.57199116       8.88726778       0.00062553      -0.00088364       0.00108286
