9
Lattice="4.615378260502926 -1.1558878214209522e-07 2.6646895656617553 1.5384594315258546 4.351419996205119 2.664689357233052 1.6700955582557761e-07 -1.371783606957348e-07 5.329378842054491" Properties=species:S:1:pos:R:3:forces:R:3 energy=-52.05572509765625 free_energy=-52.05572509765625 stress="-2.673525523277931e-05 -8.377298144068845e-08 -5.158915072911441e-09 -8.377298144068845e-08 -2.666001455509104e-05 1.10302718070443e-08 -5.158915072911441e-09 1.10302718070443e-08 -2.6555511794867925e-05" pbc="T T T"
Cu       1.53846001       1.08785547       2.66468954       0.00000357       0.00000627      -0.00000195
Cu       4.61537895       3.26356399       7.99406924       0.00000260      -0.00000932       0.00000591
Ta      -0.00000081      -0.00000015      -0.00000080       0.00000486       0.00000197       0.00000498
O        1.60433167       1.13443457       5.32937895      -0.00038332      -0.00026518       0.00000097
O        4.54950620       3.21698557       5.32937854       0.00037682       0.00026476      -0.00000168
O        3.81321224       1.13443456       4.05408133       0.00018993      -0.00026780      -0.00033343
O        2.34062518       3.21698545       6.60467619      -0.00019073       0.00026548       0.00032699
O        2.34062552       3.21698559       4.05408154      -0.00019088       0.00027049      -0.00033063
O        3.81321231       1.13443407       6.60467634       0.00018758      -0.00026655       0.00032789
