9
Lattice="5.995721889712792 -1.851140803783844e-07 3.4616318600707516 1.9985738173103327 5.652820800972785 3.4616318105339627 -3.771317706523046e-08 -8.733706355888569e-08 6.923263785462725" Properties=species:S:1:pos:R:3:forces:R:3 energy=-31.706005096435547 free_energy=-31.706005096435547 stress="-4.768731741933152e-05 -2.5806563996866316e-08 -3.7073633052386867e-09 -2.5806563996866316e-08 -4.7637862735427916e-05 -9.520531030204893e-09 -3.7073633052386867e-09 -9.520531030204893e-09 -4.764851473737508e-05" pbc="T T T"
Cu       1.99857378       1.41320567       3.46163215      -0.00000108       0.00000216       0.00000070
Cu       5.99572153       4.23961367      10.38489630      -0.00000193      -0.00000726       0.00000356
V       -0.00000086      -0.00000013       0.00000019       0.00000560       0.00000032       0.00000177
Te       2.13817381       1.51191773       6.92326376       0.00706881       0.00500008      -0.00000055
Te       5.85612197       4.14090328       6.92326345      -0.00707226      -0.00500071      -0.00000034
Te       4.92663505       1.51191834       5.31334483      -0.00353268       0.00500017       0.00612067
Te       3.06766082       4.14090291       8.53318206       0.00353284      -0.00499798      -0.00612057
Te       3.06766145       4.14090261       5.31334486       0.00353409      -0.00499775       0.00611706
Te       4.92663512       1.51191805       8.53318220      -0.00353336       0.00500110      -0.00612239
