9
Lattice="5.320988722566038 7.076489959680057e-08 3.0720741360417607 1.7736629561283834 5.016676155427515 3.0720741674116576 -8.110579071193849e-08 -1.8930346264003407e-08 6.144148412562881" Properties=species:S:1:pos:R:3:forces:R:3 energy=-38.27012252807617 free_energy=-38.27012252807617 stress="-0.00035884822136722505 5.1587274896292e-08 2.9520437649921405e-08 5.1587274896292e-08 -0.00035888684215024114 -9.23421872300878e-09 2.9520437649921405e-08 -9.23421872300878e-09 -0.000358928315108642" pbc="T T T"
Cu       1.77366316       1.25416891       3.07207404       0.00000105      -0.00000030      -0.00000081
Cu       5.32098880       3.76250758       9.21622291       0.00000028       0.00000226       0.00000078
V        0.00000044       0.00000032      -0.00000086      -0.00000229      -0.00000022       0.00000663
S        1.83105545       1.29475168       6.14414836       0.00579333       0.00409615       0.00000031
S        5.26359588       3.72192446       6.14414789      -0.00579143      -0.00409484      -0.00000041
S        4.40546105       1.29475122       4.65781442      -0.00289628       0.00409421       0.00501814
S        2.68919024       3.72192486       7.63048261       0.00289983      -0.00410208      -0.00502065
S        2.68919052       3.72192478       4.65781473       0.00289562      -0.00409469       0.00501645
S        4.40546088       1.29475106       7.63048265      -0.00290000       0.00409955      -0.00502068
