9
Lattice="5.3234638687955105 2.979053472647713e-08 3.0735030831433354 1.7744879375088007 5.019010363459086 3.073503164277984 -2.26516647343131e-08 8.335212857168556e-08 6.147006205520452" Properties=species:S:1:pos:R:3:forces:R:3 energy=-38.270145416259766 free_energy=-38.270145416259766 stress="0.0001598796807229519 -3.5237128770404524e-08 -5.967400085182817e-08 -3.5237128770404524e-08 0.00015988387167453766 3.2544619443797274e-08 -5.967400085182817e-08 3.2544619443797274e-08 0.00016003592463675886" pbc="T T T"
Cu       1.77448796       1.25475306       3.07350335      -0.00000117       0.00000245       0.00000078
Cu       5.32346376       3.76425792       9.22050836       0.00000017       0.00000077      -0.00000223
V       -0.00000040       0.00000100       0.00000010       0.00000401      -0.00000830      -0.00000194
S        1.83169339       1.29520314       6.14700627      -0.00054812      -0.00038964      -0.00000034
S        5.26625855       3.72380714       6.14700670       0.00055051       0.00038707       0.00000013
S        4.40761700       1.29520266       4.65979653       0.00027496      -0.00038958      -0.00047377
S        2.69033512       3.72380676       7.63421596      -0.00027904       0.00039449       0.00048435
S        2.69033468       3.72380683       4.65979648      -0.00027555       0.00038967      -0.00047955
S        4.40761717       1.29520334       7.63421611       0.00027424      -0.00038704       0.00047287
