9
Lattice="4.440526678617852 -3.4808107518313305e-08 2.5637397040044503 1.4801754555214959 4.1865692104892736 2.5637398273271703 -1.3323034656470316e-08 1.4161809402258332e-07 5.127479431085104" Properties=species:S:1:pos:R:3:forces:R:3 energy=-45.16253662109375 free_energy=-45.16253662109375 stress="-0.00017503125127404928 -1.5885078141764097e-07 1.3779808227809554e-07 -1.5885078141764097e-07 -0.000174766915733926 -1.1107992037295844e-07 1.3779808227809554e-07 -1.1107992037295844e-07 -0.00017481931718066335" pbc="T T T"
Cu       1.48017510       1.04664293       2.56374084      -0.00000291       0.00000493       0.00000872
Cu       4.44052636       3.13992965       7.69121649      -0.00000063       0.00001998      -0.00002027
V        0.00000019      -0.00000028       0.00000012       0.00000237       0.00000107      -0.00000052
O        1.51927439       1.07428745       5.12747904      -0.00019729      -0.00015515       0.00000042
O        4.40142832       3.11228157       5.12748109       0.00019515       0.00014126       0.00001080
O        3.68088964       1.07428837       3.87946937       0.00010550      -0.00014943      -0.00017458
O        2.23981217       3.11228001       6.37548990      -0.00010240       0.00014001       0.00018084
O        2.23981186       3.11227897       3.87947001      -0.00011182       0.00014883      -0.00018513
O        3.68089063       1.07428833       6.37548865       0.00011224      -0.00015122       0.00017911
