9
Lattice="5.465591993392708 5.7580143638918943e-08 3.155561116737874 1.8218640155848562 5.153009659548323 3.1555611799575116 -6.395374513368783e-08 3.220570130565523e-08 6.311122344246903" Properties=species:S:1:pos:R:3:forces:R:3 energy=-35.338233947753906 free_energy=-35.338233947753906 stress="6.377198587870225e-05 -2.4184252822578856e-08 -1.4685072713405134e-08 -2.4184252822578856e-08 6.373749056365341e-05 -1.2600794185857467e-08 -1.4685072713405134e-08 -1.2600794185857467e-08 6.376879900926724e-05" pbc="T T T"
Cu       1.82186299       1.28825230       3.15556122      -0.00000278      -0.00000049       0.00000031
Cu       5.46559254       3.86475704       9.46668224       0.00000124      -0.00000090      -0.00000363
V        0.00000018       0.00000012       0.00000067       0.00000034      -0.00000119      -0.00000145
Se       1.97839114       1.39893362       6.31112205      -0.00176959      -0.00125220      -0.00000040
Se       5.30906485       3.75407576       6.31112254       0.00177193       0.00125232      -0.00000067
Se       4.47639669       1.39893386       4.86889854       0.00088591      -0.00125190      -0.00153378
Se       2.81105991       3.75407588       7.75334623      -0.00088622       0.00125387       0.00153594
Se       2.81105878       3.75407591       4.86889865      -0.00088761       0.00125317      -0.00153230
Se       4.47639669       1.39893446       7.75334651       0.00088679      -0.00125264       0.00153604
