9
Lattice="5.707975922841884 2.3159626772129953e-08 3.2955013715374237 1.9026586743170815 5.3815313974501215 3.295501351558733 7.514920907319538e-08 2.8669674499272053e-08 6.591002612912653" Properties=species:S:1:pos:R:3:forces:R:3 energy=-38.78732681274414 free_energy=-38.78732681274414 stress="-8.185392289306037e-06 1.6845937977905123e-08 -9.612849183326944e-09 1.6845937977905123e-08 -8.197755050787237e-06 -4.534497222152822e-09 -9.612849183326944e-09 -4.534497222152822e-09 -8.189007530745585e-06" pbc="T T T"
Cu       1.90265922       1.34538304       3.29550126       0.00000188       0.00000092       0.00000021
Cu       5.70797563       4.03614961       9.88650461      -0.00000152       0.00000312       0.00000068
W        0.00000028       0.00000132       0.00000026      -0.00000909      -0.00003194      -0.00001182
Se       1.95958210       1.38563340       6.59100257      -0.00145194      -0.00102941      -0.00000159
Se       5.65105154       3.99589698       6.59100255       0.00147657       0.00104356      -0.00000098
Se       4.72818524       1.38563366       4.99254904       0.00072548      -0.00102811      -0.00125733
Se       2.88245028       3.99589661       8.18945533      -0.00073735       0.00104144       0.00127727
Se       2.88245008       3.99589720       4.99254974      -0.00073419       0.00103562      -0.00127163
Se       4.72818428       1.38563398       8.18945598       0.00073023      -0.00103514       0.00126528
