9
Lattice="4.664406778949519 2.3245377217015422e-07 2.6929963806446957 1.554802560955225 4.397644416566074 2.692996238363774 1.0918401138249932e-07 -9.70530185276266e-08 5.385992572177181" Properties=species:S:1:pos:R:3:forces:R:3 energy=-46.148162841796875 free_energy=-46.148162841796875 stress="0.00012727681314572692 -4.0216050933850056e-08 5.944973580085389e-08 -4.0216050933850056e-08 0.00012746878201141953 -4.918425844380181e-08 5.944973580085389e-08 -4.918425844380181e-08 0.0001273468224098906" pbc="T T T"
Cu       1.55480394       1.09941038       2.69299619       0.00000999      -0.00000680       0.00000432
Cu       4.66440751       3.29823275       8.07898876       0.00000251      -0.00000474       0.00000052
W       -0.00000027      -0.00000046       0.00000046       0.00000334       0.00000417      -0.00000632
O        1.57604613       1.11443221       5.38599307      -0.00174367      -0.00123340       0.00000466
O        4.64316286       3.28321289       5.38599308       0.00173652       0.00123656      -0.00000065
O        3.87638325       1.11443362       4.05789107       0.00086850      -0.00122881      -0.00151443
O        2.34282567       3.28321252       6.71409293      -0.00087595       0.00123644       0.00151038
O        2.34282492       3.28321133       4.05789194      -0.00087804       0.00123423      -0.00151360
O        3.87638448       1.11443305       6.71409291       0.00087577      -0.00123721       0.00151527
