9
Lattice="6.133164543196378 6.166984235630576e-07 3.5409839039607847 2.044388893835346 5.782402819683969 3.5409836764713507 2.292692988867971e-07 -1.1649859417580103e-07 7.0819674108155475" Properties=species:S:1:pos:R:3:forces:R:3 energy=-34.380516052246094 free_energy=-34.380516052246094 stress="0.0001511305890744552 2.7252804102317896e-07 6.880685532451025e-08 2.7252804102317896e-07 0.00015092322428245097 -1.0477686629428717e-07 6.880685532451025e-08 -1.0477686629428717e-07 0.00015071018424350768" pbc="T T T"
Cu       2.04438887       1.44560168       3.54098274       0.00000159       0.00000380      -0.00000446
Cu       6.13316473       4.33680099      10.62295134      -0.00000184      -0.00000539      -0.00000004
W        0.00000171       0.00000239      -0.00000281      -0.00001348      -0.00001458       0.00001833
Te       2.17472313       1.53776103       7.08196771       0.00790227       0.00558763       0.00000317
Te       6.00282818       4.24464045       7.08196757      -0.00787647      -0.00557066       0.00000126
Te       5.04580455       1.53776071       5.42434675      -0.00395800       0.00559431       0.00685332
Te       3.13174903       4.24464305       8.73958943       0.00396034      -0.00560758      -0.00685953
Te       3.13174993       4.24464236       5.42434832       0.00394688      -0.00558736       0.00684325
Te       5.04580453       1.53776067       8.73958893      -0.00396129       0.00559983      -0.00685529
