9
Lattice="5.418940940025131 -9.507205136185714e-09 3.1286271833240624 1.8063136769451593 5.109026537801997 3.1286271153693432 4.359740056567397e-08 -5.2399084406349715e-08 6.257254291135134" Properties=species:S:1:pos:R:3:forces:R:3 energy=-42.157623291015625 free_energy=-42.157623291015625 stress="-2.119002238032408e-05 -9.211905904749074e-08 7.612109165222591e-09 -9.211905904749074e-08 -2.108838816639036e-05 4.1254115679123515e-09 7.612109165222591e-09 4.1254115679123515e-09 -2.102880534948781e-05" pbc="T T T"
Cu       1.80631429       1.27725665       3.12862720       0.00000199       0.00000106      -0.00000050
Cu       5.41894085       3.83176930       9.38588136       0.00000042      -0.00000346       0.00000016
W       -0.00000007       0.00000002       0.00000014       0.00000479      -0.00000008      -0.00000292
S        1.86075445       1.31575265       6.25725452       0.00079456       0.00056174       0.00000035
S        5.36450006       3.79327419       6.25725436      -0.00079882      -0.00056259      -0.00000029
S        4.48856340       1.31575270       4.74008830      -0.00039763       0.00055985       0.00068459
S        2.73669098       3.79327364       7.77441979       0.00039482      -0.00055613      -0.00068177
S        2.73669105       3.79327379       4.74008853       0.00039508      -0.00055890       0.00068249
S        4.48856363       1.31575300       7.77442012      -0.00039522       0.00055873      -0.00068240
