9
Lattice="4.793544649181414 -4.0218498863650645e-08 2.767554319330315 1.5978481881711792 4.5193971054151305 2.7675543025367793 -5.015571691023067e-08 -5.603321883908187e-08 5.535108725532824" Properties=species:S:1:pos:R:3:forces:R:3 energy=-42.53009796142578 free_energy=-42.53009796142578 stress="8.781393989920616e-05 -1.8981028304665415e-08 1.1777943953461545e-08 -1.8981028304665415e-08 8.784198143985122e-05 2.348684446928928e-08 1.1777943953461545e-08 2.348684446928928e-08 8.781732321949676e-05" pbc="T T T"
Cu       1.59784792       1.12984909       2.76755506      -0.00000114      -0.00000065       0.00000456
Cu       4.79354453       3.38954819       8.30266256       0.00000025       0.00000287      -0.00000160
Y       -0.00000017      -0.00000007       0.00000040       0.00000133      -0.00000078      -0.00000250
O        1.79398297       1.26853721       5.53510869      -0.00214949      -0.00152200      -0.00000116
O        4.59741000       3.25085979       5.53510927       0.00214824       0.00151964       0.00000092
O        3.89655295       1.26853691       4.32118888       0.00107309      -0.00152011      -0.00186038
O        2.49483980       3.25086008       6.74902782      -0.00107476       0.00152393       0.00186139
O        2.49483952       3.25085953       4.32118878      -0.00107466       0.00151861      -0.00186190
O        3.89655358       1.26853731       6.74902797       0.00107738      -0.00152141       0.00186065
