9
Lattice="5.931300115461616 1.7203943178651445e-07 3.424437724662293 1.9771001920821343 5.5920836620020244 3.424437739567258 -2.537971580468936e-07 -1.6120693247784142e-07 6.848875888914165" Properties=species:S:1:pos:R:3:forces:R:3 energy=-31.249794006347656 free_energy=-31.249794006347656 stress="2.8503680368885398e-05 -1.2687659989296662e-07 9.155681368611113e-08 -1.2687659989296662e-07 2.8560518330777995e-05 3.0357924174495565e-08 9.155681368611113e-08 3.0357924174495565e-08 2.8439324523787946e-05" pbc="T T T"
Cu       1.97710044       1.39802143       3.42443737       0.00000216       0.00000183      -0.00000215
Cu       5.93129963       4.19406245      10.27331375      -0.00000081       0.00000034       0.00000022
Y       -0.00000042      -0.00000047       0.00000056      -0.00000053      -0.00000290       0.00000129
Se       2.27989244       1.61212636       6.84887713       0.00120416       0.00084443       0.00000930
Se       5.62851327       3.97995942       6.84887550      -0.00116973      -0.00083143      -0.00000017
Se       4.79135516       1.61212451       5.39888099      -0.00059297       0.00082971       0.00103037
Se       3.11704536       3.97995524       8.29887217       0.00059512      -0.00085613      -0.00101680
Se       3.11704308       3.97995863       5.39887841       0.00058042      -0.00083417       0.00101382
Se       4.79135117       1.61212701       8.29886958      -0.00061779       0.00084837      -0.00103565
