9
Lattice="5.3761237585196024 7.903930623196308e-09 3.103906449456265 1.7920412625493853 5.068657967987624 3.1039064455458245 5.5498883350462395e-08 3.4454401976510434e-08 6.207812802785561" Properties=species:S:1:pos:R:3:forces:R:3 energy=-26.645246505737305 free_energy=-26.645246505737305 stress="-3.971992191509344e-05 3.577039819901984e-08 2.445163715947274e-08 3.577039819901984e-08 -3.966621443396434e-05 5.455862428505043e-09 2.445163715947274e-08 5.455862428505043e-09 -3.9732043660478666e-05" pbc="T T T"
Cu       1.79204144       1.26716478       3.10390627      -0.00000004       0.00000110       0.00000048
Cu       5.37612330       3.80149336       9.31171914      -0.00000126      -0.00000042      -0.00000062
Zn      -0.00000013      -0.00000005      -0.00000045       0.00000142       0.00000074       0.00000852
S        1.89055689       1.33682570       6.20781232      -0.00054404      -0.00038455      -0.00000110
S        5.27760871       3.73183182       6.20781249       0.00054356       0.00038163      -0.00000040
S        4.43084529       1.33682571       4.74117654       0.00027196      -0.00038509      -0.00047065
S        2.73731996       3.73183259       7.67444985      -0.00026727       0.00038053       0.00046690
S        2.73731969       3.73183243       4.74117678      -0.00027275       0.00038505      -0.00047050
S        4.43084511       1.33682571       7.67444986       0.00026841      -0.00037904       0.00046750
