9
Lattice="4.68751680017186 -6.484748611987982e-08 2.7063390313880515 1.5625055428752257 4.419433116366951 2.706339024534796 2.9364164179998273e-08 1.2370104472845137e-08 5.412678011915852" Properties=species:S:1:pos:R:3:forces:R:3 energy=-47.208099365234375 free_energy=-47.208099365234375 stress="0.00011719071335392073 -4.488974525429512e-08 9.339905931993187e-11 -4.488974525429512e-08 0.0001173925120383501 -2.7333719287980784e-08 9.339905931993187e-11 -2.7333719287980784e-08 0.0001173566997749731" pbc="T T T"
Cu       1.56250598       1.10485783       2.70633842       0.00000220      -0.00000168      -0.00000357
Cu       4.68751714       3.31457473       8.11901717       0.00000451      -0.00000208       0.00000122
Zr       0.00000005       0.00000012      -0.00000021       0.00000237       0.00000013      -0.00000023
O        1.69099141       1.19571189       5.41267778      -0.00266051      -0.00187999       0.00000067
O        4.55903091       3.22372170       5.41267808       0.00265533       0.00188118      -0.00000031
O        3.84202117       1.19571152       4.17078080       0.00133082      -0.00187999      -0.00230271
O        2.40800091       3.22372131       6.65457571      -0.00133222       0.00188023       0.00230366
O        2.40800118       3.22372159       4.17078092      -0.00133005       0.00188470      -0.00230390
O        3.84202085       1.19571156       6.65457569       0.00132748      -0.00188190       0.00230515
