9
Lattice="5.695883207594279 9.166556103423505e-08 3.2885198699421276 1.89862780476969 5.370130052879367 3.2885199002845416 1.3228469931699908e-07 1.3070116997052668e-07 6.577039510760438" Properties=species:S:1:pos:R:3:forces:R:3 energy=-34.9071044921875 free_energy=-34.9071044921875 stress="2.8801525331800804e-05 -1.2777718882972522e-09 2.6717950074583996e-09 -1.2777718882972522e-09 2.8846627174061723e-05 -2.5818176041525476e-08 2.6717950074583996e-09 -2.5818176041525476e-08 2.8759608539985493e-05" pbc="T T T"
Cu       1.89862772       1.34253381       3.28852038       0.00000010       0.00000316       0.00000155
Cu       5.69588315       4.02759777       9.86556062       0.00000003       0.00000032       0.00000280
Zr       0.00000011       0.00000010       0.00000036       0.00000054      -0.00000123      -0.00000283
Se       2.11989601       1.49899224       6.57703928      -0.00031040      -0.00022024      -0.00000067
Se       5.47461590       3.87113720       6.57703962       0.00031207       0.00021774       0.00000072
Se       4.63593537       1.49899274       5.12440295       0.00015420      -0.00021746      -0.00026954
Se       2.95857554       3.87113728       8.02967604      -0.00015494       0.00021746       0.00026864
Se       2.95857551       3.87113727       5.12440250      -0.00015604       0.00021882      -0.00027007
Se       4.63593532       1.49899270       8.02967537       0.00015444      -0.00021847       0.00026926
