9
Lattice="5.525348266171421 8.984464671575702e-08 3.1900614371654634 1.8417828422258131 5.209348503601997 3.1900614334780006 2.0391642688304563e-07 1.396744585004738e-07 6.380122521137365" Properties=species:S:1:pos:R:3:forces:R:3 energy=-26.192920684814453 free_energy=-26.192920684814453 stress="-4.4154028728371486e-05 -4.71380836586377e-08 -3.836833428749742e-08 -4.71380836586377e-08 -4.42902855866123e-05 -2.848975988456459e-08 -3.836833428749742e-08 -2.848975988456459e-08 -4.4152202463010326e-05" pbc="T T T"
Cu       1.84178440       1.30233563       3.19006200       0.00000370      -0.00000392       0.00000123
Cu       5.52534844       3.90701296       9.57018296       0.00000046       0.00000306      -0.00000284
Zn      -0.00000006      -0.00000007       0.00000013       0.00000027      -0.00000049       0.00000086
Se       2.07927933       1.47027188       6.38012234      -0.00646888      -0.00457604      -0.00000066
Se       5.28785143       3.73907760       6.38012363       0.00646643       0.00457594       0.00000279
Se       4.48570727       1.47027198       4.99077041       0.00323154      -0.00457590      -0.00560184
Se       2.88142304       3.73907640       7.76947493      -0.00323419       0.00457523       0.00560287
Se       2.88142281       3.73907579       4.99077031      -0.00323388       0.00457603      -0.00560309
Se       4.48570861       1.47027279       7.76947482       0.00323459      -0.00457386       0.00560073
