9
Lattice="6.075286473541055 1.929087594734443e-06 3.5075690573218803 2.0250982320886095 5.727835981171319 3.5075674601169267 2.230691977283724e-06 -3.788311605414448e-07 7.015134250972344" Properties=species:S:1:pos:R:3:forces:R:3 energy=-22.989879608154297 free_energy=-22.989879608154297 stress="-0.00021615443984046578 2.5747979748302896e-07 -1.1900056762215172e-07 2.5747979748302896e-07 -0.0002167288475902751 -1.2740898114316224e-07 -1.1900056762215172e-07 -1.2740898114316224e-07 -0.00021651202405337244" pbc="T T T"
Cu       2.02507638       1.43195600       3.50757437      -0.00008688      -0.00003057       0.00002792
Cu       6.07528025       4.29587772      10.52269639      -0.00004127       0.00000701      -0.00002910
Zn       0.00000255       0.00000426      -0.00000334      -0.00002989      -0.00004912       0.00001983
Te       2.20203935       1.55706048       7.01513638       0.00484377       0.00338046      -0.00000400
Te       5.89834410       4.17075973       7.01514395      -0.00473488      -0.00335900       0.00002835
Te       4.97428336       1.55707209       5.41458330      -0.00237931       0.00339248       0.00416668
Te       3.12612049       4.17077912       8.61568106       0.00241069      -0.00335480      -0.00417611
Te       3.12611539       4.17076700       5.41458234       0.00238460      -0.00338712       0.00414018
Te       4.97428580       1.55707393       8.61568775      -0.00236683       0.00340062      -0.00417376
