9
Lattice="6.359857653404353 1.84547970248266e-08 3.6718654586388193 2.1199525613532426 5.996131122517526 3.6718654710764587 7.642163046368868e-08 6.927124190654363e-08 7.343730784911407" Properties=species:S:1:pos:R:3:forces:R:3 energy=-31.950206756591797 free_energy=-31.950206756591797 stress="3.679526344058104e-05 1.7616419434318686e-09 -8.148640873173463e-09 1.7616419434318686e-09 3.679425208247267e-05 8.796759765061779e-09 -8.148640873173463e-09 8.796759765061779e-09 3.679249493870884e-05" pbc="T T T"
Cu       2.11995232       1.49903311       3.67186545      -0.00000117       0.00000070       0.00000018
Cu       6.35985776       4.49709854      11.01559642       0.00000016       0.00000045       0.00000003
Zr       0.00000029      -0.00000026       0.00000005      -0.00000253       0.00000099      -0.00000037
Te       2.30256134       1.62815675       7.34373081       0.00279309       0.00197467       0.00000028
Te       6.17724880       4.36797442       7.34373092      -0.00279132      -0.00197456      -0.00000023
Te       5.20857689       1.62815675       5.66594211      -0.00139567       0.00197365       0.00241768
Te       3.27123359       4.36797433       9.02151940       0.00139654      -0.00197471      -0.00241803
Te       3.27123318       4.36797439       5.66594227       0.00139672      -0.00197558       0.00241935
Te       5.20857703       1.62815683       9.02151940      -0.00139575       0.00197437      -0.00241880
