9
Lattice="5.71982832594708 4.6181082310126854e-09 3.302344193145811 1.9066094241640905 5.3927058161626515 3.302344231549349 -2.6544403994965095e-07 -1.4066277387863981e-07 6.604688846054226" Properties=species:S:1:pos:R:3:forces:R:3 energy=-34.81619644165039 free_energy=-34.81619644165039 stress="-8.512038789376675e-07 1.1555782108985113e-08 2.6515873940979873e-08 1.1555782108985113e-08 -8.08752417924552e-07 1.6695640425723468e-08 2.6515873940979873e-08 1.6695640425723468e-08 -8.285472858915455e-07" pbc="T T T"
Fe       1.90660880       1.34817604       3.30234444      -0.00000135      -0.00000047       0.00000037
Fe       5.71982853       4.04452791       9.90703503       0.00000170      -0.00000427       0.00000628
Au      -0.00000003       0.00000018       0.00000064       0.00000015      -0.00000023      -0.00000432
Se       2.25037340       1.59125508       6.60468887      -0.00008653      -0.00005800      -0.00000101
Se       5.37606418       3.80145144       6.60468751       0.00008400       0.00006013      -0.00000225
Se       4.59464230       1.59125428       5.25122423       0.00004297      -0.00005780      -0.00007381
Se       3.03179507       3.80145138       7.95815250      -0.00004496       0.00006215       0.00007248
Se       3.03179602       3.80145231       5.25122349      -0.00003990       0.00005975      -0.00007255
Se       4.59464165       1.59125415       7.95815243       0.00004395      -0.00006127       0.00007476
