9
Lattice="4.56069734259485 -3.3979373845858606e-09 2.6331199419207096 1.5202324486291483 4.2998668667836055 2.633119934470915 -7.336993817377924e-08 -6.100449069269866e-08 5.266240010921884" Properties=species:S:1:pos:R:3:forces:R:3 energy=-38.8066520690918 free_energy=-38.8066520690918 stress="6.958537414902821e-05 -9.230961950379424e-08 1.1312728531720495e-07 -9.230961950379424e-08 6.957601726753637e-05 6.49390230478275e-08 1.1312728531720495e-07 6.49390230478275e-08 6.956035940675065e-05" pbc="T T T"
Fe       1.52023165       1.07496569       2.63312016      -0.00000587      -0.00000951       0.00000245
Fe       4.56069854       3.22489914       7.89935759       0.00001131      -0.00000797      -0.00002203
Ag       0.00000018      -0.00000035      -0.00000056      -0.00000663       0.00002205       0.00002021
O        1.60921236       1.13788543       5.26623970      -0.00065744      -0.00046206      -0.00000003
O        4.47171732       3.16198206       5.26624089       0.00064766       0.00046235       0.00000878
O        3.75609093       1.13788540       4.02673963       0.00033474      -0.00047040      -0.00057334
O        2.32483849       3.16198231       6.50574123      -0.00032043       0.00045627       0.00055516
O        2.32483774       3.16198188       4.02674003      -0.00033510       0.00046760      -0.00056255
O        3.75609167       1.13788587       6.50574102       0.00033188      -0.00045890       0.00057077
