9
Lattice="4.664417830393753 3.547436050086819e-08 2.693002929854098 1.5548059582678857 4.397655451925603 2.6930029621434297 -2.9858299890596842e-09 3.743489684940549e-08 5.386005864879809" Properties=species:S:1:pos:R:3:forces:R:3 energy=-40.56155014038086 free_energy=-40.56155014038086 stress="-5.990718273096718e-05 8.556219910360596e-08 -6.980124811484245e-10 8.556219910360596e-08 -5.990397767163813e-05 -3.12103551891596e-08 -6.980124811484245e-10 -3.12103551891596e-08 -6.003748421790078e-05" pbc="T T T"
Fe       1.55480556       1.09941355       2.69300252      -0.00000265      -0.00000138      -0.00000156
Fe       4.66441826       3.29824103       8.07900796       0.00000346      -0.00000426      -0.00000603
Au       0.00000014      -0.00000004       0.00000020      -0.00001202       0.00000486      -0.00000045
O        1.59664872       1.12900155       5.38600564      -0.00020641      -0.00014484      -0.00000049
O        4.62257484       3.26865438       5.38600633       0.00021005       0.00015026       0.00000224
O        3.86609367       1.12900113       4.07574127       0.00010449      -0.00014418      -0.00017786
O        2.35313012       3.26865401       6.69627075      -0.00010112       0.00014061       0.00017554
O        2.35312994       3.26865484       4.07574187      -0.00010160       0.00014591      -0.00017208
O        3.86609376       1.12900172       6.69627049       0.00010544      -0.00014663       0.00018036
