9
Lattice="5.423509634761678 -1.0906809527435305e-08 3.131264797861461 1.807836548190169 5.113333912590355 3.131264774387486 4.43581725088231e-08 2.616346135320707e-09 6.2625295188922605" Properties=species:S:1:pos:R:3:forces:R:3 energy=-34.0861701965332 free_energy=-34.0861701965332 stress="3.647992343758233e-05 -3.8458150442011174e-08 -1.4041594553759751e-08 -3.8458150442011174e-08 3.659693538793363e-05 -3.086296374021913e-08 -1.4041594553759751e-08 -3.086296374021913e-08 3.646160621428862e-05" pbc="T T T"
Fe       1.80783713       1.27833023       3.13126486       0.00000548      -0.00002394      -0.00000046
Fe       5.42351114       3.83500333       9.39379330       0.00000932       0.00002245      -0.00000885
Ag      -0.00000004      -0.00000013       0.00000020      -0.00000257       0.00000627       0.00000313
S        1.93325833       1.36701847       6.26252936      -0.00032651      -0.00024354      -0.00000307
S        5.29808707       3.74631632       6.26252970       0.00032100       0.00024632       0.00000016
S        4.45688006       1.36701792       4.80551626       0.00016218      -0.00024807      -0.00027940
S        2.77446574       3.74631533       7.71954325      -0.00016312       0.00024149       0.00028276
S        2.77446515       3.74631557       4.80551639      -0.00016794       0.00024274      -0.00027853
S        4.45688027       1.36701852       7.71954323       0.00016224      -0.00024366       0.00028417
