9
Lattice="5.643065932003902 1.92136445299328e-07 3.2580255212344285 1.8810220905325508 5.32033340847361 3.258025638927321 3.57740185195981e-07 3.9710422754209575e-07 6.516050422844837" Properties=species:S:1:pos:R:3:forces:R:3 energy=-33.93471145629883 free_energy=-33.93471145629883 stress="1.8893559172283858e-05 7.356425868465521e-08 -2.0276041823308333e-07 7.356425868465521e-08 1.867103492259048e-05 -8.905993098551335e-08 -2.0276041823308333e-07 -8.905993098551335e-08 1.8972346879309043e-05" pbc="T T T"
Fe       1.88102089       1.33008106       3.25802760      -0.00000528      -0.00001081       0.00001116
Fe       5.64306690       3.99025119       9.77407556       0.00000305       0.00000395      -0.00000449
Ag       0.00000096       0.00000050      -0.00000019      -0.00000658      -0.00000304       0.00000057
Se       2.19740016       1.55379533       6.51605118      -0.00055528      -0.00040103       0.00000700
Se       5.32668968       3.76653697       6.51605467       0.00056660       0.00039402       0.00001964
Se       4.54436486       1.55379619       5.16102737       0.00027622      -0.00039288      -0.00049439
Se       2.97972227       3.76654303       7.87107002      -0.00027752       0.00041908       0.00046822
Se       2.97972090       3.76653796       5.16102820      -0.00028273       0.00039478      -0.00048587
Se       4.54436690       1.55379378       7.87107194       0.00028139      -0.00040410       0.00047818
