9
Lattice="3.826369716620554 6.849977668175446e-07 2.2091555143493795 1.2754567527135572 3.607536227795594 2.2091563202994084 1.3315171035795428e-07 1.0812355345305044e-06 4.418310798073021" Properties=species:S:1:pos:R:3:forces:R:3 energy=-50.05503845214844 free_energy=-50.05503845214844 stress="-9.334672358818352e-05 -3.630223659456533e-07 8.587451816310931e-07 -3.630223659456533e-07 -9.394079825142398e-05 7.117242262211221e-07 8.587451816310931e-07 7.117242262211221e-07 -9.348487947136164e-05" pbc="T T T"
Fe       1.27545511       0.90188557       2.20915831       0.00001617      -0.00001268      -0.00000146
Fe       3.82637004       2.70565376       6.62746339       0.00000520      -0.00001059       0.00001172
Be       0.00000006       0.00000020       0.00000057       0.00000558      -0.00001102      -0.00000046
O        1.34900268       0.95389037       4.41831328      -0.00120133      -0.00083512      -0.00001246
O        3.75282456       2.65364711       4.41831025       0.00118172       0.00084835      -0.00000452
O        3.15186901       0.95388920       3.37742782       0.00059241      -0.00085920      -0.00103301
O        1.94995835       2.65365004       5.45919415      -0.00060359       0.00084257       0.00104463
O        1.94996007       2.65364583       3.37742556      -0.00059801       0.00086302      -0.00103986
O        3.15186598       0.95389039       5.45919757       0.00060150      -0.00082463       0.00103414
