9
Lattice="5.30589212999772 1.374484717695613e-06 3.063359983514377 1.7686318924602293 5.002445786299786 3.0633601799555676 1.0326741896750217e-06 9.708014215500745e-07 6.126718178384386" Properties=species:S:1:pos:R:3:forces:R:3 energy=-34.5246696472168 free_energy=-34.5246696472168 stress="-6.318639498203993e-05 -2.978318320856488e-07 -3.7663511420760187e-07 -2.978318320856488e-07 -6.40177822788246e-05 -2.758266361979622e-07 -3.7663511420760187e-07 -2.758266361979622e-07 -6.395265518222004e-05" pbc="T T T"
Fe       1.76866505       1.25059349       3.06334490       0.00022850      -0.00012652      -0.00014980
Fe       5.30589064       3.75183576       9.19003042       0.00001503      -0.00002174      -0.00035082
Be      -0.00000239       0.00000141       0.00000503      -0.00001422       0.00000831       0.00002793
Se       1.97824791       1.39884228       6.12672504      -0.00193661      -0.00129247       0.00007372
Se       5.09626027       3.60362525       6.12673891       0.00180468       0.00143531       0.00014063
Se       4.31675697       1.39883305       4.77658654       0.00088926      -0.00136638      -0.00156614
Se       2.75776370       3.60361284       7.47687241      -0.00091934       0.00134325       0.00172734
Se       2.75775639       3.60360760       4.77658031      -0.00096644       0.00133538      -0.00160465
Se       4.31676168       1.39884084       7.47686981       0.00089936      -0.00131497       0.00170165
