9
Lattice="4.802695509322908 2.543729904853093e-07 2.7728372595842146 1.6008985975205603 4.528024902339239 2.7728375114453896 2.607235811645069e-09 3.1030931868911524e-07 5.545674514652527" Properties=species:S:1:pos:R:3:forces:R:3 energy=-37.05036163330078 free_energy=-37.05036163330078 stress="0.00014752009883522987 -9.75408109837872e-09 -1.932307291951929e-08 -9.75408109837872e-09 0.00014738732716068625 -4.1840202413823135e-08 -1.932307291951929e-08 -4.1840202413823135e-08 0.00014778802869841456" pbc="T T T"
Fe       1.60090690       1.13201310       2.77283465       0.00002511       0.00003329      -0.00001090
Fe       4.80269223       3.39602254       8.31851185       0.00000511       0.00002717      -0.00000714
Be       0.00000034       0.00000031      -0.00000036       0.00000390      -0.00000327      -0.00000116
S        1.62917344       1.15199860       5.54567148      -0.00097632      -0.00068371      -0.00003913
S        4.77441833       3.37602478       5.54567232       0.00095475       0.00067367      -0.00002965
S        3.98810642       1.15199801       4.18374414       0.00048468      -0.00071324      -0.00081065
S        2.41548688       3.37601961       6.90761035      -0.00047861       0.00064389       0.00086470
S        2.41548704       3.37602403       4.18374377      -0.00048929       0.00069673      -0.00081830
S        3.98810485       1.15200095       6.90760894       0.00047087      -0.00067455       0.00085185
