9
Lattice="6.096171692055793 -5.18245482749157e-07 3.5196267048949457 2.0320567739736535 5.7475246776194036 3.519626649651369 -6.806753580588954e-08 -1.157903302736386e-07 7.039253527686405" Properties=species:S:1:pos:R:3:forces:R:3 energy=-32.38055419921875 free_energy=-32.38055419921875 stress="-4.138622171012685e-05 -6.525964835191189e-08 9.273774281837177e-08 -6.525964835191189e-08 -4.101586091564968e-05 1.1898608676119693e-07 9.273774281837177e-08 1.1898608676119693e-07 -4.127737338421866e-05" pbc="T T T"
Fe       2.03205921       1.43688048       3.51962847       0.00001235      -0.00000340       0.00000922
Fe       6.09617257       4.31064811      10.55887695       0.00000780       0.00002947      -0.00002075
Be       0.00000014       0.00000012      -0.00000035       0.00000229       0.00000828      -0.00000363
Te       1.80627263       1.27722252       7.03925343       0.00086534       0.00059053      -0.00000303
Te       6.32195838       4.47030009       7.03925761      -0.00086355      -0.00060394       0.00001646
Te       5.19303313       1.27722255       5.08390411      -0.00044075       0.00058618       0.00074136
Te       2.93519350       4.47029996       8.99460196       0.00043103      -0.00059170      -0.00074440
Te       2.93518940       4.47029821       5.08390374       0.00041687      -0.00060630       0.00074470
Te       5.19303467       1.27722399       8.99460184      -0.00043121       0.00059074      -0.00074023
