9
Lattice="6.091646962775973 -1.771987959661872e-08 3.517014033145573 2.030548948779592 5.74325985210412 3.5170140714343905 -4.731561180579e-08 1.3436644922055313e-08 7.034028148244266" Properties=species:S:1:pos:R:3:forces:R:3 energy=-37.865257263183594 free_energy=-37.865257263183594 stress="-0.0002072003117064014 -4.4032901769242017e-08 -4.235551465114895e-09 -4.4032901769242017e-08 -0.0002072155912173912 2.0123811950156778e-08 -4.235551465114895e-09 2.0123811950156778e-08 -0.00020722422050312161" pbc="T T T"
Fe       2.03055078       1.43581504       3.51701350       0.00001068       0.00000186      -0.00000416
Fe       6.09164711       4.30744653      10.55104206       0.00000249       0.00000983      -0.00000312
Cr       0.00000017       0.00000004      -0.00000041      -0.00000266       0.00000078       0.00000109
Te       2.16762196       1.53273962       7.03402797       0.00428176       0.00302644      -0.00000045
Te       5.95457407       4.21052028       7.03402793      -0.00428384      -0.00302885      -0.00000016
Te       5.00783509       1.53273907       5.39423003      -0.00214330       0.00302263       0.00370695
Te       3.11436004       4.21051934       8.67382711       0.00214033      -0.00302915      -0.00370441
Te       3.11435964       4.21052006       5.39422954       0.00214063      -0.00302835       0.00370951
Te       5.00783459       1.53273939       8.67382725      -0.00214610       0.00302478      -0.00370524
