9
Lattice="5.765498107135086 -1.5846747140384053e-07 3.3287116221785595 1.9218325779516057 5.435763723648524 3.3287115789157578 -3.6641097376746896e-07 -3.1207760808976477e-07 6.657423878999498" Properties=species:S:1:pos:R:3:forces:R:3 energy=-32.38444900512695 free_energy=-32.38444900512695 stress="4.3070690480817575e-06 -2.7687706349865948e-08 9.860045224741043e-08 -2.7687706349865948e-08 4.304939920984907e-06 8.14549068195447e-08 9.860045224741043e-08 8.14549068195447e-08 4.256999091012403e-06" pbc="T T T"
Fe       1.92183398       1.35894090       3.32871161       0.00000498       0.00000032      -0.00000194
Fe       5.76549724       4.07682200       9.98613664      -0.00000179      -0.00000206       0.00000601
Cd      -0.00000051       0.00000012       0.00000009       0.00000187      -0.00000134      -0.00000013
Se       2.28289233       1.61424878       6.65742429      -0.00025588      -0.00018221       0.00000113
Se       5.40443823       3.82151477       6.65742151       0.00025406       0.00017935      -0.00000603
Se       4.62405156       1.61424917       5.30575377       0.00012679      -0.00017536      -0.00022057
Se       3.06327841       3.82151390       8.00909216      -0.00012827       0.00017983       0.00022256
Se       3.06327974       3.82151546       5.30575467      -0.00012545       0.00018227      -0.00022349
Se       4.62405024       1.61424791       8.00909353       0.00012359      -0.00018081       0.00022241
