9
Lattice="5.902222810955081 -3.9605385954625136e-07 3.407649703723963 1.9674073117710975 5.564668859393479 3.4076495625227583 -7.470271015616799e-08 -2.2575820642585427e-07 6.815299536836842" Properties=species:S:1:pos:R:3:forces:R:3 energy=-36.61983108520508 free_energy=-36.61983108520508 stress="9.80481636361219e-05 1.7383092298928204e-08 3.020022987243465e-08 1.7383092298928204e-08 9.796464291866869e-05 -2.9063210504887138e-08 3.020022987243465e-08 -2.9063210504887138e-08 9.801130363484845e-05" pbc="T T T"
Fe       1.96740535       1.39117169       3.40764821      -0.00001464       0.00002434      -0.00000862
Fe       5.90222149       4.17350050      10.22294838      -0.00000790      -0.00000363      -0.00000498
Co       0.00000007      -0.00000184       0.00000103      -0.00000184       0.00002776      -0.00001481
Te       1.98477222       1.40344482       6.81529864      -0.00513157      -0.00363600      -0.00000412
Te       5.88485903       4.16122226       6.81529807       0.00513169       0.00361928      -0.00000372
Te       4.90983988       1.40344506       5.12651330       0.00257903      -0.00362988      -0.00443274
Te       2.95979255       4.16122035       8.50408942      -0.00256293       0.00360864       0.00445443
Te       2.95979203       4.16122329       5.12651137      -0.00256621       0.00361916      -0.00443833
Te       4.90983763       1.40344686       8.50408682       0.00257432      -0.00362965       0.00445290
