9
Lattice="3.8403997246705748 1.975451636142081e-09 2.2172557619209607 1.2801332393028342 3.620763867280224 2.217255769051009 2.0891213172306137e-07 1.56455658436743e-07 4.43451116199552" Properties=species:S:1:pos:R:3:forces:R:3 energy=-54.47773742675781 free_energy=-54.47773742675781 stress="0.00045491900527849793 -5.570965413426165e-07 -3.352373141751741e-06 -5.570965413426165e-07 0.0004510694125201553 -1.8071017393594957e-06 -3.352373141751741e-06 -1.8071017393594957e-06 0.0004521894152276218" pbc="T T T"
Fe       1.28016261       0.90518963       2.21727559       0.00074020      -0.00003309       0.00050537
Fe       3.84041610       2.71558374       6.65175268       0.00042759       0.00027013      -0.00036184
C       -0.00000576      -0.00000113      -0.00000078      -0.00013008      -0.00004311       0.00001315
O        1.21741115       0.86083952       4.43450467      -0.00189400      -0.00132847      -0.00018939
O        3.90311543       2.75992806       4.43451577       0.00173473       0.00145614       0.00013474
O        3.23167837       0.86083451       3.27156248       0.00055468      -0.00149500      -0.00169873
O        1.88883504       2.75992290       5.59745619      -0.00101101       0.00132143       0.00156856
O        1.88882984       2.75991930       3.27156666      -0.00118399       0.00119281      -0.00159872
O        3.23168960       0.86083880       5.59745869       0.00076127      -0.00134480       0.00162923
