9
Lattice="6.356307858542113 2.1268772594431557e-07 3.6698162481560628 2.1187696952535053 5.992786351066079 3.6698158869388338 -3.732491843316332e-07 -7.063259971945954e-07 7.339633142798779" Properties=species:S:1:pos:R:3:forces:R:3 energy=-28.472890853881836 free_energy=-28.472890853881836 stress="0.00011046254803659394 -5.774451139473058e-08 6.984865308368171e-08 -5.774451139473058e-08 0.0001102447640732862 3.661093117557357e-08 6.984865308368171e-08 3.661093117557357e-08 0.00011032363545382395" pbc="T T T"
Fe       2.11876929       1.49819622       3.66981717       0.00000272      -0.00000122      -0.00000010
Fe       6.35630651       4.49459524      11.00944768      -0.00000554       0.00001869      -0.00000170
Cd       0.00000176      -0.00000370       0.00000058      -0.00000277       0.00000798      -0.00000228
Te       2.45088868       1.73303669       7.33963540      -0.00353138      -0.00251061       0.00000430
Te       6.02418929       4.25974936       7.33963195       0.00353013       0.00250486      -0.00000237
Te       5.13086331       1.73303789       5.79234677       0.00176412      -0.00250594      -0.00306169
Te       3.34421403       4.25974620       8.88691869      -0.00176330       0.00250029       0.00306261
Te       3.34421432       4.25974755       5.79234541      -0.00176021       0.00249726      -0.00306107
Te       5.13086161       1.73303804       8.88691735       0.00176617      -0.00251134       0.00306236
