9
Lattice="3.8701910162001316 0.010751174430244457 2.2321973666973256 1.29791357113524 3.6552456727859615 2.2361710932682906 -0.0025243572172332827 0.0030874052264640898 4.4687531524190405" Properties=species:S:1:pos:R:3:forces:R:3 energy=-54.6865119934082 free_energy=-54.6865119934082 stress="-0.0005562711739912629 0.00019201870600227267 -0.0006186904502101243 0.00019201870600227267 -0.00010986230336129665 0.000618085206951946 -0.0006186904502101243 0.000618085206951946 -0.00020327293896116316" pbc="T T T"
Fe       1.38395773       0.85995658       2.23795011      -0.00431064       0.00936922       0.00453032
Fe       3.97059063       2.68560803       6.70739166      -0.00064501       0.00939278       0.00003434
C       -0.02554909       0.01746138       0.00041995       0.00353581      -0.00019529      -0.00204100
O        1.18351701       0.87447901       4.46341636       0.00194788      -0.00494742       0.00253498
O        3.93465984       2.84083136       4.46383377       0.00863981      -0.00490165      -0.00036834
O        3.24748045       0.87540560       3.26371456      -0.00569332      -0.00769007       0.00388408
O        1.86249032       2.82227350       5.64330946      -0.00005949      -0.00013745       0.00411487
O        1.86900826       2.81274441       3.28719467      -0.00472468       0.00199032      -0.00650012
O        3.23616854       0.88758283       5.68125300       0.00131053      -0.00288033      -0.00619161
