9
Lattice="4.392656284118791 -4.2436002991206853e-07 2.5360986859284234 1.464219347396525 4.141437114475482 2.5360969779283757 1.1324120292438748e-06 -1.2911286193951925e-06 5.072195410462056" Properties=species:S:1:pos:R:3:forces:R:3 energy=-47.0994873046875 free_energy=-47.0994873046875 stress="0.0001519096695119515 6.592703698515834e-07 7.0183205025387e-08 6.592703698515834e-07 0.000149626808706671 -1.3700791612336616e-07 7.0183205025387e-08 -1.3700791612336616e-07 0.00015419500414282084" pbc="T T T"
Fe       1.46421363       1.03538191       2.53606914      -0.00006871       0.00014395      -0.00019982
Fe       4.39261964       3.10603364       7.60826408      -0.00025543      -0.00029563      -0.00021617
Co      -0.00000251      -0.00000424      -0.00000497      -0.00003605       0.00006220      -0.00002035
O        1.46863842       1.03840574       5.07223052      -0.00397348      -0.00318873       0.00020889
O        4.38832011       3.10292758       5.07221356       0.00437260       0.00273323       0.00007451
O        3.65831031       1.03854068       3.80784851       0.00178641      -0.00242925      -0.00421059
O        2.19854324       3.10295666       6.33649637      -0.00185776       0.00270796       0.00390971
O        2.19847030       3.10304790       3.80801908      -0.00235671       0.00332963      -0.00304055
O        3.65839633       1.03845854       6.33642616       0.00238854      -0.00306392       0.00349545
