9
Lattice="5.944249475753743 -6.668820175480041e-08 3.4319140175023497 1.981416537823059 5.604290278383624 3.4319138290908926 2.198297180763497e-07 -7.531284882956926e-08 6.863827654248371" Properties=species:S:1:pos:R:3:forces:R:3 energy=-32.60739517211914 free_energy=-32.60739517211914 stress="-7.37500304239802e-05 2.6191671054220933e-08 1.7226589932306524e-08 2.6191671054220933e-08 -7.35557041480206e-05 -1.3852591074225984e-08 1.7226589932306524e-08 -1.3852591074225984e-08 -7.375798304565251e-05" pbc="T T T"
Fe       1.98141743       1.40106906       3.43191470       0.00000705      -0.00001884       0.00000436
Fe       5.94425150       4.20322204      10.29574221       0.00001168       0.00002626       0.00000254
Cu       0.00000067       0.00000009      -0.00000023      -0.00000684       0.00000009      -0.00000064
Te       2.12107197       1.49982139       6.86382748       0.00100633       0.00070434      -0.00000082
Te       5.80459399       4.10446869       6.86382765      -0.00100478      -0.00070274      -0.00000152
Te       4.88371297       1.49982067       5.26881593      -0.00050828       0.00070110       0.00087138
Te       3.04195151       4.10446918       8.45883937       0.00049858      -0.00070574      -0.00087430
Te       3.04195157       4.10446882       5.26881551       0.00050050      -0.00070597       0.00087123
Te       4.88371335       1.49982062       8.45883940      -0.00050424       0.00070150      -0.00087217
