9
Lattice="5.067818389049499 -5.4542266867162584e-08 2.925906228294268 1.6892728093858675 4.777985175525566 2.9259061166480316 9.647522634251794e-08 -6.851985769613022e-08 5.851812289488581" Properties=species:S:1:pos:R:3:forces:R:3 energy=-40.62108612060547 free_energy=-40.62108612060547 stress="0.00011657865979941562 -1.8547392954815223e-08 -1.3388035569050771e-08 -1.8547392954815223e-08 0.00011653087858576328 -8.785892013918328e-09 -1.3388035569050771e-08 -8.785892013918328e-09 0.0001165119610959664" pbc="T T T"
Fe       1.68927379       1.19449645       2.92590678       0.00000422       0.00000064       0.00000407
Fe       5.06781858       3.58348890       8.77771988       0.00000178       0.00000165       0.00000572
C       -0.00000006      -0.00000013      -0.00000041      -0.00000174       0.00000449       0.00000352
S        1.54668096       1.09366791       5.85181143       0.00216800       0.00152588      -0.00001039
S        5.21041099       3.68431606       5.85181100      -0.00216335      -0.00153795      -0.00001316
S        4.29447839       1.09366862       4.26537072      -0.00107557       0.00153413       0.00187385
S        2.46261378       3.68431722       7.43825369       0.00109059      -0.00153005      -0.00187570
S        2.46261220       3.68431711       4.26537123       0.00107223      -0.00152877       0.00188184
S        4.29447671       1.09366809       7.43825425      -0.00109586       0.00153014      -0.00186926
