9
Lattice="5.144130150796196 -2.7551194365530757e-08 2.9699650349656364 1.714710007308336 4.849932580641243 2.9699650643785147 -1.4793349649909187e-08 2.5562803774446206e-08 5.939930095554107" Properties=species:S:1:pos:R:3:forces:R:3 energy=-43.45295333862305 free_energy=-43.45295333862305 stress="3.494126576697454e-05 -5.1198139061625625e-08 -2.1841099595576452e-08 -5.1198139061625625e-08 3.495869896141812e-05 -1.3462694958832344e-08 -2.1841099595576452e-08 -1.3462694958832344e-08 3.5002489312319085e-05" pbc="T T T"
Fe       1.71470976       1.21248277       2.96996519      -0.00000159      -0.00000216       0.00000035
Fe       5.14412998       3.63744948       8.90989482      -0.00000190      -0.00000033      -0.00000087
Co       0.00000008       0.00000011       0.00000001       0.00000064       0.00000034      -0.00000001
S        1.74764099       1.23576891       5.93993038       0.00444148       0.00313970       0.00000174
S        5.11119920       3.61416370       5.93993031      -0.00444165      -0.00314045       0.00000108
S        4.27030951       1.23576928       4.48346673      -0.00221865       0.00313967       0.00384344
S        2.58853087       3.61416362       7.39639338       0.00222035      -0.00313638      -0.00384477
S        2.58853067       3.61416338       4.48346682       0.00222021      -0.00313869       0.00384344
S        4.27030953       1.23576910       7.39639314      -0.00221883       0.00313823      -0.00384447
