9
Lattice="5.902935795803383 4.978430032163591e-07 3.4080606139561955 1.9676453520050392 5.5653422098266745 3.4080612766971963 -9.70384038505186e-07 1.2552349235475716e-07 6.81612290866677" Properties=species:S:1:pos:R:3:forces:R:3 energy=-36.61985397338867 free_energy=-36.61985397338867 stress="-3.418021378820413e-06 3.3571005531030096e-08 3.465203590735655e-08 3.3571005531030096e-08 -3.4690472148213303e-06 7.828577963664429e-08 3.465203590735655e-08 7.828577963664429e-08 -3.4163961117883446e-06" pbc="T T T"
Fe       1.96764496       1.39133868       3.40806033       0.00000407       0.00002336      -0.00000533
Fe       5.90293523       4.17400687      10.22417942      -0.00000183      -0.00000306      -0.00002569
Co      -0.00000009      -0.00000042       0.00000006      -0.00000146       0.00001111       0.00000247
Te       1.98369871       1.40268841       6.81612227       0.00028130       0.00019921       0.00000071
Te       5.88688347       4.16265437       6.81612359      -0.00028148      -0.00020866       0.00000835
Te       4.91108479       1.40268824       5.12599479      -0.00014253       0.00019393       0.00024943
Te       2.95949446       4.16265293       8.50625292       0.00014681      -0.00021489      -0.00023970
Te       2.95949363       4.16265361       5.12599436       0.00013945      -0.00020754       0.00025366
Te       4.91108562       1.40268876       8.50625140      -0.00014441       0.00020657      -0.00024401
