9
Lattice="5.127030502991712 7.181990410277441e-09 2.9600923672637984 1.7090101741514943 4.833810659286848 2.960092367755119 -1.289623215771797e-08 -8.517301659714355e-09 5.920184756864551" Properties=species:S:1:pos:R:3:forces:R:3 energy=-45.286102294921875 free_energy=-45.286102294921875 stress="8.132394577842206e-05 4.158697919365295e-08 3.0798620542782373e-08 4.158697919365295e-08 8.129383058985695e-05 -2.3389853609501188e-08 3.0798620542782373e-08 -2.3389853609501188e-08 8.129765774356201e-05" pbc="T T T"
Fe       1.70901019       1.20845251       2.96009241      -0.00000129      -0.00000116       0.00000006
Fe       5.12703038       3.62535786       8.88027810      -0.00000020      -0.00000152       0.00000370
Cr       0.00000010       0.00000018      -0.00000012      -0.00000085      -0.00000421       0.00000175
S        1.79429795       1.26876029       5.92018487       0.00287196       0.00202933       0.00000308
S        5.04174250       3.56505046       5.92018468      -0.00286618      -0.00202537       0.00000186
S        4.22988177       1.26876029       4.51399955      -0.00143473       0.00202993       0.00248554
S        2.60615876       3.56505052       7.32636916       0.00143325      -0.00202903      -0.00248629
S        2.60615944       3.56505034       4.51399986       0.00143313      -0.00202703       0.00247991
S        4.22988162       1.26876013       7.32636947      -0.00143537       0.00202945      -0.00248960
