9
Lattice="4.700860785468185 -1.3717009267245945e-07 2.7140431128841636 1.5669534922892192 4.432013798492221 2.7140430670569247 -4.198273411451923e-08 -8.581295299618265e-08 5.428086298484575" Properties=species:S:1:pos:R:3:forces:R:3 energy=-40.518653869628906 free_energy=-40.518653869628906 stress="-0.00013003064668737352 1.4213733834367304e-07 1.6509680733634013e-08 1.4213733834367304e-07 -0.00013008987298235297 -1.3883767913114298e-08 1.6509680733634013e-08 -1.3883767913114298e-08 -0.00012999690079595894" pbc="T T T"
Fe       1.56695381       1.10800414       2.71404174       0.00000483       0.00000608      -0.00000963
Fe       4.70085919       3.32400952       8.14212755      -0.00001374      -0.00000773      -0.00001137
Ca      -0.00000043      -0.00000024      -0.00000029       0.00000360       0.00000290       0.00000023
O        1.76881330       1.25073960       5.42808645      -0.00289188      -0.00204565       0.00000169
O        4.49900203       3.18127385       5.42808630       0.00289011       0.00203961       0.00000190
O        3.81645474       1.25073931       4.24587971       0.00144559      -0.00204048      -0.00250390
O        2.45136094       3.18127359       6.61029420      -0.00143461       0.00203668       0.00251171
O        2.45135951       3.18127479       4.24588029      -0.00144488       0.00204422      -0.00249955
O        3.81645390       1.25073981       6.61029383       0.00144095      -0.00203532       0.00250876
