9
Lattice="4.18840148506159 1.5520764916589385e-08 2.418174735732975 1.3961338435390838 3.94886282986974 2.418174734776704 3.5807617466887796e-08 2.4148620979944816e-08 4.836349409445332" Properties=species:S:1:pos:R:3:forces:R:3 energy=-61.11333465576172 free_energy=-61.11333465576172 stress="0.00021257097250781953 1.0282655438231814e-07 1.493157242293819e-08 1.0282655438231814e-07 0.00021274664322845638 -8.085596903129044e-08 1.493157242293819e-08 -8.085596903129044e-08 0.00021285995899233967" pbc="T T T"
Fe       1.39613379       0.98721579       2.41817473       0.00000185      -0.00000101       0.00000002
Fe       4.18840142       2.96164705       7.25452424      -0.00000321      -0.00000064      -0.00000007
Cr      -0.00000000      -0.00000002       0.00000002      -0.00000431       0.00000197      -0.00000248
N        1.49693647       1.05849396       4.83634935       0.00519690       0.00367486      -0.00000027
N        4.08759892       2.89036884       4.83634937      -0.00519541      -0.00367188       0.00000060
N        3.43993328       1.05849396       3.71455967      -0.00260080       0.00367811       0.00450075
N        2.14460216       2.89036898       5.95813930       0.00260155      -0.00367874      -0.00450200
N        2.14460214       2.89036894       3.71455970       0.00259958      -0.00367570       0.00450212
N        3.43993328       1.05849399       5.95813917      -0.00259636       0.00367305      -0.00449920
