9
Lattice="4.656368773978431 9.483611756717157e-09 2.6883557609953477 1.5521229193209292 4.390066652394675 2.6883557857286147 -4.8660235975640526e-08 -4.116026284780538e-09 5.37671160627268" Properties=species:S:1:pos:R:3:forces:R:3 energy=-36.98439025878906 free_energy=-36.98439025878906 stress="-0.00039811822352930903 6.365885241166325e-08 1.899718249376292e-08 6.365885241166325e-08 -0.0003981620247941464 4.378884366218472e-09 1.899718249376292e-08 4.378884366218472e-09 -0.0003982791386079043" pbc="T T T"
Fe       1.55212286       1.09751635       2.68835592       0.00000068      -0.00000310       0.00000027
Fe       4.65636893       3.29255003       8.06506748       0.00000067      -0.00000056      -0.00000184
Cd       0.00000078      -0.00000106      -0.00000089      -0.00001901       0.00002252       0.00002048
O        1.73134056       1.22424241       5.37671163       0.00102347       0.00072160       0.00000242
O        4.47715132       3.16582401       5.37671124      -0.00102162      -0.00072318      -0.00000346
O        3.79069800       1.22424297       4.18774101      -0.00050649       0.00071400       0.00087512
O        2.41779331       3.16582478       6.56568297       0.00052013      -0.00072813      -0.00089699
O        2.41779234       3.16582428       4.18774052       0.00051066      -0.00072515       0.00088808
O        3.79069849       1.22424290       6.56568257      -0.00050832       0.00072208      -0.00088412
