9
Lattice="4.391870613854296 9.254954116025079e-10 2.535647509608328 1.4639568857904677 4.140695423908636 2.5356474859950824 -1.5996816607658243e-07 -1.4203481091435117e-07 5.071295296289648" Properties=species:S:1:pos:R:3:forces:R:3 energy=-47.09947967529297 free_energy=-47.09947967529297 stress="-0.0003395222593098879 -3.300644735304559e-08 -2.646958918717246e-08 -3.300644735304559e-08 -0.00033958599669858813 -8.507870852270116e-09 -2.646958918717246e-08 -8.507870852270116e-09 -0.0003400733694434166" pbc="T T T"
Fe       1.46395688       1.03517395       2.53564702       0.00000288       0.00000081      -0.00000477
Fe       4.39187028       3.10552128       7.60694118      -0.00000161      -0.00000107      -0.00001171
Co       0.00000008      -0.00000011      -0.00000066       0.00000059      -0.00000040       0.00000546
O        1.46841950       1.03832864       5.07129539       0.00195134       0.00137913       0.00000474
O        4.38740837       3.10236640       5.07129584      -0.00195134      -0.00138080       0.00000501
O        3.65766061       1.03832948       3.80733547      -0.00097382       0.00138175       0.00168979
O        2.19816659       3.10236639       6.33525540       0.00097948      -0.00138390      -0.00168908
O        2.19816592       3.10236632       3.80733629       0.00096959      -0.00137627       0.00169504
O        3.65766090       1.03832879       6.33525515      -0.00097752       0.00138175      -0.00169408
