9
Lattice="4.0340474409469556 6.067569312055328e-08 2.3290584436693633 1.3446825264413198 3.803336596759101 2.3290584628603526 5.313895180731947e-09 2.72615670566438e-08 4.6581168781348" Properties=species:S:1:pos:R:3:forces:R:3 energy=-56.278717041015625 free_energy=-56.278717041015625 stress="-0.00013226602459326386 -1.3839449763963785e-07 -8.921234950776125e-08 -1.3839449763963785e-07 -0.00013184244744479656 1.0681154094527301e-07 -8.921234950776125e-08 1.0681154094527301e-07 -0.00013192255573812872" pbc="T T T"
Fe       1.34468189       0.95083401       2.32905851      -0.00000534       0.00000068      -0.00000090
Fe       4.03404815       2.85250237       6.98717497       0.00000483      -0.00000264      -0.00000581
C       -0.00000014       0.00000030       0.00000149      -0.00000067       0.00000544       0.00001227
N        1.26345371       0.89339689       4.65811711      -0.00241971      -0.00170934       0.00000503
N        4.11527631       2.90993962       4.65811755       0.00241935       0.00170410       0.00000885
N        3.40232106       0.89339652       3.42324086       0.00121468      -0.00171316      -0.00209749
N        1.97640960       2.90993997       5.89299142      -0.00121075       0.00171304       0.00208616
N        1.97640883       2.90994007       3.42324123      -0.00121486       0.00171149      -0.00209785
N        3.40232068       0.89339709       5.89299188       0.00121230      -0.00170922       0.00209093
