9
Lattice="5.724577903728853 -2.1149751848380688e-07 3.3050866514157433 1.9081924818225704 5.397183743665626 3.3050865706189287 5.385471397989973e-08 -6.08744417972271e-08 6.610173209552379" Properties=species:S:1:pos:R:3:forces:R:3 energy=-34.34305191040039 free_energy=-34.34305191040039 stress="1.725852484923962e-06 -7.152333836302205e-08 -4.778426099250055e-09 -7.152333836302205e-08 1.7017501932059531e-06 -1.1583061620967783e-08 -4.778426099250055e-09 -1.1583061620967783e-08 1.8174877141063916e-06" pbc="T T T"
Fe       1.90819294       1.34929460       3.30508641       0.00000363      -0.00000784      -0.00000144
Fe       5.72457740       4.04788869       9.91525888      -0.00000346       0.00000752      -0.00000933
Ca      -0.00000007       0.00000035       0.00000101       0.00000134      -0.00000505      -0.00001348
S        2.12114134       1.49987271       6.61017273       0.00002528       0.00001135      -0.00000441
S        5.51162903       3.89731071       6.61017306      -0.00002297      -0.00001003       0.00000122
S        4.66400702       1.49987243       5.14204921      -0.00001369       0.00000998       0.00002401
S        2.96876425       3.89731003       8.07829737       0.00001229      -0.00000651      -0.00000847
S        2.96876314       3.89731060       5.14204931       0.00000872      -0.00001045       0.00002227
S        4.66400677       1.49987374       8.07829778      -0.00001106       0.00001097      -0.00001030
