9
Lattice="4.532732448625846 -5.814976769359935e-08 2.61697430019628 1.5109107829212682 4.273500890164352 2.6169742628934847 -1.666941939366714e-08 -5.7473473053506234e-08 5.233948629264851" Properties=species:S:1:pos:R:3:forces:R:3 energy=-53.58668518066406 free_energy=-53.58668518066406 stress="-6.440449215006083e-05 -4.354665605887931e-08 -8.358475156455825e-08 -4.354665605887931e-08 -6.47134002065286e-05 1.1708061009585435e-07 -8.358475156455825e-08 1.1708061009585435e-07 -6.449080683523789e-05" pbc="T T T"
Fe       1.51091096       1.06837522       2.61697445       0.00000154       0.00000302       0.00000031
Fe       4.53273250       3.20512582       7.85092294       0.00000200       0.00000211       0.00000025
Cr       0.00000016       0.00000021       0.00000004      -0.00000376      -0.00000315      -0.00000337
O        1.51813385       1.07348284       5.23394850       0.00416233       0.00294901       0.00000007
O        4.52550952       3.20001787       5.23394849      -0.00416340      -0.00294968      -0.00000043
O        3.77366523       1.07348253       3.93171681      -0.00208230       0.00294505       0.00360228
O        2.26997790       3.20001826       6.53618039       0.00208215      -0.00294429      -0.00360333
O        2.26997764       3.20001818       3.93171668       0.00208629      -0.00295068       0.00361441
O        3.77366515       1.07348217       6.53618031      -0.00208436       0.00294829      -0.00361000
