9
Lattice="5.3094557590387765 -2.895326751768591e-07 3.0654160113768802 1.7698182737696189 5.005803089612344 3.0654160799705354 -2.8675376145447466e-07 -1.187556384672488e-07 6.1308325194257876" Properties=species:S:1:pos:R:3:forces:R:3 energy=-39.47443389892578 free_energy=-39.47443389892578 stress="-6.127821689005941e-05 3.751385424521914e-09 -2.548246946787458e-09 3.751385424521914e-09 -6.14051750744693e-05 4.649174556448088e-08 -2.548246946787458e-09 4.649174556448088e-08 -6.144678627606481e-05" pbc="T T T"
Fe       1.76982288       1.25144770       3.06541515       0.00002575      -0.00001381      -0.00000658
Fe       5.30945570       3.75435517       9.19624756       0.00000688       0.00001483      -0.00000612
Co      -0.00000035       0.00000014       0.00000065      -0.00000229      -0.00000090      -0.00000372
Se       1.92700068       1.36259407       6.13083199       0.00081058       0.00057337      -0.00000262
Se       5.15227183       3.64320867       6.13083191      -0.00081919      -0.00057302      -0.00000108
Se       4.34595377       1.36259372       4.73424789      -0.00041365       0.00057322       0.00070760
Se       2.73331912       3.64320790       7.52741734       0.00040540      -0.00057386      -0.00069843
Se       2.73331816       3.64320964       4.73424817       0.00040322      -0.00057223       0.00071087
Se       4.34595297       1.36259375       7.52741781      -0.00041650       0.00057255      -0.00069983
