9
Lattice="2.93198363512278 -0.529223163364422 1.8416970386820246 1.2794355951094138 1.526684277714822 2.6263508839768233 -0.4149607617967757 1.243465824911315 4.4506541768529075" Properties=species:S:1:pos:R:3:forces:R:3 energy=-1595434880.0 free_energy=-1595434880.0 stress="1139483648.0 16683414.0 -102279624.0 16683414.0 1127973376.0 -70913800.0 -102279624.0 -70913800.0 1150830592.0" pbc="T T T"
Fe       0.06382298       1.68077435       4.56437597 531829760.00000000 -49656624.00000000 1477739136.00000000
Fe       3.13891584       2.29035130       7.42747579 -625524544.00000000 155083888.00000000 -725369600.00000000
Cr       1.00209683      -0.53283823       0.71471257 -967184640.00000000 -147331680.00000000 936284416.00000000
O        1.32760795       1.44156198       4.14229962 175695296.00000000 -1349442688.00000000 -1040195456.00000000
O        1.77235364       0.32300828       2.15612726 -917939648.00000000 361066368.00000000 -420425024.00000000
O        2.98875424      -1.04129162       2.73899724 4318441472.00000000 2630066688.00000000 360452672.00000000
O        2.54506815       1.52364627       3.57364948 650978752.00000000 613720128.00000000 -1005221440.00000000
O        1.69366381       1.23719051       3.41644859 -3329598976.00000000 -2231412480.00000000 185438848.00000000
O        2.63728971       1.01163427       4.61272472 163297632.00000000 17906496.00000000 231295904.00000000
