9
Lattice="5.35619232686044 1.5517679214426636e-08 3.0923992162078817 1.7853974758214446 5.0498663192876565 3.0923991834645346 1.8510423308626844e-07 9.078612446493869e-08 6.184798111805897" Properties=species:S:1:pos:R:3:forces:R:3 energy=-42.15961837768555 free_energy=-42.15961837768555 stress="5.4887746955500916e-05 -3.929304170924297e-08 -3.15818908802612e-08 -3.929304170924297e-08 5.48904063180089e-05 -5.8529234792104035e-08 -3.15818908802612e-08 -5.8529234792104035e-08 5.489347313414328e-05" pbc="T T T"
Fe       1.78540094       1.26246362       3.09240025       0.00001866      -0.00001472       0.00000383
Fe       5.35619497       3.78739994       9.27719400       0.00001550      -0.00000194      -0.00001512
Cr      -0.00000047       0.00000006       0.00000023      -0.00000391       0.00000382       0.00000341
Se       1.97615909       1.39735346       6.18479898       0.00070560       0.00048868       0.00000857
Se       5.16543142       3.65251082       6.18480132      -0.00070187      -0.00050281       0.00001286
Se       4.36811117       1.39735582       4.80380206      -0.00036006       0.00050263       0.00060189
Se       2.77347505       3.65251441       7.56579128       0.00033878      -0.00048202      -0.00061974
Se       2.77347608       3.65251115       4.80380285       0.00034632      -0.00049534       0.00060627
Se       4.36811169       1.39735641       7.56579514      -0.00035901       0.00050180      -0.00060207
