9
Lattice="5.232593299680814 4.9290850106553945e-08 3.021038848266073 1.744197795780645 4.933336125715494 3.0210388781466078 1.3918378757720137e-07 1.3501379997712647e-07 6.042077455458811" Properties=species:S:1:pos:R:3:forces:R:3 energy=-37.266090393066406 free_energy=-37.266090393066406 stress="-0.0002508801408112049 3.385446234460687e-08 -2.2965504498095868e-10 3.385446234460687e-08 -0.0002508342149667442 -2.5659989688620044e-08 -2.2965504498095868e-10 -2.5659989688620044e-08 -0.0002507691679056734" pbc="T T T"
Fe       1.74420033       1.23333534       3.02103854       0.00002036       0.00001032      -0.00000212
Fe       5.23259560       3.70000456       9.06311649       0.00001610       0.00001687      -0.00000208
Cu      -0.00000024      -0.00000012       0.00000005       0.00000013      -0.00000093       0.00000391
S        1.82144906       1.28795784       6.04207758      -0.00193936      -0.00137985       0.00000002
S        5.15534177       3.64537779       6.04207759       0.00193292       0.00137258       0.00000043
S        4.32186848       1.28795815       4.59845944       0.00096327      -0.00137538      -0.00167924
S        2.65492093       3.64537689       7.48569578      -0.00097731       0.00136489       0.00167817
S        2.65492077       3.64537661       4.59845965      -0.00097880       0.00136560      -0.00167829
S        4.32186824       1.28795833       7.48569580       0.00096253      -0.00137419       0.00167936
