9
Lattice="6.600956684213887 -2.844424377864087e-07 3.8110645532568057 2.2003188500253885 6.223441402662594 3.8110641662088063 2.9079558658922096e-07 -2.6841156411870634e-07 7.62212860284083" Properties=species:S:1:pos:R:3:forces:R:3 energy=-31.207874298095703 free_energy=-31.207874298095703 stress="6.323659181362018e-05 1.0364088254277704e-08 3.282031313389666e-09 1.0364088254277704e-08 6.321137334452942e-05 5.106380651653808e-09 3.282031313389666e-09 5.106380651653808e-09 6.32050505373627e-05" pbc="T T T"
Fe       2.20031926       1.55586011       3.81106466       0.00000245       0.00000056       0.00000145
Fe       6.60095685       4.66758162      11.43319242      -0.00000105       0.00000281      -0.00000124
Ca       0.00000010       0.00000164       0.00000127      -0.00000022      -0.00000448      -0.00000440
Te       2.54458876       1.79929422       7.62212823      -0.00307471      -0.00217611      -0.00000039
Te       6.25668736       4.42414629       7.62212838       0.00307383       0.00217621       0.00000198
Te       5.32866201       1.79929461       6.01474190       0.00153654      -0.00217503      -0.00266075
Te       3.47261317       4.42414555       9.22951548      -0.00153572       0.00217420       0.00266369
Te       3.47261301       4.42414483       6.01474177      -0.00153755       0.00217511      -0.00266524
Te       5.32866287       1.79929455       9.22951527       0.00153645      -0.00217328       0.00266482
