9
Lattice="5.44006379722592 1.1444725017666169e-07 3.1408219722870676 1.813354587310173 5.128942705819554 3.140822179556366 3.726381884938963e-07 5.173470929317602e-07 6.2816432991458795" Properties=species:S:1:pos:R:3:forces:R:3 energy=-31.54332733154297 free_energy=-31.54332733154297 stress="4.943040767102502e-05 2.386632900197583e-07 -1.3687031241715886e-07 2.386632900197583e-07 4.865758819505572e-05 -1.8607047991281433e-07 -1.3687031241715886e-07 -1.8607047991281433e-07 4.9968868552241474e-05" pbc="T T T"
Fe       1.81334965       1.28222774       3.14082424      -0.00003781      -0.00006388       0.00001982
Fe       5.44006639       3.84671011       9.42246405       0.00002155       0.00002739      -0.00001098
Cd      -0.00000012      -0.00000020      -0.00000020       0.00000064       0.00000608       0.00000524
S        1.99289166       1.40918425       6.28164407      -0.00076732      -0.00057144       0.00000737
S        5.26052823       3.71975953       6.28164828       0.00077099       0.00056812       0.00003848
S        4.44361897       1.40918319       4.86671673       0.00038591      -0.00057921      -0.00066155
S        2.80979765       3.71976498       7.69656698      -0.00040108       0.00060657       0.00062063
S        2.80979882       3.71976054       4.86671822      -0.00039464       0.00058278      -0.00065023
S        4.44362396       1.40918309       7.69656746       0.00042199      -0.00057673       0.00063106
