9
Lattice="5.309647964329038 -3.809947080689842e-08 3.065526585775674 1.7698826303809174 5.005983965169686 3.065526565813594 -9.548289287994564e-09 -3.1200088998184994e-08 6.131053188089454" Properties=species:S:1:pos:R:3:forces:R:3 energy=-39.474430084228516 free_energy=-39.474430084228516 stress="1.163382603408536e-05 2.173634960911386e-08 -1.0997490917930008e-08 2.173634960911386e-08 1.164090554084396e-05 -1.2603703858360404e-08 -1.0997490917930008e-08 -1.2603703858360404e-08 1.1624841135926545e-05" pbc="T T T"
Fe       1.76988155       1.25149656       3.06552690      -0.00000347       0.00000357       0.00000129
Fe       5.30964790       3.75448842       9.19657868      -0.00000081       0.00000470      -0.00000372
Co       0.00000017      -0.00000008      -0.00000007      -0.00000014      -0.00000011       0.00000309
Se       1.92708522       1.36265487       6.13105174       0.00110397       0.00078034      -0.00000778
Se       5.15244540       3.64332889       6.13105232      -0.00110401      -0.00078082      -0.00000536
Se       4.34610627       1.36265437       4.73443242      -0.00054752       0.00077690       0.00096057
Se       2.73342593       3.64332844       7.52767591       0.00055533      -0.00078537      -0.00095324
Se       2.73342474       3.64332906       4.73443180       0.00055027      -0.00078034       0.00095998
Se       4.34610519       1.36265505       7.52767563      -0.00055376       0.00078119      -0.00095481
