9
Lattice="5.356327323272127 -3.864251276780007e-08 3.092476996670466 1.7854425012905588 5.049993721347528 3.0924768292983447 1.098040190091206e-07 -1.2734502759955787e-07 6.184953803154824" Properties=species:S:1:pos:R:3:forces:R:3 energy=-42.15961456298828 free_energy=-42.15961456298828 stress="5.7219502195948735e-05 3.132490888901884e-08 -1.1938735333671957e-08 3.132490888901884e-08 5.7234239648096263e-05 1.2478220234868331e-08 -1.1938735333671957e-08 1.2478220234868331e-08 5.724894072045572e-05" pbc="T T T"
Fe       1.78544338       1.26249858       3.09247696       0.00000411       0.00000091       0.00000013
Fe       5.35632762       3.78749480       9.27743142       0.00000137      -0.00000063       0.00000432
Cr      -0.00000004       0.00000015      -0.00000071      -0.00000084      -0.00000061       0.00000207
Se       1.97628665       1.39744525       6.18495419      -0.00184333      -0.00130406       0.00000138
Se       5.16548350       3.65254779       6.18495377       0.00184125       0.00130060       0.00000095
Se       4.36818348       1.39744566       4.80399081       0.00091878      -0.00130205      -0.00159881
Se       2.77358512       3.65254839       7.56591623      -0.00092253       0.00130267       0.00159058
Se       2.77358589       3.65254813       4.80399108      -0.00092010       0.00130303      -0.00159559
Se       4.36818418       1.39744548       7.56591673       0.00092122      -0.00129986       0.00159496
