9
Lattice="6.0935923409239825 4.62274986669118e-08 3.5181371494109763 2.031197471510897 5.745094113373116 3.518137182402179 2.0384123369504708e-08 5.481956491330782e-08 7.036274263515611" Properties=species:S:1:pos:R:3:forces:R:3 energy=-37.86528396606445 free_energy=-37.86528396606445 stress="4.812347833649255e-05 1.3586756608674477e-08 -8.094393599833438e-09 1.3586756608674477e-08 4.8069199692690745e-05 2.622568473498177e-08 -8.094393599833438e-09 2.622568473498177e-08 4.8123092710739e-05" pbc="T T T"
Fe       2.03119739       1.43627402       3.51813696      -0.00000268       0.00000326      -0.00000170
Fe       6.09359124       4.30881972      10.55440999      -0.00000541      -0.00000584      -0.00000788
Cr      -0.00000014       0.00000029       0.00000030       0.00000054      -0.00000277      -0.00000404
Te       2.16862555       1.53344985       7.03627424       0.00024290       0.00017155       0.00000007
Te       5.95616450       4.21164419       7.03627471      -0.00023883      -0.00017050       0.00000203
Te       5.00928020       1.53345000       5.39622193      -0.00012060       0.00017506       0.00021224
Te       3.11551097       4.21164408       8.67632704       0.00012254      -0.00016980      -0.00020576
Te       3.11550980       4.21164443       5.39622220       0.00012206      -0.00017383       0.00021271
Te       5.00927987       1.53345032       8.67632698      -0.00012051       0.00017289      -0.00020776
