9
Lattice="4.161346093416053 6.103315259758191e-08 2.402554271268003 1.387115412376337 3.9233548462558434 2.402554287962047 -4.736862747903395e-08 -1.3048738992409525e-08 4.80510862458089" Properties=species:S:1:pos:R:3:forces:R:3 energy=-57.06304931640625 free_energy=-57.06304931640625 stress="-6.641855725320056e-05 1.442171537746617e-07 -1.3463869130703188e-08 1.442171537746617e-07 -6.633180601056665e-05 -1.0024965035881905e-07 -1.3463869130703188e-08 -1.0024965035881905e-07 -6.652624870184809e-05" pbc="T T T"
Fe       1.38711613       0.98083860       2.40255394       0.00000854       0.00000120      -0.00000104
Fe       4.16134638       2.94251554       7.20766439       0.00000675      -0.00001518       0.00002628
Co       0.00000031      -0.00000006       0.00000021      -0.00000677      -0.00000812       0.00000861
N        1.44985984       1.02520605       4.80510803       0.00310490       0.00219826      -0.00000101
N        4.09860096       2.89814855       4.80510681      -0.00309877      -0.00218938      -0.00002121
N        3.43641605       1.02520675       3.65816949      -0.00155072       0.00220348       0.00268421
N        2.11204456       2.89814888       5.95204744       0.00154616      -0.00220263      -0.00269464
N        2.11204547       2.89814862       3.65817041       0.00154920      -0.00218859       0.00268500
N        3.43641594       1.02520664       5.95204798      -0.00155908       0.00220141      -0.00268576
