9
Lattice="1.705922471818475 0.5317648159624332 3.6995670654506867 4.243239910581733 16.964389160198824 0.5052324801002331 -3.7937045195687364 5.901835153900798 3.516620444749462" Properties=species:S:1:pos:R:3:forces:R:3 energy=-2368697.5 free_energy=-2368697.5 stress="1455.6103515625 -358.48272705078125 2008.337158203125 -358.48272705078125 1439.55419921875 3439.995849609375 2008.337158203125 3439.995849609375 6107.81591796875" pbc="T T T"
Fe      13.06846725      25.13772714      -4.02723069  237993.18750000  -41201.56250000    3018.68750000
Fe      14.25021834      47.54664438      -0.29136279 -797107.37500000  476157.71875000   99956.65625000
C       12.51198936      24.83132975      -5.68479706 -303594.37500000 -294503.65625000 -593760.37500000
S        8.91936355      30.96273133      -3.02043076  600975.75000000 -207966.84375000 -105247.15625000
S       17.91386887      41.67841443      -1.84260501  200323.37500000 -433310.81250000  692896.87500000
S       13.55957046      25.29930611      -3.07691711 -1606265.62500000  349854.43750000 -2113433.00000000
S        9.56579505      40.70422204       1.46597396     468.05325317     657.92211914    -509.18066406
S       15.96976835      42.18080527      -5.58801768  907183.87500000 -402589.59375000  637720.18750000
S       10.37930359      30.61648758       0.40464671  760022.75000000  552902.18750000 1379357.62500000
