9
Lattice="5.1269012677249135 1.4477849189490564e-07 2.9600180723525593 1.7089670953392575 4.833689972688445 2.960018298213389 -1.1366669702708313e-07 1.962474714062728e-07 5.920036341581589" Properties=species:S:1:pos:R:3:forces:R:3 energy=-45.286102294921875 free_energy=-45.286102294921875 stress="8.432250615442172e-05 -8.989604083353697e-08 -2.7725574724968283e-08 -8.989604083353697e-08 8.410432928940281e-05 -4.482444992959245e-08 -2.7725574724968283e-08 -4.482444992959245e-08 8.432652975898236e-05" pbc="T T T"
Fe       1.70896631       1.20842106       2.96001691      -0.00000540      -0.00000848      -0.00001332
Fe       5.12690095       3.62526770       8.88004887      -0.00000007      -0.00000106      -0.00003642
Cr       0.00000016       0.00000025      -0.00000071      -0.00000112      -0.00000084      -0.00000307
S        1.79444319       1.26886316       5.92003621      -0.00171536      -0.00121322       0.00000003
S        5.04142482       3.56482756       5.92003776       0.00171965       0.00121921       0.00000256
S        4.22967943       1.26886218       4.51405421       0.00086015      -0.00122255      -0.00147566
S        2.60619001       3.56482663       7.32602146      -0.00085811       0.00121760       0.00150150
S        2.60618839       3.56482734       4.51405402      -0.00086173       0.00121981      -0.00147915
S        4.22967981       1.26886536       7.32602195       0.00086232      -0.00121045       0.00150353
