9
Lattice="4.176393337017271 -1.3494128309955249e-08 2.4112416821069043 1.3921310924287738 3.9375410826550854 2.411241694556777 4.748474438377457e-08 4.8824681805230504e-08 4.822483281967832" Properties=species:S:1:pos:R:3:forces:R:3 energy=-53.870033264160156 free_energy=-53.870033264160156 stress="-0.00016482605133205652 1.1555557932751981e-07 -1.2552837880264178e-08 1.1555557932751981e-07 -0.00016437136218883097 -2.0374177722715103e-07 -1.2552837880264178e-08 -2.0374177722715103e-07 -0.00016458444588351995" pbc="T T T"
Fe       1.39213233       0.98438444       2.41124114       0.00000891      -0.00000480      -0.00000471
Fe       4.17639340       2.95315612       7.23372514      -0.00000006      -0.00000021       0.00000050
Ge       0.00000005      -0.00000003      -0.00000013       0.00000008       0.00000090       0.00000360
N        1.55693689       1.10092037       4.82248354      -0.00241590      -0.00170812       0.00000227
N        4.01158711       2.83662125       4.82248345       0.00241351       0.00171271       0.00000005
N        3.39792503       1.10092070       3.75958833       0.00120771      -0.00170657      -0.00209329
N        2.17059946       2.83662076       5.88537823      -0.00120631       0.00170848       0.00209060
N        2.17059945       2.83662049       3.75958860      -0.00120917       0.00170797      -0.00209031
N        3.39792417       1.10092033       5.88537843       0.00120100      -0.00171024       0.00209099
