9
Lattice="5.460442035126233 9.375542575603719e-08 3.1525875958839715 1.8201474302128111 5.14815401564601 3.152587601465891 -3.28016712275388e-08 -1.635782262885305e-08 6.305175248582081" Properties=species:S:1:pos:R:3:forces:R:3 energy=-37.78418731689453 free_energy=-37.78418731689453 stress="-6.908742216182873e-05 -3.735007325644801e-08 1.4675660686691572e-08 -3.735007325644801e-08 -6.901860615471378e-05 -2.6471471681333014e-09 1.4675660686691572e-08 -2.6471471681333014e-09 -6.902570748934522e-05" pbc="T T T"
Fe       1.82014720       1.28703848       3.15258800      -0.00000058       0.00000015       0.00000167
Fe       5.46044214       3.86111531       9.45776286      -0.00000091      -0.00000283      -0.00000113
Ge      -0.00000002       0.00000012      -0.00000036       0.00000109      -0.00000307       0.00000737
S        1.88465769       1.33265407       6.30517613       0.00641274       0.00453287       0.00000761
S        5.39593196       3.81549987       6.30517611      -0.00641084      -0.00453448       0.00000972
S        4.51811289       1.33265506       4.78474806      -0.00320870       0.00453794       0.00554526
S        2.76247591       3.81550010       7.82560132       0.00320420      -0.00453198      -0.00555819
S        2.76247660       3.81549909       4.78474846       0.00320613      -0.00453407       0.00554663
S        4.51811342       1.33265424       7.82560111      -0.00320286       0.00453544      -0.00555927
