9
Lattice="3.966467578277977 1.9920599263330924e-08 2.2900410296040126 1.3221558679026362 3.7396215796591328 2.2900410474522204 -3.2685755004431634e-08 -1.2528158632587103e-09 4.580082115821403" Properties=species:S:1:pos:R:3:forces:R:3 energy=-49.25910949707031 free_energy=-49.25910949707031 stress="0.0001850307744462043 9.561458114148991e-08 1.2406266591824533e-07 9.561458114148991e-08 0.00018512771930545568 9.384913823851093e-08 1.2406266591824533e-07 9.384913823851093e-08 0.00018455633835401386" pbc="T T T"
Fe       1.32215565       0.93490546       2.29004118       0.00000241      -0.00000334      -0.00000240
Fe       3.96646771       2.80471611       6.87012302      -0.00000126       0.00000090       0.00000504
Ge       0.00000006       0.00000018       0.00000002      -0.00000014      -0.00000306       0.00001135
O        1.42609086       1.00839845       4.58008212       0.00768018       0.00543189       0.00000453
O        3.86253257       2.73122306       4.58008193      -0.00768340      -0.00542831       0.00000408
O        3.25342216       1.00839851       3.52507200      -0.00383770       0.00542295       0.00663888
O        2.03520115       2.73122308       5.63509227       0.00384390      -0.00543356      -0.00665152
O        2.03520134       2.73122297       3.52507203       0.00383955      -0.00542164       0.00664032
O        3.25342213       1.00839854       5.63509230      -0.00384277       0.00543439      -0.00665271
