9
Lattice="5.647403481889177 -2.2082478474212183e-07 3.260529960833521 1.8824676246664236 5.324422807489056 3.26052995119353 -4.715330972577247e-08 -4.514898475614147e-08 6.521060003338967" Properties=species:S:1:pos:R:3:forces:R:3 energy=-36.8526725769043 free_energy=-36.8526725769043 stress="0.0003434056416153908 -4.465796898944774e-10 -5.004827219323715e-09 -4.465796898944774e-10 0.00034346338361501694 1.9374008175532254e-08 -5.004827219323715e-09 1.9374008175532254e-08 0.000343416933901608" pbc="T T T"
Fe       1.88246806       1.33110585       3.26052992       0.00000227       0.00000056       0.00000045
Fe       5.64740407       3.99331573       9.78159006       0.00000340      -0.00000437       0.00000155
Ge      -0.00000061      -0.00000018       0.00000024       0.00000163       0.00000128      -0.00000217
Se       2.20289458       1.55768300       6.52105997      -0.00125754      -0.00088641      -0.00000028
Se       5.32697663       3.76674135       6.52105969       0.00124961       0.00088370      -0.00000090
Se       4.54595585       1.55768174       5.16829298       0.00062680      -0.00088453      -0.00108406
Se       2.98391488       3.76674000       7.87382672      -0.00062749       0.00088763       0.00108719
Se       2.98391488       3.76674061       5.16829296      -0.00062630       0.00088665      -0.00108609
Se       4.54595586       1.55768199       7.87382705       0.00062767      -0.00088450       0.00108427
