9
Lattice="5.459377992914524 2.1786854755009777e-08 3.151973106979561 1.8197927186185319 5.147151063043538 3.151973048483318 -5.280819765559286e-08 -1.089840699360632e-07 6.303946305425617" Properties=species:S:1:pos:R:3:forces:R:3 energy=-37.784202575683594 free_energy=-37.784202575683594 stress="-9.29419620661065e-05 2.2238483055048164e-08 -5.517165835300375e-09 2.2238483055048164e-08 -9.304888226324692e-05 5.187440166309898e-08 -5.517165835300375e-09 5.187440166309898e-08 -9.294717892771587e-05" pbc="T T T"
Fe       1.81979380       1.28678507       3.15197414       0.00000786      -0.00002339       0.00000924
Fe       5.45937965       3.86036444       9.45591755       0.00001422       0.00001118      -0.00001637
Ge       0.00000001       0.00000001       0.00000008       0.00000507      -0.00000319      -0.00000153
S        1.88482595       1.33277254       6.30394680       0.00077713       0.00054586       0.00000405
S        5.39434434       3.81437890       6.30394850      -0.00078255      -0.00054318       0.00001865
S        4.51696384       1.33277276       4.78427947      -0.00039807       0.00054759       0.00067258
S        2.76220539       3.81437982       7.82361092       0.00038603      -0.00053269      -0.00068396
S        2.76220496       3.81437850       4.78428036       0.00038218      -0.00054824       0.00067836
S        4.51696472       1.33277178       7.82361206      -0.00039181       0.00054628      -0.00068104
