9
Lattice="6.195880717200893 -1.6938532114619673e-07 3.577193317551183 2.065293432704675 5.841532281892592 3.577193282905893 -1.0103572698208643e-07 -1.1387466729087481e-07 7.154386810101368" Properties=species:S:1:pos:R:3:forces:R:3 energy=-32.606632232666016 free_energy=-32.606632232666016 stress="-8.796201291261241e-05 5.0833479647849344e-09 3.930278769104234e-09 5.0833479647849344e-09 -8.797082409728318e-05 1.1126980226094929e-08 3.930278769104234e-09 1.1126980226094929e-08 -8.79443614394404e-05" pbc="T T T"
Fe       2.06529356       1.46038363       3.57719280       0.00000082       0.00000278      -0.00000225
Fe       6.19588105       4.38114814      10.73158192       0.00000008      -0.00000172       0.00000713
Ge      -0.00000004       0.00000017      -0.00000017       0.00000015      -0.00000004      -0.00000082
Te       2.30731345       1.63151643       7.15438670      -0.00292473      -0.00206840      -0.00000030
Te       5.95386024       4.21001468       7.15438601       0.00292550       0.00206826      -0.00000266
Te       5.04222444       1.63151742       5.57538543       0.00146472      -0.00206690      -0.00253414
Te       3.21894921       4.21001503       8.73338747      -0.00146657       0.00206582       0.00253217
Te       3.21895080       4.21001565       5.57538520      -0.00146085       0.00206871      -0.00253337
Te       5.04222347       1.63151688       8.73338826       0.00146094      -0.00206846       0.00253416
