9
Lattice="5.6449070357366855 -6.994028498562764e-08 3.259088617969548 1.8816356549893094 5.322069401428041 3.259088544615854 4.9780374135553945e-08 -5.4639514884841046e-08 6.518177149716939" Properties=species:S:1:pos:R:3:forces:R:3 energy=-36.85272979736328 free_energy=-36.85272979736328 stress="5.3132720495341346e-05 4.74269201689026e-09 -3.283577409973759e-09 4.74269201689026e-09 5.316090755513869e-05 -1.581025621533172e-08 -3.283577409973759e-09 -1.581025621533172e-08 5.312478606356308e-05" pbc="T T T"
Fe       1.88163507       1.33051775       3.25908854      -0.00000149       0.00000167      -0.00000038
Fe       5.64490777       3.99155287       9.77726587       0.00000272       0.00000369       0.00000029
Ge      -0.00000030      -0.00000031      -0.00000022       0.00000242       0.00000190       0.00000029
Se       2.20117936       1.55646832       6.51817673       0.00011280       0.00007904       0.00000009
Se       5.32536404       3.76560104       6.51817671      -0.00011638      -0.00008237      -0.00000077
Se       4.54431790       1.55646806       5.16536575      -0.00005609       0.00007918       0.00009945
Se       2.98222482       3.76560046       7.87098912       0.00005738      -0.00008354      -0.00009981
Se       2.98222456       3.76560069       5.16536587       0.00005549      -0.00008067       0.00010026
Se       4.54431786       1.55646826       7.87098896      -0.00005692       0.00008124      -0.00009930
