9
Lattice="4.39074039156687 -1.0977889530916459e-07 2.534994852657205 1.4635801140429328 4.1396292741272385 2.534994701932123 1.4347266756798517e-08 -1.744547078086456e-07 5.069989680464241" Properties=species:S:1:pos:R:3:forces:R:3 energy=-48.347816467285156 free_energy=-48.347816467285156 stress="1.056257497111801e-05 -2.123025844014137e-08 4.6587011581777915e-08 -2.123025844014137e-08 1.0700711754907388e-05 5.616763942839498e-08 4.6587011581777915e-08 5.616763942839498e-08 9.84887174126925e-06" pbc="T T T"
Fe       1.46357900       1.03490633       2.53499396      -0.00000958      -0.00000826      -0.00000788
Fe       4.39074244       3.10472285       7.60498443       0.00001495       0.00000677      -0.00000465
Ge       0.00000004       0.00000016      -0.00000008       0.00000022      -0.00000670       0.00000296
O        1.49737608       1.05880413       5.06998891      -0.00002682      -0.00002187      -0.00000218
O        4.35694430       3.08082494       5.06998897       0.00003052       0.00002521      -0.00000085
O        3.64205376       1.05880389       3.83176119       0.00002122      -0.00001681      -0.00001442
O        2.21226791       3.08082473       6.30821895      -0.00001705       0.00001687       0.00002480
O        2.21226700       3.08082507       3.83176129      -0.00002033       0.00002432      -0.00002420
O        3.64205170       1.05880419       6.30821927       0.00000679      -0.00001884       0.00002468
