9
Lattice="6.198860567611737 6.860957970188018e-08 3.5789136570391267 2.0662869274998945 5.844341694380971 3.578913645012508 4.4149153692879125e-08 1.6488655575866224e-08 7.157827237609689" Properties=species:S:1:pos:R:3:forces:R:3 energy=-32.606605529785156 free_energy=-32.606605529785156 stress="0.0002023328561335802 1.4280107762942862e-08 -2.0248892840246668e-10 1.4280107762942862e-08 0.00020234288240317255 6.122542917097462e-09 -2.0248892840246668e-10 6.122542917097462e-09 0.00020235175907146186" pbc="T T T"
Fe       2.06628707       1.46108442       3.57891415       0.00000140      -0.00000428       0.00000227
Fe       6.19886179       4.38325629      10.73674167       0.00000470      -0.00000005       0.00000437
Ge      -0.00000006       0.00000004      -0.00000013      -0.00000082      -0.00000030      -0.00000015
Te       2.30863870       1.63245391       7.15782716      -0.00242002      -0.00171213      -0.00000062
Te       5.95650858       4.21188817       7.15782716       0.00241822       0.00171278      -0.00000098
Te       5.04454136       1.63245440       5.57825339       0.00120991      -0.00170927      -0.00209623
Te       3.22060545       4.21188806       8.73740062      -0.00121279       0.00171279       0.00209250
Te       3.22060570       4.21188772       5.57825328      -0.00121132       0.00171180      -0.00209523
Te       5.04454151       1.63245413       8.73740081       0.00121075      -0.00171139       0.00209404
