9
Lattice="5.762567762842016 -6.89090501977143e-08 3.3270198654993846 1.9208559023065572 5.433001125960758 3.327019785258213 3.9343687015931225e-09 -9.549295297961968e-08 6.654039724184275" Properties=species:S:1:pos:R:3:forces:R:3 energy=-31.986913681030273 free_energy=-31.986913681030273 stress="-5.848253204021603e-05 1.3598472570208742e-08 -1.0141573136834836e-09 1.3598472570208742e-08 -5.8508416259428486e-05 2.6098033956145628e-08 -1.0141573136834836e-09 2.6098033956145628e-08 -5.842037717229687e-05" pbc="T T T"
Fe       1.92085513       1.35824897       3.32701980      -0.00000235      -0.00000528      -0.00000065
Fe       5.76256850       4.07475141       9.98106012       0.00000278       0.00000302       0.00000130
Hg       0.00000015       0.00000044       0.00000017      -0.00000004      -0.00000463      -0.00000458
Se       2.28240094       1.61390080       6.65404017       0.00667495       0.00471896       0.00000010
Se       5.40102244       3.81910072       6.65403921      -0.00667059      -0.00471660      -0.00000223
Se       4.62136775       1.61389967       5.30363723      -0.00333802       0.00471878       0.00578371
Se       3.06205599       3.81910031       8.00444136       0.00333126      -0.00471261      -0.00577736
Se       3.06205607       3.81910130       5.30363761       0.00333662      -0.00471604       0.00577995
Se       4.62136769       1.61390018       8.00444192      -0.00333452       0.00471440      -0.00578019
