9
Lattice="6.344873022300804 1.3913223157203996e-07 3.6632141398887774 2.1149576925979297 5.9820035912055065 3.6632143350518813 -1.2685541660269542e-07 1.493246623225138e-07 7.326428499497802" Properties=species:S:1:pos:R:3:forces:R:3 energy=-27.76810073852539 free_energy=-27.76810073852539 stress="-0.00019518738554324955 -2.7890147080711358e-08 2.2513745534524787e-08 -2.7890147080711358e-08 -0.00019519140187185258 -6.712526090524307e-09 2.2513745534524787e-08 -6.712526090524307e-09 -0.0001952404563780874" pbc="T T T"
Fe       2.11495825       1.49550071       3.66321441       0.00000300       0.00000048       0.00000079
Fe       6.34487154       4.48650235      10.98964298      -0.00000570      -0.00000312       0.00000179
Hg       0.00000039      -0.00000052      -0.00000044      -0.00000165       0.00000409       0.00000225
Te       2.42644036       1.71575181       7.32642821      -0.00214882      -0.00151831       0.00000149
Te       6.03339220       4.26625190       7.32642735       0.00214386       0.00151734      -0.00000038
Te       5.13165179       1.71575363       5.76457284       0.00107533      -0.00151853      -0.00186662
Te       3.32817705       4.26625192       8.88828636      -0.00106801       0.00151341       0.00185564
Te       3.32817881       4.26625109       5.76457168      -0.00106983       0.00151901      -0.00185888
Te       5.13165185       1.71575264       8.88828452       0.00107181      -0.00151435       0.00186397
