9
Lattice="5.517753738464461 -3.666422474405371e-07 3.1856764789598504 1.8392509589826573 5.202187571529036 3.185676377632243 -2.0905494400889284e-07 -2.719246165963142e-07 6.37135332001349" Properties=species:S:1:pos:R:3:forces:R:3 energy=-30.662986755371094 free_energy=-30.662986755371094 stress="-5.711730045732111e-05 2.2150769041218155e-07 1.8682088409605058e-07 2.2150769041218155e-07 -5.701802729163319e-05 1.324756624399015e-07 1.8682088409605058e-07 1.324756624399015e-07 -5.6797223805915564e-05" pbc="T T T"
Fe       1.83925071       1.30054582       3.18567678      -0.00000238      -0.00000423       0.00000052
Fe       5.51775598       3.90164156       9.55703109       0.00001379       0.00000570       0.00000920
Hg       0.00000030       0.00000026       0.00000052      -0.00000310      -0.00000160      -0.00000272
S        2.08381370       1.47347872       6.37135409      -0.00463641      -0.00327711       0.00001480
S        5.27319126       3.72870745       6.37135322       0.00464132       0.00327170      -0.00000014
S        4.47584774       1.47347856       4.99031189       0.00232999      -0.00327504      -0.00401199
S        2.88115498       3.72870982       7.75239215      -0.00233702       0.00329025       0.00399753
S        2.88115739       3.72870977       4.99031186      -0.00232118       0.00328702      -0.00401005
S        4.47584598       1.47347574       7.75239319       0.00231518      -0.00329661       0.00400278
