9
Lattice="4.640285927630762 -2.4301054060565546e-09 2.679070403816181 1.5467619848589074 4.374903527318707 2.6790703842905663 7.012773867290421e-08 2.5673877244534997e-08 5.35814068616756" Properties=species:S:1:pos:R:3:forces:R:3 energy=-35.73576354980469 free_energy=-35.73576354980469 stress="1.7292239135713317e-05 1.61031223910868e-08 -9.180254068041904e-08 1.61031223910868e-08 1.7308062524534762e-05 -8.415861429966753e-08 -9.180254068041904e-08 -8.415861429966753e-08 1.7260423192055896e-05" pbc="T T T"
Fe       1.54676195       1.09372583       2.67907009       0.00000008       0.00000068      -0.00000365
Fe       4.64028550       3.28117788       8.03721248      -0.00000226       0.00000062       0.00000780
Hg       0.00000001       0.00000001       0.00000004      -0.00000272      -0.00000397       0.00000347
O        1.65705766       1.17171659       5.35814099      -0.00019026      -0.00013432      -0.00000064
O        4.52999022       3.20318678       5.35813998       0.00019586       0.00013840      -0.00000378
O        3.81175747       1.17171659       4.11412412       0.00009489      -0.00013411      -0.00016740
O        2.37529098       3.20318667       6.60215706      -0.00009656       0.00013548       0.00016597
O        2.37529110       3.20318716       4.11412437      -0.00009468       0.00013584      -0.00016838
O        3.81175691       1.17171670       6.60215677       0.00009593      -0.00013879       0.00016683
