9
Lattice="4.66899939287839 -4.64929443235838e-09 2.6956482419505066 1.5563331307343702 4.401974534834258 2.695648234748042 6.411356546199121e-08 3.65140054549321e-08 5.391296372853025" Properties=species:S:1:pos:R:3:forces:R:3 energy=-41.318878173828125 free_energy=-41.318878173828125 stress="-4.0950933907879516e-05 1.1225623985922084e-08 -3.7930700358401737e-08 1.1225623985922084e-08 -4.0996055759023875e-05 -2.836334900280235e-08 -3.7930700358401737e-08 -2.836334900280235e-08 -4.102486127521843e-05" pbc="T T T"
Fe       1.55633336       1.10049314       2.69564795       0.00000033      -0.00000213      -0.00000269
Fe       4.66899957       3.30148119       8.08694564       0.00000257       0.00000217       0.00000606
In      -0.00000006       0.00000048      -0.00000007       0.00000545      -0.00000847       0.00000274
O        1.70555218       1.20600766       5.39129644      -0.00014657      -0.00010201      -0.00000091
O        4.51978031       3.19596748       5.39129593       0.00014240       0.00010362      -0.00000238
O        3.81622352       1.20600720       4.17269972       0.00007316      -0.00010192      -0.00012225
O        2.40910891       3.19596696       6.60989281      -0.00007504       0.00010455       0.00012606
O        2.40910949       3.19596722       4.17269978      -0.00007203       0.00010604      -0.00012940
O        3.81622296       1.20600686       6.60989322       0.00006935      -0.00010175       0.00012261
