9
Lattice="6.394224469439132 1.1392117516154639e-06 3.6917068654497482 2.1314093419890416 6.028532176743919 3.6917066724123466 6.944695358742885e-08 -1.8731506437229367e-07 7.383413610613726" Properties=species:S:1:pos:R:3:forces:R:3 energy=-30.643558502197266 free_energy=-30.643558502197266 stress="0.00031440428574569523 -4.857174573658085e-08 9.813923895762855e-09 -4.857174573658085e-08 0.0003143601934425533 1.2914150637755029e-08 9.813923895762855e-09 1.2914150637755029e-08 0.00031431755633093417" pbc="T T T"
Fe       2.13140946       1.50713354       3.69170679       0.00000461      -0.00000349      -0.00000052
Fe       6.39422413       4.52140046      11.07512093      -0.00000857       0.00000094       0.00000261
In      -0.00000121      -0.00000342      -0.00000040       0.00000467       0.00001701      -0.00000175
Te       2.39619945       1.69436646       7.38341404       0.00693282       0.00489533       0.00000149
Te       6.12943478       4.33416499       7.38341252      -0.00693041      -0.00490231      -0.00000203
Te       5.19612418       1.69437079       5.76687427      -0.00347077       0.00489990       0.00599700
Te       3.32951025       4.33416486       8.99995221       0.00346924      -0.00490446      -0.00600226
Te       3.32951008       4.33416540       5.76687578       0.00346757      -0.00490159       0.00600420
Te       5.19612441       1.69436950       8.99995230      -0.00346923       0.00489858      -0.00599878
