9
Lattice="5.767710660639795 -6.45870691681257e-08 3.329990138715245 1.9225702353767853 5.437850070806728 3.3299900069811144 1.4567024792179314e-07 -5.833637934466313e-08 6.659980025122221" Properties=species:S:1:pos:R:3:forces:R:3 energy=-34.355064392089844 free_energy=-34.355064392089844 stress="-3.949307574657723e-05 -9.790093002948197e-08 -1.9926584826635008e-08 -9.790093002948197e-08 -3.96977920900099e-05 4.6859650382202744e-08 -1.9926584826635008e-08 4.6859650382202744e-08 -3.974827632191591e-05" pbc="T T T"
Fe       1.92257402       1.35946104       3.32999005       0.00001337      -0.00000517       0.00000013
Fe       5.76770834       4.07838919       9.98997202      -0.00000935       0.00000553       0.00000681
In      -0.00000037      -0.00000029       0.00000049       0.00000241       0.00000183      -0.00000887
Se       2.26028286       1.59825923       6.65998009      -0.00125226      -0.00089151      -0.00000224
Se       5.42999745       3.83959065       6.65997995       0.00125247       0.00089224      -0.00000380
Se       4.63756891       1.59826032       5.28745058       0.00062074      -0.00088580      -0.00108850
Se       3.05271347       3.83958833       8.03250787      -0.00062746       0.00089188       0.00109273
Se       3.05271243       3.83959047       5.28745047      -0.00062177       0.00088491      -0.00108925
Se       4.63756715       1.59826081       8.03250920       0.00062208      -0.00089382       0.00109297
