9
Lattice="5.26342820406956 -1.551219311698015e-08 3.0388417112510973 1.754476030402284 4.962408036116408 3.0388417510811068 2.1720260858680976e-08 6.414012308652275e-08 6.0776833848815475" Properties=species:S:1:pos:R:3:forces:R:3 energy=-45.214324951171875 free_energy=-45.214324951171875 stress="-1.2831073945562821e-05 -5.574057482249373e-08 -1.6228117738492642e-09 -5.574057482249373e-08 -1.2892055565316696e-05 2.1924428494912718e-08 -1.6228117738492642e-09 2.1924428494912718e-08 -1.2728879482892808e-05" pbc="T T T"
Fe       1.75447665       1.24060273       3.03884051       0.00000437       0.00000492      -0.00000921
Fe       5.26342846       3.72180566       9.11652301       0.00000388      -0.00000265      -0.00001724
Mn       0.00000014       0.00000012       0.00000030      -0.00000123       0.00000041      -0.00000451
S        1.80501515       1.27633923       6.07768301      -0.00008547      -0.00005740      -0.00000170
S        5.21288876       3.68606868       6.07768320       0.00008553       0.00005823      -0.00000152
S        4.36092010       1.27633836       4.60203195       0.00004169      -0.00006640      -0.00006926
S        2.65698451       3.68606831       7.55333658      -0.00004098       0.00005859       0.00008482
S        2.65698320       3.68606955       4.60203217      -0.00004926       0.00006199      -0.00006628
S        4.36092011       1.27633980       7.55333669       0.00004128      -0.00005776       0.00008452
