9
Lattice="4.616608025789446 9.985885585453502e-09 2.665399954256727 1.538869392759379 4.352579758863547 2.66539988252422 1.3103902570482045e-08 -7.858815553117252e-08 5.3307998858168295" Properties=species:S:1:pos:R:3:forces:R:3 energy=-58.253204345703125 free_energy=-58.253204345703125 stress="-7.258285768330097e-05 1.6354751153357938e-07 3.19618891353457e-07 1.6354751153357938e-07 -7.26734651834704e-05 -2.917283268288884e-07 3.19618891353457e-07 -2.917283268288884e-07 -7.264057785505429e-05" pbc="T T T"
Fe       1.53886933       1.08814488       2.66539983      -0.00000000      -0.00000048       0.00000321
Fe       4.61660816       3.26443501       7.99619994      -0.00000027      -0.00000560      -0.00000239
Mn      -0.00000014      -0.00000002      -0.00000001       0.00001338      -0.00000240       0.00000585
O        1.52136267       1.07576586       5.33079995       0.00086880       0.00061369       0.00000399
O        4.63411468       3.27681379       5.33079973      -0.00086617      -0.00061548       0.00000601
O        3.85592674       1.07576593       3.98293859      -0.00043869       0.00062215       0.00076783
O        2.29955067       3.27681373       6.67866113       0.00043988      -0.00062621      -0.00076270
O        2.29955079       3.27681371       3.98293865       0.00042486      -0.00060713       0.00073850
O        3.85592677       1.07576589       6.67866115      -0.00044143       0.00062144      -0.00076079
