9
Lattice="4.408119462634362 1.2107046694464982e-06 2.5450280087631802 1.4693743228560925 4.1560146886716485 2.5450279616835805 9.726303996869384e-08 1.1114852235011352e-08 5.0900558490617" Properties=species:S:1:pos:R:3:forces:R:3 energy=-71.38417053222656 free_energy=-71.38417053222656 stress="-1.2805118785763625e-05 -2.801667960738996e-06 -3.8065550711507967e-07 -2.801667960738996e-06 -1.0213440873485524e-05 4.876578145740496e-07 -3.8065550711507967e-07 4.876578145740496e-07 -8.665402674523648e-06" pbc="T T T"
Fe       1.46937338       1.03900403       2.54502785       0.00000034      -0.00000408       0.00000078
Fe       4.40812020       3.11701204       7.63508377       0.00001348       0.00000790       0.00001250
Mn       0.00000023       0.00000025      -0.00000008      -0.00005367      -0.00005435      -0.00002115
N        1.58356500       1.11974977       5.09005572      -0.00010729      -0.00007463       0.00000137
N        4.29392860       3.03626651       5.09005575       0.00012016       0.00008154      -0.00000469
N        3.61633605       1.11975223       3.91643680       0.00005639      -0.00005794      -0.00007498
N        2.26115748       3.03626422       6.26367496      -0.00004351       0.00007820       0.00008488
N        2.26115748       3.03626402       3.91643658      -0.00004232       0.00007904      -0.00008249
N        3.61633627       1.11975177       6.26367498       0.00005627      -0.00005662       0.00008249
