9
Lattice="5.628469915907442 1.74534136177674e-07 3.2495988947825625 1.8761562886553242 5.306569703502043 3.2495997859794343 1.3911233359897776e-06 2.0751618087324133e-06 6.499195380068794" Properties=species:S:1:pos:R:3:forces:R:3 energy=-33.21873092651367 free_energy=-33.21873092651367 stress="9.771800978342071e-05 1.285134203499183e-07 -5.560227691603359e-07 1.285134203499183e-07 9.948188380803913e-05 -6.588404062313202e-07 -5.560227691603359e-07 -6.588404062313202e-07 9.810552728595212e-05" pbc="T T T"
Fe       1.87616209       1.32664233       3.24959654       0.00002323       0.00000269      -0.00000092
Fe       5.62847536       3.97991820       9.74878678       0.00002806      -0.00007169      -0.00005791
Mg      -0.00000123       0.00000075       0.00000114       0.00000068       0.00000307       0.00000127
Se       2.18368622       1.54411265       6.49918450       0.00247586       0.00181666      -0.00008306
Se       5.32093611       3.76246137       6.49919880      -0.00248307      -0.00179848      -0.00001097
Se       4.53662835       1.54410590       5.14073087      -0.00122325       0.00178695       0.00218000
Se       2.96801062       3.76246822       7.85766901       0.00129884      -0.00177445      -0.00212316
Se       2.96799228       3.76246507       5.14073924       0.00116536      -0.00178443       0.00220756
Se       4.53662062       1.54411342       7.85766937      -0.00128563       0.00181974      -0.00211297
