9
Lattice="2.6926270915433728 1.0269996112548052 1.2687646795588836 0.5540248165685948 3.210660894073822 1.5459745120832198 -1.1621642874508076 1.00126604339198 2.6699920840852753" Properties=species:S:1:pos:R:3:forces:R:3 energy=-31791128.0 free_energy=-31791128.0 stress="17851604.0 -2567199.75 -579405.5625 -2567199.75 17766478.0 855584.125 -579405.5625 855584.125 17780924.0" pbc="T T T"
Fe       1.78807568       2.27332602       1.29480382 -1127253.00000000 -8926624.00000000 -18949756.00000000
Fe       2.58672530       4.00509148       3.90797091 21785884.00000000 -4865283.00000000 6210286.00000000
Mg       0.48499521       0.63033562       0.19897750 16146130.00000000 -95744208.00000000 -16515340.00000000
O        1.29890901       2.93150431       1.79540562 3047917.00000000 23427202.00000000 22248086.00000000
O        2.34617055       4.62738228       2.12173039 -17966186.00000000 -11897684.00000000 -7786964.00000000
O        2.08648125       2.12586438       2.78001144 -11039072.00000000 9534336.00000000 -6366162.50000000
O        1.58330911       2.59301299       3.21598903 11810131.00000000  727841.75000000 -37233352.00000000
O        0.95718254       3.82697570       1.78125642 8394446.00000000 95326448.00000000 49508472.00000000
O        3.22125326       3.30550947       3.14845540 -31051992.00000000 -7581996.00000000 8884744.00000000
