9
Lattice="4.616617937572417 -1.4906493471806975e-06 2.665405742276656 1.538871073925559 4.35259790186044 2.665406030717482 -3.272327619557564e-06 -1.960616126881816e-06 5.3308171523883034" Properties=species:S:1:pos:R:3:forces:R:3 energy=-58.25322723388672 free_energy=-58.25322723388672 stress="-5.992668229737319e-05 -1.8452520578193798e-07 7.137405191315338e-07 -1.8452520578193798e-07 -6.265036790864542e-05 5.767540187662235e-07 7.137405191315338e-07 5.767540187662235e-07 -5.984526069369167e-05" pbc="T T T"
Fe       1.53887142       1.08815414       2.66540886      -0.00000319      -0.00006955      -0.00001017
Fe       4.61661402       3.26444586       7.99621811       0.00002220      -0.00005113       0.00000643
Mn      -0.00000781       0.00003790       0.00000547       0.00079767      -0.00378838      -0.00061435
O        1.52134859       1.07575667       5.33082606       0.00281024       0.00144982      -0.00009925
O        4.63411335       3.27683129       5.33080449      -0.00036693      -0.00082827      -0.00006572
O        3.85594351       1.07575052       3.98292507      -0.00174451       0.00217080       0.00315177
O        2.29955999       3.27682195       6.67866676      -0.00018394      -0.00008571       0.00041938
O        2.29955529       3.27682413       3.98295681       0.00013268      -0.00052691      -0.00001967
O        3.85594600       1.07575788       6.67869716      -0.00146496       0.00172794      -0.00276911
