9
Lattice="5.938469631471189 1.6582352563327967e-07 3.4285770307019576 1.9794900876567705 5.598842352166009 3.428576936894451 2.1886637946513803e-08 -9.941411996263787e-08 6.857154023495159" Properties=species:S:1:pos:R:3:forces:R:3 energy=-38.151241302490234 free_energy=-38.151241302490234 stress="5.244422209216282e-05 7.988279371318185e-09 1.7454624412494013e-08 7.988279371318185e-09 5.236219658399932e-05 3.0302365061629644e-09 1.7454624412494013e-08 3.0302365061629644e-09 5.230092574493028e-05" pbc="T T T"
Fe       1.97949045       1.39971121       3.42857715       0.00000248       0.00000370       0.00000096
Fe       5.93847034       4.19913176      10.28572975       0.00000249       0.00000171      -0.00000966
Mn       0.00000022       0.00000003      -0.00000037       0.00000098       0.00000259       0.00000534
Te       2.05669082       1.45430064       6.85715243      -0.00580162      -0.00409761      -0.00000533
Te       5.86126897       4.14454177       6.85715419       0.00580096       0.00409536       0.00000373
Te       4.91012360       1.45429921       5.20972416       0.00289933      -0.00410193      -0.00501990
Te       3.00783611       4.14454236       8.50458543      -0.00289620       0.00409675       0.00501990
Te       3.00783560       4.14454270       5.20972362      -0.00290158       0.00409769      -0.00501689
Te       4.91012286       1.45429995       8.50458564       0.00289308      -0.00409824       0.00502196
