9
Lattice="5.314402770494762 -1.1372625241654565e-07 3.068272026094316 1.7714675981692292 5.010466306414079 3.068271826516254 1.1258988339282027e-07 -1.648191947728067e-07 6.136543857177223" Properties=species:S:1:pos:R:3:forces:R:3 energy=-34.25495147705078 free_energy=-34.25495147705078 stress="-4.3465857743285596e-05 -2.2358305429293068e-08 -6.065531721333173e-08 -2.2358305429293068e-08 -4.3235242628725246e-05 -6.778916628036313e-08 -6.065531721333173e-08 -6.778916628036313e-08 -4.360917955636978e-05" pbc="T T T"
Fe       1.77146973       1.25261583       3.06827251       0.00001561      -0.00000601       0.00000577
Fe       5.31440273       3.75784558       9.20481116      -0.00000030      -0.00002940      -0.00003473
Mg       0.00000045       0.00000051       0.00000036      -0.00001028       0.00000095      -0.00000567
S        1.90085064       1.34410562       6.13654277      -0.00539897      -0.00380433      -0.00000710
S        5.18501902       3.66636195       6.13654616       0.00539840       0.00382351       0.00001600
S        4.36397607       1.34410501       4.71445699       0.00269007      -0.00381161      -0.00467653
S        2.72189405       3.66636202       7.55863172      -0.00269027       0.00381820       0.00468097
S        2.72189200       3.66636075       4.71445707      -0.00270592       0.00380987      -0.00467103
S        4.36397730       1.34410683       7.55863202       0.00270198      -0.00380112       0.00469214
