9
Lattice="5.2625923926168445 3.223880944325189e-08 3.038359148230672 1.7541975300385255 4.961619727489594 3.0383590868505093 2.204510236193666e-08 -5.958680925888661e-08 6.0767182582781105" Properties=species:S:1:pos:R:3:forces:R:3 energy=-45.21432113647461 free_energy=-45.21432113647461 stress="-0.00015420569980051368 9.70675415601363e-08 5.522132084934128e-08 9.70675415601363e-08 -0.00015433748194482177 1.3288477873629745e-08 5.522132084934128e-08 1.3288477873629745e-08 -0.00015434921078849584" pbc="T T T"
Fe       1.75419967       1.24040564       3.03835944       0.00001609       0.00000664       0.00000280
Fe       5.26259270       3.72121619       9.11507424       0.00000255       0.00001192      -0.00002507
Mn       0.00000022       0.00000036       0.00000008      -0.00000028      -0.00000358      -0.00000403
S        1.80485958       1.27622757       6.07671821       0.00152415       0.00107300       0.00000038
S        5.21192966       3.68539142       6.07671923      -0.00152475      -0.00107455       0.00000753
S        4.36016179       1.27622679       4.60141268      -0.00077355       0.00107360       0.00132519
S        2.65662775       3.68539137       7.55202448       0.00076425      -0.00107837      -0.00131369
S        2.65662581       3.68539124       4.60141287       0.00075501      -0.00108737       0.00132352
S        4.36016291       1.27622807       7.55202451      -0.00076407       0.00107884      -0.00131685
