9
Lattice="5.938852612146015 2.2146486837821558e-08 3.4287987759841463 1.9796176960463914 5.5992047115539485 3.4287985373344316 2.4104968027000584e-07 -1.2183717205026404e-07 6.857597134458065" Properties=species:S:1:pos:R:3:forces:R:3 energy=-38.1512565612793 free_energy=-38.1512565612793 stress="-1.5058213648444507e-05 -6.766157412130269e-08 6.06168271133356e-08 -6.766157412130269e-08 -1.502207487646956e-05 -4.6795818775535736e-08 6.06168271133356e-08 -4.6795818775535736e-08 -1.5033692761790007e-05" pbc="T T T"
Fe       1.97961769       1.39979971       3.42879812       0.00000049      -0.00000972      -0.00000078
Fe       5.93885333       4.19940267      10.28639684       0.00000621      -0.00000745       0.00000620
Mn       0.00000062      -0.00000086      -0.00000050      -0.00000499       0.00001093       0.00000705
Te       2.05613480       1.45390854       6.85759831       0.00082204       0.00058231       0.00000529
Te       5.86233536       4.14529765       6.85759769      -0.00082400      -0.00058162       0.00000513
Te       4.91078538       1.45390827       5.20946344      -0.00040856       0.00058351       0.00070274
Te       3.00768401       4.14529791       8.50572898       0.00040850      -0.00057840      -0.00072128
Te       3.00768583       4.14529708       5.20946503       0.00040917      -0.00057529       0.00070569
Te       4.91078516       1.45390753       8.50572967      -0.00040875       0.00057560      -0.00071001
