9
Lattice="5.346343285655146 -3.041925500983386e-08 3.0867126999000973 1.7821144242939455 5.040580575608166 3.086712657600288 2.779979123844902e-08 -3.214904044576472e-08 6.173425351649537" Properties=species:S:1:pos:R:3:forces:R:3 energy=-41.82464599609375 free_energy=-41.82464599609375 stress="-0.0004273311933502555 7.186945705228709e-09 8.220196079378184e-09 7.186945705228709e-09 -0.0004273699305485934 -4.343302606457655e-09 8.220196079378184e-09 -4.343302606457655e-09 -0.0004273679223842919" pbc="T T T"
Fe       1.78211360       1.26014494       3.08671291      -0.00000435      -0.00000164       0.00000051
Fe       5.34634307       3.78043526       9.26013810      -0.00000273      -0.00000110       0.00000236
Mn       0.00000001       0.00000004      -0.00000016      -0.00000006      -0.00000025       0.00000024
Se       1.96527040       1.38965617       6.17342521      -0.00711894      -0.00503406       0.00000052
Se       5.16318751       3.65092486       6.17342526       0.00711998       0.00503421      -0.00000069
Se       4.36370833       1.38965591       4.78868670       0.00356217      -0.00503337      -0.00616303
Se       2.76474971       3.65092465       7.55816410      -0.00355722       0.00503296       0.00616497
Se       2.76474993       3.65092438       4.78868682      -0.00355868       0.00503507      -0.00616726
Se       4.36370841       1.38965581       7.55816389       0.00355990      -0.00503173       0.00616238
