9
Lattice="5.347743771110701 -1.7839354781725498e-08 3.0875210540782043 1.7825811987463058 5.041901398413996 3.0875211259090243 -5.8264323288673274e-08 4.677538430082704e-08 6.175042209073117" Properties=species:S:1:pos:R:3:forces:R:3 energy=-41.82466506958008 free_energy=-41.82466506958008 stress="0.0001993083715206012 2.6780568873618904e-08 2.8148718911324977e-08 2.6780568873618904e-08 0.00019930137204937637 -6.916296424464008e-10 2.8148718911324977e-08 -6.916296424464008e-10 0.00019936014723498374" pbc="T T T"
Fe       1.78257966       1.26046909       3.08751909      -0.00000498      -0.00003620      -0.00000618
Fe       5.34774625       3.78142270       9.26256734       0.00001228      -0.00002435       0.00002022
Mn       0.00000007       0.00000060      -0.00000002      -0.00000162       0.00000114      -0.00000226
Se       1.96560265       1.38989189       6.17504283       0.00421533       0.00298342      -0.00000047
Se       5.16472160       3.65201186       6.17503998      -0.00421101      -0.00296783      -0.00000862
Se       4.36494345       1.38989259       4.78978271      -0.00210410       0.00298795       0.00364915
Se       2.76538140       3.65201199       7.56030012       0.00210197      -0.00296938      -0.00365102
Se       2.76538210       3.65201255       4.78978381       0.00209987      -0.00296497       0.00364810
Se       4.36494244       1.38989250       7.56030167      -0.00210762       0.00299016      -0.00364897
