9
Lattice="5.203768874494657 6.230261908478481e-08 3.0043975046073115 1.7345897088761937 4.90616064295154 3.004397460777426 1.0430517137044711e-07 2.0074498418810585e-08 6.008794828552733" Properties=species:S:1:pos:R:3:forces:R:3 energy=-41.269195556640625 free_energy=-41.269195556640625 stress="3.3149553928524256e-05 -2.1799515081966092e-08 6.793602125299003e-09 -2.1799515081966092e-08 3.317341543151997e-05 -6.992041079456612e-08 6.793602125299003e-09 -6.992041079456612e-08 3.3237694879062474e-05" pbc="T T T"
Fe       1.73459048       1.22653969       3.00439770       0.00000434      -0.00000129       0.00000275
Fe       5.20376847       3.67962060       9.01319546      -0.00000461      -0.00000070       0.00002262
Ni      -0.00000009      -0.00000002       0.00000001       0.00000164       0.00000141      -0.00000010
S        1.74044944       1.23068283       6.00879481      -0.00009224      -0.00006917      -0.00000156
S        5.19790973       3.67547730       6.00879369       0.00009179       0.00006585      -0.00000911
S        4.33354476       1.23068422       4.51166993       0.00004913      -0.00006235      -0.00008741
S        2.60481375       3.67547782       7.50591850      -0.00004971       0.00006767       0.00007612
S        2.60481478       3.67547709       4.51166999      -0.00004396       0.00006866      -0.00008774
S        4.33354347       1.23068341       7.50591898       0.00004362      -0.00006995       0.00008431
