9
Lattice="5.894863858867978 -2.0467155487335017e-07 3.403401424821813 1.9649546202430703 5.557731363683477 3.403401089520035 -1.1988825548363754e-07 -4.954330251537003e-07 6.806803057296238" Properties=species:S:1:pos:R:3:forces:R:3 energy=-35.00025177001953 free_energy=-35.00025177001953 stress="-0.00019952743605244905 5.682962544995007e-09 4.682556919988201e-08 5.682962544995007e-09 -0.00019954887102358043 -4.3023691276289355e-09 4.682556919988201e-08 -4.3023691276289355e-09 -0.00019953257287852466" pbc="T T T"
Fe       1.96494736       1.38943230       3.40340270      -0.00004799      -0.00000252       0.00000780
Fe       5.89486311       4.16829558      10.21020172      -0.00000903      -0.00001723      -0.00001927
Ni      -0.00000130      -0.00000004      -0.00000091       0.00001235       0.00000051       0.00000842
Te       2.07021637       1.46386616       6.80680270      -0.00331118      -0.00233386       0.00000116
Te       5.78960252       4.09386469       6.80680608       0.00331241       0.00233284       0.00001413
Te       4.85975777       1.46386508       5.19626332       0.00166949      -0.00233612      -0.00285880
Te       3.00006394       4.09386792       8.41734265      -0.00164894       0.00234686       0.00286091
Te       3.00006399       4.09386532       5.19626229      -0.00165069       0.00234221      -0.00287213
Te       4.85975971       1.46386561       8.41734174       0.00167344      -0.00233271       0.00285784
