9
Lattice="5.333185269807382 -2.3981937451986456e-07 3.0791151215142585 1.777728129118093 5.028175072060216 3.079115239375243 -1.270069308793404e-06 -7.537248671536093e-07 6.15823244285342" Properties=species:S:1:pos:R:3:forces:R:3 energy=-37.76617431640625 free_energy=-37.76617431640625 stress="-2.7924388632527553e-06 1.337391495326301e-07 -6.778562351428263e-07 1.337391495326301e-07 -3.7278396121109836e-06 -5.386950192587392e-07 -6.778562351428263e-07 -5.386950192587392e-07 -2.4454325284750666e-06" pbc="T T T"
Fe       1.77775944       1.25700494       3.07912626       0.00022323      -0.00021897       0.00000690
Fe       5.33323143       3.77114382       9.23727699       0.00030737       0.00004873      -0.00040778
Ni      -0.00000454       0.00000134       0.00000340      -0.00003985       0.00001570       0.00003344
Se       1.95715756       1.38392305       6.15823087       0.00014052       0.00013331       0.00002939
Se       5.15373645       3.64426134       6.15826589      -0.00027174      -0.00009747       0.00017227
Se       4.35457587       1.38390816       4.77407531      -0.00025812       0.00009847       0.00021288
Se       2.75630053       3.64426573       7.54238843       0.00000970      -0.00005977      -0.00016868
Se       2.75629087       3.64426024       4.77408669       0.00000709      -0.00008614       0.00025305
Se       4.35460095       1.38392776       7.54239739      -0.00011808       0.00016619      -0.00013134
