9
Lattice="4.156290133033216 3.0923290811599135e-08 2.3996352716864964 1.3854300790620615 3.918587602589947 2.399635262051275 -2.9095614097980194e-09 -1.3858069230878367e-08 4.799270548412502" Properties=species:S:1:pos:R:3:forces:R:3 energy=-54.27503204345703 free_energy=-54.27503204345703 stress="-0.00015064234321471304 8.781873006569185e-09 -1.5676981490742037e-07 8.781873006569185e-09 -0.00015008017362561077 6.731613488852872e-09 -1.5676981490742037e-07 6.731613488852872e-09 -0.00015066871128510684" pbc="T T T"
Fe       1.38542506       0.97964833       2.39963584      -0.00006751       0.00002473       0.00000720
Fe       4.15628725       2.93893924       7.19890473      -0.00004411      -0.00002203      -0.00002031
Ni      -0.00000038       0.00000011      -0.00000029      -0.00000411      -0.00000087       0.00000208
N        1.51924398       1.07426774       4.79927017      -0.00020832      -0.00014025      -0.00000832
N        4.02247706       2.84431810       4.79927103       0.00021747       0.00010988       0.00001136
N        3.39667085       1.07426853       3.71534040       0.00013879      -0.00012943      -0.00015956
N        2.14505382       2.84431957       5.88320288      -0.00007601       0.00013812       0.00019184
N        2.14505185       2.84431864       3.71533795      -0.00010258       0.00012739      -0.00019169
N        3.39667129       1.07427020       5.88320159       0.00014664      -0.00010806       0.00016758
