9
Lattice="2.182870094714675 -0.3080765006316155 0.745308005167865 0.5461895270369237 2.7041202939278848 1.0136570268090885 -1.7516949415716572 -2.7108778634060373 2.993050892310573" Properties=species:S:1:pos:R:3:forces:R:3 energy=-15987181568.0 free_energy=-15987181568.0 stress="3636241664.0 -958996224.0 907918400.0 -958996224.0 3901073152.0 387844000.0 907918400.0 387844000.0 2547260928.0" pbc="T T T"
Fe       0.15267180       4.14196015       1.28108550 -7486885888.00000000 -5651385344.00000000 -2401405440.00000000
Fe      -0.47395317       2.85214409       4.28797342 -235608064.00000000 45194231808.00000000 -73028706304.00000000
Ni      -1.57119416       3.48982645      -0.29600273 1670489088.00000000 -50087190528.00000000 -13319937024.00000000
O        0.76508737       1.70448138       2.35824233 -1234614144.00000000 -401895776.00000000 1996253184.00000000
O        1.31449724       5.51001018       1.25544403 156609626112.00000000 -8215103488.00000000 -3278307328.00000000
O        1.31086943       5.49654413       1.25019306 -143459368960.00000000 12372709376.00000000 94747836416.00000000
O       -0.40285646       1.02051960       3.82742225 -3880327168.00000000 1614717696.00000000 -757851264.00000000
O        1.16856061       4.01777278       0.68152171 6651858944.00000000 -18622017536.00000000 11970607104.00000000
O        1.29528547       3.51299870       0.97633961 -8635246592.00000000 23795924992.00000000 -15928372224.00000000
