9
Lattice="5.203253727784216 -1.0193307987615607e-07 3.004099910267778 1.734417862888888 4.905674553268245 3.004099824131406 2.2947094083984614e-08 -8.926904636213573e-08 6.008199780789926" Properties=species:S:1:pos:R:3:forces:R:3 energy=-41.269195556640625 free_energy=-41.269195556640625 stress="-0.00012057629646733403 -2.762420336921423e-08 9.114788923625383e-09 -2.762420336921423e-08 -0.00012045951734762639 -4.0868105344316064e-08 9.114788923625383e-09 -4.0868105344316064e-08 -0.00012046071788063273" pbc="T T T"
Fe       1.73441827       1.22641797       3.00409855       0.00000334      -0.00000486      -0.00001200
Fe       5.20325174       3.67925563       9.01229920      -0.00001774      -0.00000046      -0.00000264
Ni      -0.00000001       0.00000037       0.00000005       0.00000143      -0.00001328       0.00000075
S        1.74036361       1.23062218       6.00819994       0.00062573       0.00043820       0.00000303
S        5.19730790       3.67505202       6.00820009      -0.00061566      -0.00043225       0.00000217
S        4.33307208       1.23062306       4.51129892      -0.00030792       0.00043887       0.00053757
S        2.60460039       3.67505130       7.50510112       0.00030918      -0.00043371      -0.00052753
S        2.60460116       3.67505170       4.51129882       0.00031380      -0.00043039       0.00052893
S        4.33307132       1.23062320       7.50510143      -0.00031209       0.00043809      -0.00053027
