9
Lattice="5.361946466171747 6.433298277925623e-08 3.0957211519863863 1.7873155207272458 5.055291664038503 3.0957212016103384 -3.045377424214022e-08 3.9242603786523433e-08 6.191442356720321" Properties=species:S:1:pos:R:3:forces:R:3 energy=-47.898216247558594 free_energy=-47.898216247558594 stress="-5.91879288549535e-05 1.8803651968823942e-08 -5.0338670121163887e-08 1.8803651968823942e-08 -5.919380782870576e-05 8.922931016286384e-08 -5.0338670121163887e-08 8.922931016286384e-08 -5.925767254666425e-05" pbc="T T T"
Fe       1.78731490       1.26382243       3.09572074      -0.00000379      -0.00000325      -0.00000241
Fe       5.36194581       3.79146877       9.28716296      -0.00000535       0.00000039      -0.00000434
Nb      -0.00000018      -0.00000017      -0.00000002       0.00000429       0.00000700       0.00000162
S        1.91638169       1.35508670       6.19144227       0.00023711       0.00016746       0.00000098
S        5.23288075       3.70020530       6.19144245      -0.00024089      -0.00017026       0.00000080
S        4.40375620       1.35508645       4.75535661      -0.00011638       0.00016834       0.00020632
S        2.74550681       3.70020579       7.62752873       0.00012226      -0.00016907      -0.00020856
S        2.74550634       3.70020548       4.75535606       0.00012378      -0.00017361       0.00021461
S        4.40375558       1.35508632       7.62752904      -0.00012101       0.00017302      -0.00020891
