9
Lattice="5.333206536834481 -1.314127819813805e-06 3.0791264679272987 1.7777340664697783 5.0281934264396115 3.0791268261787375 -8.571671168882591e-07 -1.673418574438905e-07 6.158254420511334" Properties=species:S:1:pos:R:3:forces:R:3 energy=-37.766170501708984 free_energy=-37.766170501708984 stress="-4.3250478483969346e-05 2.853564353699767e-07 2.345916811918869e-07 2.853564353699767e-07 -4.3095555156469345e-05 -1.3194997450227675e-07 2.345916811918869e-07 -1.3194997450227675e-07 -4.2864663555519655e-05" pbc="T T T"
Fe       1.77772923       1.25703980       3.07910968      -0.00002683      -0.00004093      -0.00012233
Fe       5.33321243       3.77114742       9.23735930       0.00003681       0.00001421      -0.00013690
Ni      -0.00000077       0.00000081       0.00000355       0.00000469       0.00000064       0.00001241
Se       1.95725376       1.38399616       6.15826308      -0.00193429      -0.00130294       0.00005448
Se       5.15367964       3.64420656       6.15826037       0.00187582       0.00137679       0.00005432
Se       4.35458263       1.38398356       4.77417161       0.00098133      -0.00136821      -0.00157800
Se       2.75636452       3.64420715       7.54235358      -0.00092527       0.00135656       0.00167546
Se       2.75636288       3.64420063       4.77416368      -0.00095943       0.00133124      -0.00162393
Se       4.35457439       1.38398569       7.54234668       0.00094730      -0.00136745       0.00166458
