9
Lattice="5.896008436641035 7.177896722995057e-08 3.4040618041797575 1.9653362277282802 5.558809845017633 3.404061779052145 6.449679064675517e-08 1.4831239230648108e-08 6.8081234966477835" Properties=species:S:1:pos:R:3:forces:R:3 energy=-35.00027847290039 free_energy=-35.00027847290039 stress="-3.984424620284699e-05 -2.2626270634873435e-08 -1.7987385803053257e-08 -2.2626270634873435e-08 -3.983316128142178e-05 1.5438610390106078e-08 -1.7987385803053257e-08 1.5438610390106078e-08 -3.976119478465989e-05" pbc="T T T"
Fe       1.96533523       1.38970137       3.40406173      -0.00000567      -0.00000813       0.00000335
Fe       5.89600869       4.16910748      10.21218669       0.00000066       0.00000200       0.00000915
Ni      -0.00000024       0.00000073       0.00000086       0.00000383      -0.00000799      -0.00000894
Te       2.07017480       1.46383350       6.80812365      -0.00084571      -0.00060337       0.00000097
Te       5.79117012       4.09497637       6.80812330       0.00084657       0.00060426      -0.00000237
Te       4.86092209       1.46383440       5.19688531       0.00042519      -0.00059676      -0.00073345
Te       3.00042297       4.09497592       8.41936059      -0.00043086       0.00060656       0.00073363
Te       3.00042335       4.09497588       5.19688542      -0.00042279       0.00060306      -0.00073479
Te       4.86092184       1.46383410       8.41936082       0.00042869      -0.00059971       0.00073242
