9
Lattice="4.586205200314535 1.3874361028440188e-07 2.6478466387569046 1.5287352054624876 4.32391609777764 2.6478466251044686 8.367350255469041e-08 4.244537765903824e-08 5.295693132587068" Properties=species:S:1:pos:R:3:forces:R:3 energy=-56.6978759765625 free_energy=-56.6978759765625 stress="-0.0008450732566416264 -4.4968277990165006e-08 -2.1763636226523886e-08 -4.4968277990165006e-08 -0.0008453077753074467 -1.5912418405150675e-07 -2.1763636226523886e-08 -1.5912418405150675e-07 -0.0008451628964394331" pbc="T T T"
Fe       1.52873477       1.08097905       2.64784683      -0.00000092       0.00000240       0.00000205
Fe       4.58620603       3.24293653       7.94354046       0.00000458      -0.00000444       0.00000629
Nb       0.00000040       0.00000040      -0.00000026      -0.00000203      -0.00000417       0.00000516
O        1.60374058       1.13401620       5.29569320       0.00063729       0.00045574       0.00000059
O        4.51119974       3.18990013       5.29569287      -0.00063968      -0.00045395      -0.00000299
O        3.78433476       1.13401626       4.03672618      -0.00032204       0.00045705       0.00055277
O        2.33060519       3.18990023       6.55465988       0.00032127      -0.00045311      -0.00055969
O        2.33060521       3.18990014       4.03672657       0.00031787      -0.00045133       0.00055611
O        3.78433513       1.13401594       6.55465951      -0.00031602       0.00045300      -0.00055945
