9
Lattice="6.312295650488993 -5.063702095196837e-08 3.644405567903491 2.1040984845711095 5.951289616832037 3.6444055988220416 -3.859594481742783e-08 1.0575808852129367e-08 7.288811202657143" Properties=species:S:1:pos:R:3:forces:R:3 energy=-38.84440994262695 free_energy=-38.84440994262695 stress="0.00014278221351560205 2.518880570789861e-08 2.215591932142047e-09 2.518880570789861e-08 0.00014274223940446973 -7.776535859704836e-09 2.215591932142047e-09 -7.776535859704836e-09 0.00014272915723267943" pbc="T T T"
Fe       2.10409902       1.48782176       3.64440576       0.00000270      -0.00000260       0.00000110
Fe       6.31229540       4.46346712      10.93321612      -0.00000050      -0.00000037      -0.00000344
Nb       0.00000001       0.00000020       0.00000006      -0.00000001      -0.00000106       0.00000051
Te       2.24618428       1.58829221       7.28881130       0.00582269       0.00411731       0.00000102
Te       6.17020986       4.36299743       7.28881158      -0.00582280      -0.00411658       0.00000083
Te       5.18920294       1.58829203       5.58965786      -0.00291412       0.00411958       0.00504503
Te       3.22719085       4.36299787       8.98796434       0.00291287      -0.00411934      -0.00504533
Te       3.22719043       4.36299737       5.58965816       0.00291169      -0.00411731       0.00504491
Te       5.18920352       1.58829230       8.98796434      -0.00291249       0.00412032      -0.00504462
