9
Lattice="4.311834601279659 3.580506103783278e-08 2.4894388880404774 1.437278201465469 4.065236794897918 2.48943894471052 -5.626795818385189e-08 2.9618844739484283e-08 4.978877873539962" Properties=species:S:1:pos:R:3:forces:R:3 energy=-43.71702575683594 free_energy=-43.71702575683594 stress="-6.068094080546871e-05 1.1980307412784441e-08 1.4736190045994135e-08 1.1980307412784441e-08 -6.056146594346501e-05 -6.082828907238991e-09 1.4736190045994135e-08 -6.082828907238991e-09 -6.064862827770412e-05" pbc="T T T"
Fe       1.43727773       1.01630909       2.48943918      -0.00000220      -0.00000225       0.00000286
Fe       4.31183476       3.04892908       7.46831675       0.00000202       0.00001101      -0.00000159
Ni       0.00000002       0.00000006       0.00000013      -0.00000235      -0.00000136      -0.00000822
O        1.45432729       1.02836342       4.97887798       0.00230700       0.00162511       0.00000101
O        4.29478612       3.03687258       4.97887783      -0.00230533      -0.00162807       0.00000062
O        3.58467136       1.02836399       3.74892268      -0.00115083       0.00163031       0.00199914
O        2.16444109       3.03687272       6.20883291       0.00115061      -0.00162871      -0.00199753
O        2.16444089       3.03687222       3.74892267       0.00115184      -0.00163499       0.00199980
O        3.58467155       1.02836410       6.20883291      -0.00115091       0.00162917      -0.00199634
