9
Lattice="5.518184235000878 -8.47391042540036e-08 3.1859252773066435 1.839394645379776 5.202594112525139 3.1859253114760495 -7.660431186823899e-08 -1.2318602465909324e-08 6.371850687295808" Properties=species:S:1:pos:R:3:forces:R:3 energy=-37.86899948120117 free_energy=-37.86899948120117 stress="-1.665831769059878e-05 -2.394723175314084e-08 3.430256745318161e-09 -2.394723175314084e-08 -1.6668325770297088e-05 1.385131453979227e-09 3.430256745318161e-09 1.385131453979227e-09 -1.672393591434229e-05" pbc="T T T"
Fe       1.83939749       1.30064830       3.18592595       0.00001164      -0.00000071       0.00000402
Fe       5.51818462       3.90194397       9.55777785       0.00000370      -0.00000669       0.00000747
Pd      -0.00000011       0.00000010       0.00000161      -0.00000211      -0.00000090      -0.00000802
Se       2.09712575       1.48289308       6.37185008      -0.00100167      -0.00070356      -0.00000254
Se       5.26045185       3.71970224       6.37184959       0.00099522       0.00070831      -0.00000322
Se       4.46962038       1.48289234       5.00208949       0.00049569      -0.00070463      -0.00086601
Se       2.88795758       3.71970073       7.74161043      -0.00050253       0.00070758       0.00086717
Se       2.88795782       3.71970206       5.00208934      -0.00049864       0.00070630      -0.00086567
Se       4.46961981       1.48289331       7.74161070       0.00049867      -0.00070579       0.00086677
