9
Lattice="5.556081492312224 6.947064732513915e-08 3.207805211718236 1.852027229457931 5.238324073368283 3.2078052119671248 3.015666153278391e-09 2.437204403522659e-09 6.415610418213156" Properties=species:S:1:pos:R:3:forces:R:3 energy=-35.459999084472656 free_energy=-35.459999084472656 stress="-0.00012245234393049031 2.8435602317244957e-08 2.5008651149960315e-08 2.8435602317244957e-08 -0.00012251362204551697 -1.7829431264715367e-09 2.5008651149960315e-08 -1.7829431264715367e-09 -0.0001225613959832117" pbc="T T T"
Fe       1.85202704       1.30958103       3.20780559      -0.00000141       0.00000112       0.00000124
Fe       5.55608173       3.92874262       9.62341539       0.00000029      -0.00000294      -0.00000243
Pb       0.00000015       0.00000051      -0.00000008      -0.00000140      -0.00000828       0.00000395
S        2.04953751       1.44924182       6.41561012       0.00510612       0.00360999      -0.00000131
S        5.35857100       3.78908238       6.41561042      -0.00510111      -0.00360547       0.00000081
S        4.53131275       1.44924212       4.98275670      -0.00255399       0.00361062       0.00442242
S        2.87679593       3.78908176       7.84846441       0.00255340      -0.00360921      -0.00442058
S        2.87679583       3.78908222       4.98275667       0.00255047      -0.00360828       0.00441867
S        4.53131297       1.44924211       7.84846423      -0.00255229       0.00361219      -0.00442293
