9
Lattice="5.446883828356565 -4.2235938515441765e-09 3.1447597066559774 1.8156279818211731 5.135371801529572 3.1447596321471525 2.2771362008556233e-08 -7.515249434772458e-08 6.289519373870752" Properties=species:S:1:pos:R:3:forces:R:3 energy=-39.91913604736328 free_energy=-39.91913604736328 stress="-2.0445670088520274e-05 -1.3394998998883523e-10 8.701518616760495e-09 -1.3394998998883523e-10 -2.0501274775597267e-05 3.369980916545501e-08 8.701518616760495e-09 3.369980916545501e-08 -2.0451943782973103e-05" pbc="T T T"
Fe       1.81562852       1.28384356       3.14475830       0.00000661       0.00000799      -0.00001364
Fe       5.44688348       3.85152666       9.43427898      -0.00000338      -0.00002046       0.00000347
P       -0.00000016      -0.00000004       0.00000001      -0.00000144       0.00000019       0.00000416
S        1.76165024       1.24567617       6.28951814       0.00097561       0.00070190      -0.00000712
S        5.50086091       3.88969650       6.28951744      -0.00098145      -0.00069076      -0.00001778
S        4.56606022       1.24567669       4.67039435      -0.00047171       0.00070071       0.00084829
S        2.69645553       3.88969547       7.90864667       0.00050509      -0.00070155      -0.00083435
S        2.69645150       3.88969646       4.67039510       0.00047731      -0.00069577       0.00085902
S        4.56605690       1.24567555       7.90864582      -0.00050694       0.00069797      -0.00084174
