9
Lattice="6.561304698160861 -1.9358723416365952e-07 3.7881707448952504 2.18710142309112 6.186057456670129 3.7881706763869945 -2.4708743260122025e-07 -2.5862232383729067e-07 7.576341917758378" Properties=species:S:1:pos:R:3:forces:R:3 energy=-31.267230987548828 free_energy=-31.267230987548828 stress="-0.00014827934501226991 5.60579760389146e-09 3.9685353669938195e-08 5.60579760389146e-09 -0.0001483354571973905 -2.6294106891810998e-09 3.9685353669938195e-08 -2.6294106891810998e-09 -0.00014826761616859585" pbc="T T T"
Fe       2.18710086       1.54651360       3.78817095      -0.00000108      -0.00000232      -0.00000028
Fe       6.56130499       4.63954256      11.36451253       0.00000190       0.00000100       0.00000106
Pb       0.00000090       0.00000043       0.00000039      -0.00000207      -0.00000030      -0.00000173
Te       2.58908938       1.83076176       7.57634231       0.00583331       0.00412391       0.00000107
Te       6.15931707       4.35529571       7.57634090      -0.00583442      -0.00412366      -0.00000145
Te       5.26676059       1.83076134       6.03038774      -0.00291444       0.00412481       0.00505486
Te       3.48164452       4.35529561       9.12229565       0.00291607      -0.00412430      -0.00505403
Te       3.48164555       4.35529566       6.03038764       0.00291763      -0.00412253       0.00505304
Te       5.26675963       1.83076138       9.12229517      -0.00291687       0.00412342      -0.00505254
