9
Lattice="5.9065813291967935 5.019226125468151e-08 3.4101665597537694 1.968860410769001 5.568778424616108 3.4101666976566785 -8.564049602581803e-08 1.0833897238758299e-07 6.820333267841251" Properties=species:S:1:pos:R:3:forces:R:3 energy=-35.39179992675781 free_energy=-35.39179992675781 stress="-3.209845453966409e-05 2.6630464944332743e-08 -5.847367923195179e-09 2.6630464944332743e-08 -3.2065698178485036e-05 -6.718246847725595e-09 -5.847367923195179e-09 -6.718246847725595e-09 -3.218185520381667e-05" pbc="T T T"
Fe       1.96886031       1.39219559       3.41016683       0.00000136       0.00000257       0.00000069
Fe       5.90658063       4.17658383      10.23049983      -0.00000276      -0.00000188       0.00000072
Pb       0.00000032      -0.00000026       0.00000021      -0.00000214       0.00000061      -0.00000058
Se       2.38728450       1.68806449       6.82033343      -0.00164205      -0.00116354       0.00000060
Se       5.48815795       3.88071275       6.82033362       0.00164673       0.00116076       0.00000106
Se       4.71293903       1.68806545       5.47761384       0.00082138      -0.00115959      -0.00142744
Se       3.16250223       3.88071402       8.16305149      -0.00082180       0.00116237       0.00142404
Se       3.16250237       3.88071319       5.47761450      -0.00082153       0.00115955      -0.00142416
Se       4.71293928       1.68806523       8.16305234       0.00082085      -0.00116080       0.00142509
