9
Lattice="4.749975026673523 1.0219762851204776e-07 2.7423993815803565 1.5833250741663676 4.478319225362568 2.7423994354084673 1.1156932973771837e-07 1.4481717973088978e-07 5.484798569916936" Properties=species:S:1:pos:R:3:forces:R:3 energy=-41.9371223449707 free_energy=-41.9371223449707 stress="-4.2679042962845415e-05 2.4365510498114418e-08 -2.178592950485836e-07 2.4365510498114418e-08 -4.258337867213413e-05 -1.549532555600308e-07 -2.178592950485836e-07 -1.549532555600308e-07 -4.2764142563100904e-05" pbc="T T T"
Fe       1.58332414       1.11957741       2.74239799      -0.00000459      -0.00002065      -0.00001411
Fe       4.74997451       3.35873854       8.22720099      -0.00000506      -0.00000623       0.00003018
Pb       0.00000040       0.00000023      -0.00000003      -0.00000618       0.00000150       0.00000442
O        1.67377600       1.18353801       5.48479894      -0.00216559      -0.00153420       0.00000389
O        4.65952405       3.29478290       5.48479791       0.00215943       0.00154322      -0.00001359
O        3.91308883       1.18353914       4.19193108       0.00109862      -0.00152113      -0.00187916
O        2.42021211       3.29478136       6.77766545      -0.00108872       0.00153169       0.00186767
O        2.42021367       3.29478223       4.19193124      -0.00107168       0.00154087      -0.00187410
O        3.91308728       1.18353810       6.77766580       0.00108370      -0.00153498       0.00187476
