9
Lattice="5.552794386068459 3.074630709682761e-09 3.205907517930359 1.8509314876633145 5.235224670775579 3.2059074785407295 1.1752179147836249e-07 3.485814119493021e-08 6.411814832307069" Properties=species:S:1:pos:R:3:forces:R:3 energy=-39.43872833251953 free_energy=-39.43872833251953 stress="-0.00019452285778243095 3.113728297421403e-08 -3.582121266276772e-08 3.113728297421403e-08 -0.0001945059048011899 -2.7601682717204312e-08 -3.582121266276772e-08 -2.7601682717204312e-08 -0.00019457002053968608" pbc="T T T"
Fe       1.85093049       1.30880842       3.20590756      -0.00000316       0.00000717      -0.00000144
Fe       5.55279502       3.92641844       9.61771888       0.00000113       0.00000038      -0.00001160
Pt      -0.00000037      -0.00000043      -0.00000066       0.00000357       0.00000083       0.00000790
Se       2.13800783       1.51180050       6.41181460       0.00106491       0.00075190      -0.00000018
Se       5.26571821       3.72342398       6.41181639      -0.00106563      -0.00075343       0.00000185
Se       4.48379075       1.51179915       5.05747738      -0.00053449       0.00075309       0.00092651
Se       2.91993547       3.72342455       7.76615466       0.00053505      -0.00075820      -0.00092426
Se       2.91993502       3.72342429       5.05747693       0.00053425      -0.00075632       0.00092660
Se       4.48379154       1.51180002       7.76615363      -0.00053548       0.00075451      -0.00092545
