9
Lattice="4.556769294961792 8.745686250727015e-08 2.6308520236361965 1.5189231340699731 4.296163589318617 2.630852104532938 5.2687681549523374e-08 1.3633367962947953e-07 5.261703956014666" Properties=species:S:1:pos:R:3:forces:R:3 energy=-46.77857971191406 free_energy=-46.77857971191406 stress="5.235428034211509e-05 -2.5566103900587223e-08 5.248133039259528e-09 -2.5566103900587223e-08 5.2347670134622604e-05 -2.9775341303661662e-08 5.248133039259528e-09 -2.9775341303661662e-08 5.239368692855351e-05" pbc="T T T"
Fe       1.51892171       1.07404162       2.63085214      -0.00000652       0.00000249       0.00000119
Fe       4.55676869       3.22212120       7.89255740      -0.00000584      -0.00000792       0.00001066
Pt       0.00000003      -0.00000010       0.00000006      -0.00000789       0.00000864       0.00000009
O        1.55243894       1.09774030       5.26170401      -0.00121914      -0.00086021      -0.00000001
O        4.52325355       3.19842368       5.26170360       0.00122016       0.00086125      -0.00000417
O        3.78055059       1.09774100       3.97530336       0.00061659      -0.00085866      -0.00105841
O        2.29514241       3.19842352       6.54810452      -0.00060853       0.00085671       0.00105127
O        2.29514326       3.19842332       3.97530300      -0.00060563       0.00085667      -0.00105505
O        3.78055084       1.09774064       6.54810427       0.00061719      -0.00085872       0.00105464
