9
Lattice="5.350120046216825 4.607194535360281e-09 3.0888933938460377 1.7833733185310376 5.04414164355509 3.088893453691155 1.8783923299163573e-07 2.061174186340161e-07 6.177786462344951" Properties=species:S:1:pos:R:3:forces:R:3 energy=-39.58131408691406 free_energy=-39.58131408691406 stress="0.00020379998022690415 -7.155648518164526e-08 -2.5530617620006524e-08 -7.155648518164526e-08 0.00020382720686029643 -2.2990423786950487e-08 -2.5530617620006524e-08 -2.2990423786950487e-08 0.00020382519869599491" pbc="T T T"
Fe       1.78337338       1.26103423       3.08889345       0.00000138      -0.00000755       0.00000087
Fe       5.35012094       3.78310637       9.26668056       0.00000415      -0.00000177       0.00000515
Pd      -0.00000020       0.00000028      -0.00000013       0.00000105      -0.00000553      -0.00000301
S        1.89018337       1.33656162       6.17778635       0.00370347       0.00261879      -0.00000144
S        5.24330966       3.70758099       6.17778632      -0.00370520      -0.00261492      -0.00000412
S        4.40502844       1.33656173       4.72584074      -0.00184980       0.00262010       0.00320810
S        2.72846561       3.70757988       7.62973230       0.00184765      -0.00261211      -0.00320441
S        2.72846495       3.70758016       4.72584097       0.00184855      -0.00261396       0.00320613
S        4.40502804       1.33656212       7.62973262      -0.00185141       0.00261712      -0.00320679
