9
Lattice="5.470003768078132 4.2160309820123793e-08 3.1581081418976065 1.823334645263025 5.1571687775273745 3.158108113917116 -1.6942349620845894e-08 -4.6249013298524706e-08 6.316216313140231" Properties=species:S:1:pos:R:3:forces:R:3 energy=-38.284812927246094 free_energy=-38.284812927246094 stress="5.655446511809714e-05 9.555587432430457e-09 2.5920831703274416e-08 9.555587432430457e-09 5.6561202654847875e-05 7.722552042288555e-10 2.5920831703274416e-08 7.722552042288555e-10 5.655413042404689e-05" pbc="T T T"
Fe       1.82333516       1.28929190       3.15810825       0.00000190      -0.00000081      -0.00000067
Fe       5.47000397       3.86787655       9.47432301       0.00000157      -0.00000006      -0.00000488
P        0.00000018      -0.00000006      -0.00000025      -0.00000081       0.00000099       0.00000256
Se       2.10717109       1.48999497       6.31621655      -0.00157851      -0.00111318       0.00000098
Se       5.18616718       3.66717387       6.31621691       0.00157356       0.00111637       0.00000117
Se       4.41641787       1.48999493       4.98297199       0.00078864      -0.00111514      -0.00136715
Se       2.87692008       3.66717414       7.64946114      -0.00078659       0.00111300       0.00136080
Se       2.87692007       3.66717398       4.98297186      -0.00078732       0.00111413      -0.00136134
Se       4.41641801       1.48999484       7.64946093       0.00078750      -0.00111526       0.00136843
