9
Lattice="4.107070070526546 -3.093696047619247e-08 2.3712180082998096 1.369023359615568 3.8721826159060946 2.371217952976322 8.458942963461414e-08 -7.943395547339833e-09 4.742435870086427" Properties=species:S:1:pos:R:3:forces:R:3 energy=-57.541236877441406 free_energy=-57.541236877441406 stress="4.016787715954706e-05 -2.372341043610504e-07 1.900215629291324e-08 -2.372341043610504e-07 4.0398026612820104e-05 5.903427968689812e-09 1.900215629291324e-08 5.903427968689812e-09 4.027456816402264e-05" pbc="T T T"
Fe       1.36902322       0.96804591       2.37121786      -0.00000150       0.00000013       0.00000065
Fe       4.10706980       2.90413593       7.11365442      -0.00000220      -0.00000565       0.00000574
P        0.00000005      -0.00000005      -0.00000010      -0.00000055       0.00000297      -0.00000511
N        1.40151448       0.99102113       4.74243581      -0.00264716      -0.00186539      -0.00000188
N        4.07457868       2.88116191       4.74243552       0.00264263       0.00186765      -0.00000177
N        3.40631288       0.99102096       3.58496536       0.00132877      -0.00187290      -0.00229967
N        2.06978095       2.88116176       5.89990672      -0.00132549       0.00187457       0.00229967
N        2.06978108       2.88116212       3.58496513      -0.00132143       0.00187135      -0.00229287
N        3.40631273       0.99102075       5.89990653       0.00132740      -0.00187242       0.00229561
