9
Lattice="2.307154898523144 -0.9054331408992571 0.602741294341526 -0.6034951106217764 3.4426716410755986 1.1201478071342874 -1.0471181906750084 1.1138107894356202 3.1594422391195547" Properties=species:S:1:pos:R:3:forces:R:3 energy=-369467648.0 free_energy=-369467648.0 stress="151183232.0 2476049.5 -9859043.0 2476049.5 129081184.0 -3279275.0 -9859043.0 -3279275.0 119824464.0" pbc="T T T"
Fe      -0.59328518       0.51393122       3.23930710 32634642.00000000 41818344.00000000 -7678344.00000000
Fe       0.75672247       1.99955464       3.27329037 -220624192.00000000 41096880.00000000 -84135392.00000000
Pd       0.10335754      -2.19874662       0.18267571 450520544.00000000 -724717824.00000000 -236925952.00000000
O       -0.09444653      -0.75283422       3.91007472 -28011712.00000000 92901904.00000000 64797156.00000000
O        0.28908782       0.84667742       3.64548857 -132187560.00000000 16066672.00000000 -211243424.00000000
O        0.73202073      -0.38717867       2.92035130 194636544.00000000 265252128.00000000 -246052000.00000000
O       -1.51423592       2.35883840       4.39458200 -314064320.00000000 229351616.00000000 496192640.00000000
O        0.02322060       2.63392626       3.17959919 31584092.00000000 29978714.00000000 129517040.00000000
O        0.03783309       1.64947457       2.93778700 -14488076.00000000 8251870.00000000 95528208.00000000
