9
Lattice="4.605489021077094 1.2514403243553826e-07 2.658980379534239 1.535162966347325 4.342097483922838 2.658980654350602 -1.8628519868289899e-07 2.0485640681891096e-07 5.317961081723886" Properties=species:S:1:pos:R:3:forces:R:3 energy=-45.151268005371094 free_energy=-45.151268005371094 stress="-8.451485336991027e-05 7.918396249806392e-08 -7.639971499884268e-08 7.918396249806392e-08 -8.463227277388796e-05 6.505641181320243e-08 -7.639971499884268e-08 6.505641181320243e-08 -8.446601714240387e-05" pbc="T T T"
Fe       1.53516219       1.08552504       2.65898049      -0.00000373       0.00000341       0.00000194
Fe       4.60548838       3.25657262       7.97694155      -0.00000431      -0.00000362      -0.00000229
Sn      -0.00000006       0.00000016       0.00000023      -0.00000005       0.00000077      -0.00000141
O        1.64010705       1.15973121       5.31796079      -0.00071537      -0.00050646      -0.00000137
O        4.50054442       3.18236680       5.31796133       0.00071418       0.00050795      -0.00000085
O        3.78543604       1.15973155       4.07935510       0.00036263      -0.00050479      -0.00062054
O        2.35521651       3.18236595       6.55656755      -0.00035936       0.00050443       0.00062323
O        2.35521635       3.18236639       4.07935453      -0.00035572       0.00050193      -0.00061613
O        3.78543627       1.15973159       6.55656715       0.00036114      -0.00050336       0.00061685
