9
Lattice="5.6788816093575845 -1.1433643764351246e-08 3.278703733901483 1.89296049888554 5.354100997141776 3.2787037802983443 2.3442799283596197e-07 2.2258999364553388e-07 6.557407061761771" Properties=species:S:1:pos:R:3:forces:R:3 energy=-38.586448669433594 free_energy=-38.586448669433594 stress="-6.197714537847787e-05 8.286190222861478e-08 -1.379327443373768e-07 8.286190222861478e-08 -6.213122833287343e-05 -1.243037246467793e-07 -1.379327443373768e-07 -1.243037246467793e-07 -6.180896161822602e-05" pbc="T T T"
Fe       1.89296071       1.33852498       3.27870483       0.00000137      -0.00000125       0.00000506
Fe       5.67888278       4.01557651       9.83610908       0.00000452       0.00000234      -0.00000591
Sc      -0.00000028       0.00000005      -0.00000053       0.00000025       0.00000030       0.00000349
Se       2.14879622       1.51942920       6.55740636      -0.00324860      -0.00229178       0.00000075
Se       5.42304634       3.83467337       6.55740851       0.00324710       0.00230050       0.00001249
Se       4.60448168       1.51942855       5.13961666       0.00161306      -0.00229844      -0.00281043
Se       2.96735767       3.83467648       7.97519871      -0.00162625       0.00231477       0.00280625
Se       2.96735850       3.83466999       5.13961571      -0.00162574       0.00228263      -0.00281656
Se       4.60448569       1.51942572       7.97519893       0.00163421      -0.00230908       0.00280502
