9
Lattice="4.881426002061485 -7.849329892608702e-08 2.818292589219443 1.627141964946233 4.602252492460319 2.818292522945502 -4.315856858654625e-09 -8.422039875682211e-08 5.636585185914168" Properties=species:S:1:pos:R:3:forces:R:3 energy=-38.56649398803711 free_energy=-38.56649398803711 stress="6.298394873738289e-05 -3.0074143175795598e-09 5.482322151806329e-08 -3.0074143175795598e-09 6.293240585364401e-05 -3.5739450510163806e-08 5.482322151806329e-08 -3.5739450510163806e-08 6.30043723504059e-05" pbc="T T T"
Fe       1.62714213       1.15056325       2.81829253       0.00000034       0.00000240       0.00000083
Fe       4.88142599       3.45168820       8.45487718      -0.00000033      -0.00000669      -0.00000462
Sr      -0.00000002       0.00000041      -0.00000005      -0.00000019      -0.00000623      -0.00000222
O        1.88875986       1.33555513       5.63658532      -0.00062050      -0.00043570      -0.00000025
O        4.61980774       3.26669746       5.63658583       0.00062083       0.00044004       0.00000412
O        3.93704601       1.33555519       4.45400633       0.00030804      -0.00043438      -0.00053751
O        2.57152180       3.26669689       6.81916371      -0.00031094       0.00043710       0.00054020
O        2.57152190       3.26669718       4.45400686      -0.00031172       0.00043860      -0.00053896
O        3.93704646       1.33555559       6.81916349       0.00031453      -0.00043517       0.00053845
