9
Lattice="5.76021445995776 -2.3019946129572784e-08 3.3256613334524263 1.9200715548948946 5.430782119922579 3.3256611776617646 9.315150626612234e-09 -1.8421690658232612e-07 6.651322650770439" Properties=species:S:1:pos:R:3:forces:R:3 energy=-36.039146423339844 free_energy=-36.039146423339844 stress="-7.086346158757806e-05 -2.5675950254822055e-09 4.486560012395557e-09 -2.5675950254822055e-09 -7.093440945027396e-05 1.0925871762879069e-08 4.486560012395557e-09 1.0925871762879069e-08 -7.09142186678946e-05" pbc="T T T"
Fe       1.92007124       1.35769548       3.32566090      -0.00000047       0.00000123      -0.00000160
Fe       5.76021429       4.07308748       9.97698271      -0.00000028       0.00000370      -0.00000354
Sn       0.00000051      -0.00000006      -0.00000024      -0.00000280      -0.00000149       0.00000273
Se       2.26043318       1.59836677       6.65132280      -0.00098281      -0.00069684       0.00000035
Se       5.41985315       3.83241462       6.65132299       0.00098436       0.00069538       0.00000133
Se       4.62999777       1.59836684       5.28325389       0.00049267      -0.00069746      -0.00085199
Se       3.05028782       3.83241474       8.01939205      -0.00049084       0.00069468       0.00085263
Se       3.05028789       3.83241485       5.28325350      -0.00049189       0.00069723      -0.00085188
Se       4.62999825       1.59836689       8.01939206       0.00049213      -0.00069641       0.00085202
