9
Lattice="6.781947641166098 -2.1443382293473614e-08 3.9155597677011427 2.2606490898798848 6.394081823120356 3.9155599471850944 -6.44948848903329e-08 1.7421721914726282e-07 7.831119647110868" Properties=species:S:1:pos:R:3:forces:R:3 energy=-30.927047729492188 free_energy=-30.927047729492188 stress="-6.413250230252743e-05 -2.0073592565950094e-08 1.9249958072009576e-08 -2.0073592565950094e-08 -6.417717668227851e-05 -1.0871986866334282e-08 1.9249958072009576e-08 -1.0871986866334282e-08 -6.41657316009514e-05" pbc="T T T"
Fe       2.26064953       1.59852045       3.91555966       0.00000134      -0.00000011       0.00000025
Fe       6.78194697       4.79556137      11.74667924      -0.00000091      -0.00000038       0.00000019
Sr       0.00000164       0.00000092       0.00000241      -0.00000220      -0.00000201      -0.00000282
Te       2.67544022       1.89182189       7.83111926      -0.00280349      -0.00198346      -0.00000021
Te       6.36715692       4.50226047       7.83111890       0.00280062       0.00198393      -0.00000142
Te       5.44422669       1.89182160       6.23255825       0.00140248      -0.00198110      -0.00242791
Te       3.59836850       4.50225944       9.42968091      -0.00140062       0.00198233       0.00242990
Te       3.59836905       4.50225956       6.23255845      -0.00140005       0.00198282      -0.00242695
Te       5.44422713       1.89182218       9.42968034       0.00140291      -0.00198201       0.00242894
