9
Lattice="5.275193982911926 -8.570744804854473e-08 3.0456346776571785 1.7583979075529563 4.973500601558789 3.04563468795466 -1.2199041596767812e-07 -7.36484588101161e-08 6.0912695666079495" Properties=species:S:1:pos:R:3:forces:R:3 energy=-40.04669952392578 free_energy=-40.04669952392578 stress="7.897316390881315e-05 -2.894378603457426e-08 -9.619842700203662e-09 -2.894378603457426e-08 7.903241930762306e-05 2.0873040185165337e-08 -9.619842700203662e-09 2.0873040185165337e-08 7.908417319413275e-05" pbc="T T T"
Fe       1.75839746       1.24337500       3.04563434      -0.00000166      -0.00000078      -0.00000229
Fe       5.27519342       3.73012503       9.13690386      -0.00000469      -0.00000206      -0.00000346
Si       0.00000009      -0.00000019       0.00000043      -0.00000220       0.00000364      -0.00000259
S        1.78962022       1.26545203       6.09126880      -0.00369221      -0.00261495      -0.00000368
S        5.24397213       3.70804859       6.09126871       0.00369072       0.00261164      -0.00000705
S        4.38038401       1.26545205       4.59549178       0.00184911      -0.00261551      -0.00319642
S        2.65320809       3.70804759       7.58704822      -0.00184354       0.00260797       0.00320160
S        2.65320746       3.70804847       4.59549156      -0.00184587       0.00261450      -0.00319201
S        4.38038409       1.26545318       7.58704786       0.00185013      -0.00260493       0.00320572
