9
Lattice="4.5280790039661545 1.0670410928766194e-07 2.6142875653398256 1.5093597056174115 4.269114025366469 2.614287674412057 -1.2517112802708522e-07 4.5076324958032416e-08 5.228575347482387" Properties=species:S:1:pos:R:3:forces:R:3 energy=-50.15906524658203 free_energy=-50.15906524658203 stress="0.00038504102849401534 1.3263297660159878e-07 -1.4327269148850519e-08 1.3263297660159878e-07 0.000384997867513448 4.561245958711879e-08 -1.4327269148850519e-08 4.561245958711879e-08 0.00038466061232611537" pbc="T T T"
Fe       1.50935941       1.06727746       2.61428759      -0.00000122      -0.00000884      -0.00000064
Fe       4.52807886       3.20183655       7.84286286      -0.00000178       0.00000814       0.00000081
Sc      -0.00000027      -0.00000008      -0.00000003       0.00000342       0.00000401       0.00000067
O        1.62133910       1.14645927       5.22857542       0.00620091       0.00438064       0.00000049
O        4.41609968       3.12265473       5.22857541      -0.00620270      -0.00438003      -0.00000066
O        3.71740982       1.14645966       4.01840819      -0.00310044       0.00438386       0.00537483
O        2.32002911       3.12265486       6.43874242       0.00310332      -0.00438750      -0.00537850
O        2.32002899       3.12265471       4.01840797       0.00310355      -0.00438742       0.00537924
O        3.71740963       1.14645949       6.43874241      -0.00310506       0.00438714      -0.00537638
