9
Lattice="4.159731412984501 5.505473814385976e-08 2.4016220121284073 1.3865771762427004 3.9218323573367253 2.401622035207818 2.9645305174864907e-09 3.036262768415991e-08 4.803244019122098" Properties=species:S:1:pos:R:3:forces:R:3 energy=-51.99546813964844 free_energy=-51.99546813964844 stress="0.0002968057815451175 -1.1651111009314263e-07 -2.2772519869818098e-08 -1.1651111009314263e-07 0.00029686858761124313 -8.922863337090803e-09 -2.2772519869818098e-08 -8.922863337090803e-09 0.00029738686862401664" pbc="T T T"
Fe       1.38657708       0.98045813       2.40162201      -0.00000054       0.00000037      -0.00000023
Fe       4.15973144       2.94137443       7.20486599       0.00000059       0.00000166       0.00000026
S       -0.00000009       0.00000000      -0.00000007       0.00000608       0.00000484      -0.00000759
O        1.31442972       0.92944225       4.80324400      -0.00557983      -0.00394797      -0.00000180
O        4.23187907       2.99239011       4.80324406       0.00557125       0.00394011       0.00000033
O        3.50251646       0.92944239       3.53995157       0.00278902      -0.00394702      -0.00483704
O        2.04379219       2.99239021       6.06653631      -0.00279123       0.00395143       0.00483906
O        2.04379198       2.99239019       3.53995168      -0.00278652       0.00394404      -0.00482881
O        3.50251648       0.92944205       6.06653649       0.00279123      -0.00394642       0.00483334
