9
Lattice="5.48910151703678 1.645208695355111e-07 3.169134209075918 1.8297006751371703 5.175174344488789 3.1691341842271115 3.7717127191348194e-08 -3.763419062718341e-09 6.338268352823871" Properties=species:S:1:pos:R:3:forces:R:3 energy=-37.199195861816406 free_energy=-37.199195861816406 stress="0.00032128251041285694 2.7782554923305725e-08 3.628222700058359e-08 2.7782554923305725e-08 0.0003212012816220522 7.0241887861755e-09 3.628222700058359e-08 7.0241887861755e-09 0.000321176863508299" pbc="T T T"
Fe       1.82970250       1.29379284       3.16913354       0.00000873      -0.00000386      -0.00000414
Fe       5.48910153       3.88138122       9.50740358      -0.00000131       0.00000170       0.00000313
Sn       0.00000027      -0.00000023      -0.00000059      -0.00000591       0.00000910       0.00001635
S        2.00964763       1.42103561       6.33826810      -0.00636584      -0.00450140       0.00000119
S        5.30915401       3.75413931       6.33826675       0.00636174       0.00450416      -0.00000979
S        4.48427689       1.42103547       4.90954010       0.00318206      -0.00450723      -0.00551628
S        2.83452398       3.75413905       7.76699778      -0.00317766       0.00448930       0.00550863
S        2.83452501       3.75413933       4.90954012      -0.00317770       0.00450559      -0.00551276
S        4.48427709       1.42103543       7.76699756       0.00317585      -0.00449703       0.00551356
