9
Lattice="4.159587546021148 2.9639043202664205e-07 2.401538930429686 1.3865294276102897 3.9216966790282255 2.4015389890359993 1.5035215715949748e-07 1.7809278757126102e-07 4.803077600441807" Properties=species:S:1:pos:R:3:forces:R:3 energy=-51.99546813964844 free_energy=-51.99546813964844 stress="-4.204863580525853e-05 -7.754008635174614e-08 -7.242493182957332e-08 -7.754008635174614e-08 -4.176725633442402e-05 -9.557439994978267e-08 -7.242493182957332e-08 -9.557439994978267e-08 -4.1856212192215025e-05" pbc="T T T"
Fe       1.38652936       0.98042444       2.40153941       0.00000038       0.00000273       0.00000109
Fe       4.15958821       2.94127331       7.20461614       0.00000204       0.00000131      -0.00000141
S        0.00000004       0.00000014      -0.00000016       0.00000141      -0.00000297       0.00000816
O        1.31429317       0.92934589       4.80307791       0.00078619       0.00056016       0.00000311
O        4.23182416       2.99235061       4.80307785      -0.00078893      -0.00056076       0.00000202
O        3.50244039       0.92934556       3.53975001      -0.00039226       0.00054801       0.00067472
O        2.04367629       2.99235178       6.06640510       0.00039804      -0.00055635      -0.00068510
O        2.04367612       2.99235093       3.53975006       0.00039089      -0.00055039       0.00067854
O        3.50244069       0.92934566       6.06640528      -0.00039780       0.00055897      -0.00068080
