9
Lattice="6.169821993352501 3.9478662762639717e-07 3.562148748423278 2.0566077149278703 5.816963628171754 3.5621487283281263 3.768563791009467e-07 2.4186628744164373e-07 7.124296844112139" Properties=species:S:1:pos:R:3:forces:R:3 energy=-33.046199798583984 free_energy=-33.046199798583984 stress="-4.1022300138138235e-05 -7.168041804561653e-08 -1.571251715404287e-07 -7.168041804561653e-08 -4.091478695045225e-05 -7.390674738871894e-08 -1.571251715404287e-07 -7.390674738871894e-08 -4.12415865866933e-05" pbc="T T T"
Fe       2.05660873       1.45424201       3.56214911       0.00000553       0.00000331       0.00000210
Fe       6.16982188       4.36272242      10.68644361      -0.00000322      -0.00000385      -0.00000905
Sr       0.00000051       0.00000028       0.00000036      -0.00000216      -0.00000126       0.00000280
Se       2.50138797       1.76874961       7.12429617      -0.00100063      -0.00069915      -0.00001118
Se       5.72504153       4.04821667       7.12429897       0.00100166       0.00071529       0.00001005
Se       4.91912797       1.76874842       5.72841337       0.00049423      -0.00070580      -0.00087124
Se       3.30730435       4.04821378       8.52018062      -0.00048227       0.00070048       0.00087460
Se       3.30730002       4.04821361       5.72841365      -0.00050939       0.00068974      -0.00087399
Se       4.91912746       1.76875027       8.52018141       0.00049626      -0.00069878       0.00087598
