9
Lattice="6.362648616870105 -5.330079295059183e-07 3.6734771662018497 2.1208827683374833 5.998761714245034 3.6734764758545766 5.771846142755964e-07 -4.373681451715393e-07 7.346953332690478" Properties=species:S:1:pos:R:3:forces:R:3 energy=-32.01490020751953 free_energy=-32.01490020751953 stress="5.492620402947068e-05 -4.266567543709243e-09 -7.0614007974256765e-09 -4.266567543709243e-09 5.493841308634728e-05 -1.9090824920908744e-08 -7.0614007974256765e-09 -1.9090824920908744e-08 5.500351471710019e-05" pbc="T T T"
Fe       2.12088224       1.49968915       3.67347695      -0.00000466      -0.00000411      -0.00000024
Fe       6.36264962       4.49907078      11.02042834       0.00000269       0.00000267      -0.00000544
Sn      -0.00000039       0.00000112      -0.00000136       0.00000456      -0.00000287       0.00000744
Te       2.38215614       1.68443775       7.34695424      -0.00167903      -0.00118563       0.00000237
Te       6.10137594       4.31432371       7.34695426       0.00167491       0.00118731       0.00000301
Te       5.17157072       1.68443692       5.73648582       0.00084009      -0.00118970      -0.00145184
Te       3.31196068       4.31432432       8.95742247      -0.00083769       0.00118853       0.00144980
Te       3.31196034       4.31432262       5.73648445      -0.00084284       0.00118919      -0.00145575
Te       5.17157254       1.68443654       8.95742270       0.00084191      -0.00118540       0.00145068
