9
Lattice="5.468230301404792 1.3551455564634853e-07 3.1570847729324516 1.8227435491035775 5.155496970210905 3.1570847945178473 2.4655871995886118e-08 4.387093494356578e-08 6.314169503159688" Properties=species:S:1:pos:R:3:forces:R:3 energy=-37.877479553222656 free_energy=-37.877479553222656 stress="-3.6476176319411024e-06 -1.5246063966856127e-08 -1.800971283216768e-08 -1.5246063966856127e-08 -3.6289002309786156e-06 -2.2096611207444994e-09 -1.800971283216768e-08 -2.2096611207444994e-09 -3.6519693367154105e-06" pbc="T T T"
Fe       1.82274397       1.28887314       3.15708484       0.00000073      -0.00000432       0.00000147
Fe       5.46823041       3.86662283       9.47125389      -0.00000039      -0.00000073       0.00000009
Si      -0.00000078      -0.00000005       0.00000045       0.00000711       0.00000126      -0.00000259
Se       2.07911761       1.47015781       6.31416963      -0.00082487      -0.00058357       0.00000184
Se       5.21185667       3.68533938       6.31416957       0.00082099       0.00058250       0.00000086
Se       4.42867154       1.47015820       4.95765302       0.00041111      -0.00058219      -0.00071384
Se       2.86230188       3.68533960       7.67068548      -0.00041206       0.00058220       0.00071470
Se       2.86230196       3.68533954       4.95765370      -0.00041306       0.00058518      -0.00071543
Se       4.42867222       1.47015810       7.67068580       0.00041041      -0.00058036       0.00071286
