9
Lattice="5.385682019761117 7.68646618961841e-08 3.1094248828906528 1.7952273486154564 5.07767038708946 3.109424993349825 -2.1786557355081995e-07 -1.8769915262474604e-08 6.218850143135522" Properties=species:S:1:pos:R:3:forces:R:3 energy=-41.51277160644531 free_energy=-41.51277160644531 stress="8.01899004727602e-05 -2.5752811438906065e-08 7.146381619804743e-08 -2.5752811438906065e-08 8.016287029022351e-05 4.351832672000455e-08 7.146381619804743e-08 4.351832672000455e-08 8.026844443520531e-05" pbc="T T T"
Fe       1.79522738       1.26941748       3.10942430       0.00000079       0.00000004      -0.00000392
Fe       5.38568159       3.80825336       9.32827734      -0.00000331       0.00000178       0.00001274
Sc      -0.00000023      -0.00000010      -0.00000113       0.00000790      -0.00000182       0.00001364
S        1.94781579       1.37731419       6.21885024      -0.00074347      -0.00052783      -0.00000251
S        5.23309360       3.70035636       6.21884823       0.00073971       0.00052157      -0.00001089
S        4.41177430       1.37731384       4.79628347       0.00037245      -0.00052940      -0.00064321
S        2.76913456       3.70035569       7.64141711      -0.00037333       0.00052034       0.00064035
S        2.76913660       3.70035686       4.79628305      -0.00036669       0.00053469      -0.00064642
S        4.41177302       1.37731419       7.64141755       0.00036597      -0.00051945       0.00064035
