9
Lattice="4.4137470457277255 -0.34923816889240855 1.0915226400600369 3.5329411542296745 1.854633462345951 1.008014837338113 -1.4591286104580945 -1.7404846942685956 3.915354002811016" Properties=species:S:1:pos:R:3:forces:R:3 energy=-29539222.0 free_energy=-29539222.0 stress="2925697.25 -1531854.875 1743117.75 -1531854.875 7986906.5 -107684.5625 1743117.75 -107684.5625 750066.625" pbc="T T T"
Fe      -1.69782807      -1.19496073       2.05735624 -4022828.00000000 -7874888.00000000 17317356.00000000
Fe       7.15212296       1.53570808       3.74484591 -18622834.00000000 27667712.00000000 7521051.00000000
Se       1.16060906       0.26455593      -0.08286690 -33569848.00000000 -21458714.00000000 4632705.00000000
S       -0.48551924      -3.43781183       4.14229454 -27570074.00000000 -6840496.00000000 8214379.00000000
S        8.65192062       1.33108028       3.00672013 -36839104.00000000 -13664501.00000000 -39446324.00000000
S        4.36402135      -0.37561989       1.74950357 -6079198.50000000 -33994136.00000000 -35473408.00000000
S        2.39765638      -0.73678401       5.24139726 20406036.00000000 6951470.00000000 -17986070.00000000
S        6.27536927       2.82255038       1.76338797 29631624.00000000 26167600.00000000 37424804.00000000
S        2.47900554      -2.38490529       5.27509402 76666208.00000000 23045908.00000000 17795524.00000000
