9
Lattice="6.154028133522301 -4.847401751705405e-08 3.5530298834131253 2.051342685761681 5.802073227785603 3.553029848271017 2.7998527769742137e-08 -2.3242200858171697e-08 7.106059718331359" Properties=species:S:1:pos:R:3:forces:R:3 energy=-32.83983612060547 free_energy=-32.83983612060547 stress="-0.0003348625614307821 -9.84083214916609e-09 1.0999388067034488e-08 -9.84083214916609e-09 -0.00033487402833998203 -9.088814145741253e-09 1.0999388067034488e-08 -9.088814145741253e-09 -0.0003348476020619273" pbc="T T T"
Fe       2.05134242       1.45051754       3.55302980      -0.00000107      -0.00000281       0.00000016
Fe       6.15402804       4.35155478      10.65908930       0.00000033       0.00000014      -0.00000087
Si       0.00000038       0.00000036       0.00000063      -0.00000184      -0.00000096      -0.00000182
Te       2.29248542       1.62103212       7.10605972      -0.00473135      -0.00334569       0.00000028
Te       5.91288476       4.18104104       7.10605974       0.00473180       0.00334700       0.00000034
Te       5.00778552       1.62103181       5.53838070       0.00236617      -0.00334685      -0.00409672
Te       3.19758592       4.18104114       8.67373867      -0.00236458       0.00334746       0.00409786
Te       3.19758566       4.18104146       5.53838094      -0.00236580       0.00334734      -0.00409736
Te       5.00778524       1.62103237       8.67373838       0.00236631      -0.00334562       0.00409810
