9
Lattice="5.892781784586057 -1.835280363440729e-07 3.402199191083452 1.964260506142499 5.555767589796023 3.4021990450501236 1.286956285395609e-07 -8.785202484388094e-08 6.804398159259533" Properties=species:S:1:pos:R:3:forces:R:3 energy=-32.919281005859375 free_energy=-32.919281005859375 stress="-3.8832381505926605e-06 5.3073303973860675e-08 1.700407814553273e-08 5.3073303973860675e-08 -3.853963789879344e-06 1.7358368964437432e-08 1.700407814553273e-08 1.7358368964437432e-08 -3.849283530144021e-06" pbc="T T T"
Fe       1.96425996       1.38894095       3.40219929      -0.00000525      -0.00000566      -0.00000058
Fe       5.89278168       4.16682632      10.20659827      -0.00000031       0.00000476       0.00000790
Sr      -0.00000039      -0.00000015      -0.00000042       0.00000654      -0.00000165       0.00000533
S        2.26272075       1.59998513       6.80439833       0.00022051       0.00015472       0.00000240
S        5.59432158       3.95578274       6.80439767      -0.00022562      -0.00015675      -0.00000394
S        4.76142163       1.59998465       5.36177298      -0.00010814       0.00015461       0.00019369
S        3.09562076       3.95578311       8.24702320       0.00011054      -0.00015497      -0.00019443
S        3.09562166       3.95578267       5.36177311       0.00011209      -0.00015048       0.00018918
S        4.76142200       1.59998385       8.24702314      -0.00011039       0.00015536      -0.00019996
