9
Lattice="5.482509259707858 3.5274047975987004e-08 3.165328258657808 1.827503127195465 5.168959531500721 3.165328245893488 -3.984540480337564e-08 -4.3808017937801024e-08 6.330656586329894" Properties=species:S:1:pos:R:3:forces:R:3 energy=-36.60471725463867 free_energy=-36.60471725463867 stress="8.81241157912882e-06 1.7419319320310933e-08 2.304674673325735e-08 1.7419319320310933e-08 8.826080375001766e-06 -1.816745509586326e-08 2.304674673325735e-08 -1.816745509586326e-08 8.747449101065286e-06" pbc="T T T"
Fe       1.82750243       1.29223916       3.16532779      -0.00000292      -0.00000377      -0.00000374
Fe       5.48250973       3.87671878       9.49598398       0.00000066      -0.00000406      -0.00000371
Se       0.00000007       0.00000012      -0.00000016      -0.00000545      -0.00000333      -0.00000722
S        1.75134904       1.23839171       6.33065707      -0.00251022      -0.00177038       0.00000221
S        5.55866249       3.93056904       6.33065672       0.00251071       0.00178136      -0.00000038
S        4.60683562       1.23839068       4.68204219       0.00125713      -0.00177139      -0.00216518
S        2.70317806       3.93056885       7.97927168      -0.00124974       0.00177607       0.00217305
S        2.70317726       3.93056823       4.68204112      -0.00125507       0.00176986      -0.00217180
S        4.60683462       1.23839156       7.97927191       0.00125484      -0.00177434       0.00217658
