9
Lattice="1.694387826749041 0.9803603981485977 1.3489531634885024 -1.5457634736538122 3.016558418460161 1.69243950517106 -0.6416179270511707 -0.2337812994238357 1.7208161317692727" Properties=species:S:1:pos:R:3:forces:R:3 energy=-15284313088.0 free_energy=-15284313088.0 stress="0.0 496139424.0 -290819488.0 496139424.0 0.0 -179175520.0 -290819488.0 -179175520.0 0.0" pbc="T T T"
Fe       0.47037611      -2.41693110       1.59658281 -4715700224.00000000 1733335552.00000000 -1543224320.00000000
Fe      -0.42280260       2.33270085       4.43020269 4152330496.00000000 -6047321600.00000000 4225701376.00000000
Si      -0.35622106      -0.30501993       0.26554128 1620918784.00000000 -3233341440.00000000 -8386363904.00000000
O       -0.32471306       1.03481489       2.06107023 -12386586624.00000000 -38752768.00000000 -11448579072.00000000
O       -1.46758734       4.86235534       4.81087950 16987812864.00000000 -1338393984.00000000 -9641920512.00000000
O       -2.47452467       3.71325929       3.16223008 -8248572416.00000000 15707965440.00000000 14394616832.00000000
O       -2.31235308       2.61656800       2.49963385 -1042499712.00000000 -1648237568.00000000 4218634240.00000000
O       -1.90088422       4.64771224       2.73091821 -1248089344.00000000 -7683134464.00000000 5390181376.00000000
O       -3.36556513       1.25154895       4.97504842 4880378368.00000000 2547896064.00000000 2790956032.00000000
