9
Lattice="4.181860887738093 -1.0419805858573573e-07 2.414398672761485 1.3939535609329723 3.942696397211934 2.4143986209284485 1.637610971758453e-08 -5.190257256082889e-08 4.828797317158659" Properties=species:S:1:pos:R:3:forces:R:3 energy=-57.57826614379883 free_energy=-57.57826614379883 stress="9.603515536582563e-06 7.59134977101894e-08 1.4938746062398423e-07 7.59134977101894e-08 9.544816748530138e-06 5.030175032061379e-08 1.4938746062398423e-07 5.030175032061379e-08 9.827127541939262e-06" pbc="T T T"
Fe       1.39395471       0.98567375       2.41439888       0.00000870      -0.00000079       0.00000017
Fe       4.18186086       2.95702180       7.24319605       0.00000114      -0.00000841       0.00000068
Si      -0.00000022       0.00000004       0.00000017       0.00000326       0.00000084      -0.00000633
N        1.47786642       1.04500969       4.82879724       0.00289023       0.00204819      -0.00000279
N        4.09794798       2.89768710       4.82879728      -0.00289738      -0.00204587      -0.00000069
N        3.44292753       1.04500926       3.69426826      -0.00145167       0.00205225       0.00250673
N        2.13288688       2.89768657       5.96332586       0.00144437      -0.00204349      -0.00250554
N        2.13288665       2.89768694       3.69426853       0.00144714      -0.00204784       0.00250751
N        3.44292724       1.04500973       5.96332619      -0.00144604       0.00204474      -0.00250137
