9
Lattice="4.1640521416973355 1.1752743380434238e-07 2.40411609036865 1.388017433167067 3.925906957529116 2.404116191182121 -8.813323601350559e-08 6.1151141285982e-08 4.808232333388624" Properties=species:S:1:pos:R:3:forces:R:3 energy=-53.19691467285156 free_energy=-53.19691467285156 stress="0.00013118791684973985 2.853286673598632e-07 -8.631010928183969e-08 2.853286673598632e-07 0.0001310036313952878 -2.34030522960893e-07 -8.631010928183969e-08 -2.34030522960893e-07 0.0001305940095335245" pbc="T T T"
Fe       1.38801743       0.98147787       2.40411477      -0.00000095       0.00001568      -0.00001572
Fe       4.16405224       2.94443583       7.21234797      -0.00000036       0.00004746      -0.00000248
S       -0.00000062      -0.00000690       0.00000060      -0.00000247      -0.00005347       0.00000824
N        1.35919155       0.96109297       4.80823141      -0.00148654      -0.00106895      -0.00000111
N        4.19287895       2.96481377       4.80823174       0.00150108       0.00106633       0.00000122
N        3.48445717       0.96109213       3.58121084       0.00074327      -0.00106394      -0.00127614
N        2.06761217       2.96481367       6.03525545      -0.00074697       0.00105298       0.00129187
N        2.06761346       2.96481531       3.58121040      -0.00074232       0.00106442      -0.00129128
N        3.48445599       0.96109380       6.03525553       0.00073445      -0.00106061       0.00128734
