9
Lattice="4.161456546522522 8.296334400695792e-08 2.4026179583265943 1.3871522050704637 3.923458980970559 2.402618054147618 -3.693331489903665e-08 9.124051870426687e-08 4.8052359806235625" Properties=species:S:1:pos:R:3:forces:R:3 energy=-56.47893524169922 free_energy=-56.47893524169922 stress="-0.00018078992434311658 -1.5094633454282302e-07 -5.963615024029423e-08 -1.5094633454282302e-07 -0.00018096082203555852 1.2549824646157504e-07 -5.963615024029423e-08 1.2549824646157504e-07 -0.00018102418107446283" pbc="T T T"
Fe       1.38715209       0.98086494       2.40261800       0.00000362      -0.00000466       0.00000120
Fe       4.16145677       2.94259434       7.20785417      -0.00000265       0.00000080      -0.00000004
Se      -0.00000020      -0.00000005      -0.00000007       0.00001458       0.00000201      -0.00001182
N        1.54407133       1.09182354       4.80523592      -0.00318408      -0.00225389      -0.00000099
N        4.00453752       2.83163576       4.80523602       0.00317478       0.00224936       0.00000129
N        3.38942104       1.09182338       3.73982292       0.00158262      -0.00224233      -0.00275302
N        2.15918772       2.83163582       5.87064900      -0.00159109       0.00225246       0.00276077
N        2.15918768       2.83163590       3.73982292      -0.00158513       0.00224268      -0.00275075
N        3.38942100       1.09182337       5.87064901       0.00158751      -0.00224566       0.00275290
