9
Lattice="5.322144373476073 -3.8139025326889165e-08 3.07274151686014 1.7740481118724674 5.017765695448799 3.0727414764371495 1.445079635228582e-07 5.267466483675413e-08 6.1454827834251375" Properties=species:S:1:pos:R:3:forces:R:3 energy=-45.37439727783203 free_energy=-45.37439727783203 stress="-2.577297345851548e-05 9.584768534409704e-09 4.426959776537842e-08 9.584768534409704e-09 -2.5714996809256263e-05 -5.5788529351730176e-08 4.426959776537842e-08 -5.5788529351730176e-08 -2.57096289715264e-05" pbc="T T T"
Fe       1.77404814       1.25443866       3.07274059       0.00000037      -0.00001856      -0.00000602
Fe       5.32214412       3.76332285       9.21822382      -0.00000250      -0.00001074      -0.00000536
Ti      -0.00000008       0.00000031       0.00000022      -0.00000043       0.00000221      -0.00000080
S        1.87790731       1.32788204       6.14548280       0.00013474       0.00010183       0.00000007
S        5.21828458       3.68988521       6.14548324      -0.00013679      -0.00009114       0.00000030
S        4.38319080       1.32788133       4.69905726      -0.00006990       0.00009915       0.00012183
S        2.71300231       3.68988514       7.59190870       0.00007002      -0.00009325      -0.00011662
S        2.71300248       3.68988526       4.69905755       0.00007044      -0.00008771       0.00011843
S        4.38319077       1.32788213       7.59190900      -0.00006594       0.00009811      -0.00011170
