9
Lattice="3.9855154437303524 -6.257181370152576e-06 2.3010385905169843 1.3284998201366818 3.7575741317359648 2.3010376003394817 1.9096421048544595e-06 1.375950843038236e-07 4.602073873505213" Properties=species:S:1:pos:R:3:forces:R:3 energy=-56.503883361816406 free_energy=-56.503883361816406 stress="-3.5233770177001134e-05 -1.6027344827307388e-05 1.817105726331647e-06 -1.6027344827307388e-05 -3.058807487832382e-05 -1.3467913504427997e-06 1.817105726331647e-06 -1.3467913504427997e-06 -1.9417284420342185e-05" pbc="T T T"
Fe       1.32855475       0.93933771       2.30099626      -0.00072342       0.00063913       0.00050426
Fe       3.98556242       2.81814137       6.90304002      -0.00063375       0.00042796       0.00083227
Ti      -0.00005516       0.00005982       0.00007736       0.00066917      -0.00089765      -0.00117335
O        1.45510550       1.02890996       4.60207612      -0.00017500      -0.00009429      -0.00004360
O        3.85890291       2.72864768       4.60207318       0.00033677       0.00026697       0.00010587
O        3.25794148       1.02895447       3.56124902       0.00074345      -0.00106329      -0.00106883
O        2.05603864       2.72866389       5.64295522      -0.00020552       0.00048691       0.00051522
O        2.05607970       2.72863039       3.56120237      -0.00063080       0.00090277      -0.00070417
O        3.25794111       1.02892938       5.64293160       0.00062001      -0.00066882       0.00103259
