9
Lattice="5.477153527534151 -2.1172553598715934e-07 3.1622367516772703 1.8257177259705357 5.163910163211009 3.1622366077855126 -3.309992923111279e-08 -1.9963592838543719e-07 6.324473560685393" Properties=species:S:1:pos:R:3:forces:R:3 energy=-41.61037063598633 free_energy=-41.61037063598633 stress="-0.0001401413173880428 -6.312583877843281e-08 3.070896781309784e-08 -6.312583877843281e-08 -0.00014018724323250353 -2.6263096586376378e-08 3.070896781309784e-08 -2.6263096586376378e-08 -0.00014025764539837837" pbc="T T T"
Fe       1.82571926       1.29097642       3.16223671       0.00000741      -0.00000489       0.00000042
Fe       5.47715338       3.87293297       9.48671097       0.00000005       0.00000151       0.00000293
Ti      -0.00000090       0.00000035       0.00000050       0.00000767      -0.00000381      -0.00000309
Se       2.02613330       1.43269220       6.32447303      -0.00750402      -0.00530684      -0.00000270
Se       5.27673766       3.73121706       6.32447207       0.00750110       0.00530666      -0.00000500
Se       4.46408614       1.43269264       4.91691939       0.00374803      -0.00530666      -0.00649989
Se       2.83878504       3.73121702       7.73202708      -0.00375336       0.00530589       0.00650236
Se       2.83878476       3.73121767       4.91692069      -0.00375690       0.00531259      -0.00649720
Se       4.46408623       1.43269267       7.73202726       0.00374991      -0.00530434       0.00650221
