9
Lattice="6.093008848495819 -4.370247637474517e-08 3.5178001517361723 2.0310029566879386 5.744543522769385 3.517800067918011 5.766654584848729e-08 -6.187942171473457e-08 7.035600203590987" Properties=species:S:1:pos:R:3:forces:R:3 energy=-37.556480407714844 free_energy=-37.556480407714844 stress="6.403321458492428e-05 -2.088159423152547e-09 -1.4639940815186492e-08 -2.088159423152547e-09 6.402005965355784e-05 -8.423408637270313e-09 -1.4639940815186492e-08 -8.423408637270313e-09 6.400583515642211e-05" pbc="T T T"
Fe       2.03100257       1.43613444       3.51779909      -0.00000438      -0.00000778      -0.00000558
Fe       6.09300883       4.30840848      10.55339920      -0.00000005       0.00000434      -0.00000609
V        0.00000005      -0.00000004      -0.00000049      -0.00000052      -0.00000011       0.00000388
Te       2.18157785       1.54260823       7.03560207      -0.00053190      -0.00037450       0.00000971
Te       5.94243364       4.20193578       7.03560198       0.00052847       0.00037885       0.00000908
Te       5.00221989       1.54260835       5.40710206       0.00026589      -0.00037567      -0.00046089
Te       3.12179174       4.20193605       8.66409828      -0.00026229       0.00037626       0.00045547
Te       3.12179231       4.20193501       5.40710135      -0.00026271       0.00037470      -0.00046071
Te       5.00222059       1.54260736       8.66409814       0.00026750      -0.00037597       0.00045519
