9
Lattice="6.0894137449145855 8.625922891108255e-08 3.51572521065377 2.029804711231065 5.741155624256596 3.5157251270529932 -1.4712142860197957e-08 -1.1279268975634851e-07 7.03145044678964" Properties=species:S:1:pos:R:3:forces:R:3 energy=-37.55641555786133 free_energy=-37.55641555786133 stress="-0.00030918780248612165 -7.654361411368882e-08 -1.8232039877830175e-08 -7.654361411368882e-08 -0.00030929583590477705 1.8265605916667482e-08 -1.8232039877830175e-08 1.8265605916667482e-08 -0.00030921853613108397" pbc="T T T"
Fe       2.02980499       1.43528899       3.51572511       0.00000164       0.00000010       0.00000011
Fe       6.08941236       4.30586786      10.54717625      -0.00001006       0.00000371       0.00000521
V       -0.00000069      -0.00000138       0.00000000       0.00000103       0.00000428      -0.00000010
Te       2.18086519       1.54210272       7.03145099      -0.00392754      -0.00278579       0.00000003
Te       5.93835449       4.19905245       7.03144939       0.00392690       0.00277829      -0.00000294
Te       4.99898121       1.54210503       5.40440945       0.00196803      -0.00278091      -0.00340961
Te       3.12023786       4.19905094       8.65849140      -0.00196368       0.00278118       0.00340464
Te       3.12023728       4.19905080       5.40440900      -0.00196388       0.00277991      -0.00340541
Te       4.99898113       1.54210497       8.65849141       0.00196766      -0.00278082       0.00340798
