9
Lattice="5.184297912675086 3.6415967326055684e-07 2.9931555926292814 1.7280994902556712 4.887803777667857 2.9931558650850194 1.5636255871611587e-07 4.4425377886199554e-07 5.986310914430633" Properties=species:S:1:pos:R:3:forces:R:3 energy=-45.776580810546875 free_energy=-45.776580810546875 stress="-1.567373692523688e-05 -5.6452012842100885e-08 -2.5952681781404863e-08 -5.6452012842100885e-08 -1.575262467667926e-05 5.983127948638867e-08 -2.5952681781404863e-08 5.983127948638867e-08 -1.5591245755786076e-05" pbc="T T T"
Fe       1.72810153       1.22195182       2.99315455       0.00001441       0.00000601      -0.00000338
Fe       5.18429768       3.66585547       8.97947088      -0.00000137       0.00001452       0.00002935
V        0.00000025       0.00000025       0.00000146       0.00000151      -0.00000091      -0.00001079
S        1.82182034       1.28822020       5.98631036      -0.00081772      -0.00058794      -0.00000993
S        5.09057744       3.59958386       5.98630899       0.00081062       0.00057837      -0.00001383
S        4.27338836       1.28822119       4.57089735       0.00040975      -0.00058043      -0.00071055
S        2.63900783       3.59958133       7.40172436      -0.00042176       0.00057819       0.00071335
S        2.63900969       3.59958301       4.57089704      -0.00040317       0.00057435      -0.00070661
S        4.27338714       1.28822150       7.40172467       0.00040773      -0.00058231       0.00071245
