9
Lattice="5.184781024308321 -4.032810424471321e-08 2.9934346815064883 1.728260280136337 4.888258435466195 2.9934347218252353 -4.284934672403978e-08 1.908112162115874e-08 5.986869437230216" Properties=species:S:1:pos:R:3:forces:R:3 energy=-45.77657699584961 free_energy=-45.77657699584961 stress="0.00010898489563260227 1.3448175018027086e-08 -1.8015674285720706e-08 1.3448175018027086e-08 0.00010901665518758819 3.148923966023176e-08 -1.8015674285720706e-08 3.148923966023176e-08 0.00010893814032897353" pbc="T T T"
Fe       1.72826035       1.22206439       2.99343462       0.00000151      -0.00000061      -0.00000119
Fe       5.18478064       3.66619361       8.98030396      -0.00000170      -0.00000111      -0.00000186
V       -0.00000009       0.00000008       0.00000003       0.00000274      -0.00000001       0.00000157
S        1.82188180       1.28826497       5.98686963       0.00053877       0.00038007       0.00000179
S        5.09115974       3.59999355       5.98686937      -0.00053936      -0.00038302      -0.00000020
S        4.27384017       1.28826489       4.57123065      -0.00027093       0.00038210       0.00046778
S        2.63920141       3.59999364       7.40250807       0.00027135      -0.00037917      -0.00046653
S        2.63920104       3.59999352       4.57123064       0.00026956      -0.00038207       0.00046778
S        4.27384004       1.28826495       7.40250853      -0.00027159       0.00038415      -0.00046873
