9
Lattice="5.401305225562647 -2.2787802099384037e-07 3.1184445689918037 1.8004348463739106 5.092398513837945 3.1184445931854077 -9.437651378580793e-08 -3.7103312669828663e-08 6.236889301448594" Properties=species:S:1:pos:R:3:forces:R:3 energy=-42.057701110839844 free_energy=-42.057701110839844 stress="-0.000150024687172845 5.362673860531686e-08 4.599661096449381e-09 5.362673860531686e-08 -0.00014998813276179135 4.3043893782623854e-08 4.599661096449381e-09 4.3043893782623854e-08 -0.00014995591482147574" pbc="T T T"
Fe       1.80043560       1.27309188       3.11844174       0.00000421      -0.00004702      -0.00001433
Fe       5.40130638       3.81929183       9.35533376       0.00000754      -0.00004499      -0.00000508
V       -0.00000023       0.00000071       0.00000012      -0.00000285       0.00000975       0.00000116
Se       1.99566370       1.41115128       6.23688935      -0.00359923      -0.00252458      -0.00000025
Se       5.20607540       3.68125088       6.23688852       0.00359887       0.00255036      -0.00000323
Se       4.40347218       1.41114986       4.84674152       0.00179437      -0.00253296      -0.00311080
Se       2.79826804       3.68125243       7.62703762      -0.00179541       0.00255719       0.00311831
Se       2.79826776       3.68125423       4.84674281      -0.00179687       0.00256130      -0.00310484
Se       4.40347106       1.41114987       7.62703837       0.00178936      -0.00252920       0.00311908
