9
Lattice="5.401222844470713 4.222781470407933e-08 3.118397530785454 1.8004076592336085 5.0923218036697175 3.11839752282271 2.0246280120969865e-08 4.563954305773269e-09 6.236795026503337" Properties=species:S:1:pos:R:3:forces:R:3 energy=-42.057701110839844 free_energy=-42.057701110839844 stress="-0.00016698558465577662 -1.4001662052010033e-08 1.4246042123744473e-09 -1.4001662052010033e-08 -0.0001670836645644158 -4.699523437068365e-09 1.4246042123744473e-09 -4.699523437068365e-09 -0.00016706401947885752" pbc="T T T"
Fe       1.80040779       1.27308040       3.11839753       0.00000095      -0.00000091      -0.00000141
Fe       5.40122250       3.81924143       9.35519160      -0.00000092       0.00000077      -0.00000710
V        0.00000004       0.00000033       0.00000025      -0.00000005      -0.00000316      -0.00000089
Se       1.99560344       1.41110454       6.23679503      -0.00286579      -0.00202823       0.00000013
Se       5.20602718       3.68121715       6.23679525       0.00286907       0.00202748       0.00000206
Se       4.40342131       1.41110473       4.84664064       0.00143331      -0.00202617      -0.00247958
Se       2.79820933       3.68121701       7.62694949      -0.00143442       0.00202838       0.00248590
Se       2.79820913       3.68121692       4.84664091      -0.00143519       0.00202775      -0.00248325
Se       4.40342136       1.41110488       7.62694964       0.00143299      -0.00202581       0.00248408
