9
Lattice="4.395908967856561 5.7568668633740804e-08 2.5379794781297553 1.4653030198583086 4.1445028190991495 2.5379795191853245 -1.0343027848177408e-09 4.95512638112598e-08 5.07595895805097" Properties=species:S:1:pos:R:3:forces:R:3 energy=-53.63201141357422 free_energy=-53.63201141357422 stress="-1.3680905794899445e-05 -9.034795134255091e-09 1.6955606696456016e-08 -9.034795134255091e-09 -1.3766046322416514e-05 -7.520269917904443e-08 1.6955606696456016e-08 -7.520269917904443e-08 -1.3626328836835455e-05" pbc="T T T"
Fe       1.46530238       1.03612514       2.53797919      -0.00000530      -0.00000467      -0.00000136
Fe       4.39590905       3.10837748       7.61393992      -0.00000131       0.00000268       0.00000849
V       -0.00000008      -0.00000008      -0.00000014       0.00000215       0.00000343       0.00000303
O        1.48858604       1.05258900       5.07595892       0.00038445       0.00026911       0.00000022
O        4.37262595       3.09191383       5.07595837      -0.00038671      -0.00027102      -0.00000261
O        3.65161633       1.05258933       3.82713269      -0.00018787       0.00027102       0.00032985
O        2.20959566       3.09191372       6.32478496       0.00019073      -0.00027210      -0.00033408
O        2.20959624       3.09191403       3.82713282       0.00019401      -0.00027204       0.00033057
O        3.65161622       1.05258921       6.32478492      -0.00019044       0.00027329      -0.00033528
