9
Lattice="4.3959264576266595 -6.36857847842813e-07 2.537988372805024 1.4653082488272506 4.144518841565338 2.5379883207502987 -2.3268099428707283e-07 -2.2828391803886153e-07 5.075977148625226" Properties=species:S:1:pos:R:3:forces:R:3 energy=-53.632015228271484 free_energy=-53.632015228271484 stress="-9.324689926870633e-06 -1.6688044013335457e-07 -1.0862863319971439e-07 -1.6688044013335457e-07 -9.994957508752123e-06 -1.1598100968512881e-07 -1.0862863319971439e-07 -1.1598100968512881e-07 -9.736939318827353e-06" pbc="T T T"
Fe       1.46530585       1.03613029       2.53798900      -0.00002299       0.00000236       0.00000763
Fe       4.39593013       3.10838521       7.61397011       0.00002786      -0.00002190       0.00002965
V       -0.00000031      -0.00000067       0.00000041      -0.00001031       0.00000472      -0.00001174
O        1.48858315       1.05259156       5.07597436       0.00049055       0.00034827      -0.00001141
O        4.37264688       3.09192905       5.07597321      -0.00047302      -0.00031191      -0.00001220
O        3.65163422       1.05258893       3.82714255      -0.00025028       0.00033349       0.00039834
O        2.20959889       3.09192649       6.32481280       0.00023574      -0.00035745      -0.00040048
O        2.20960160       3.09193146       3.82714314       0.00023651      -0.00032949       0.00041121
O        3.65163721       1.05258958       6.32480946      -0.00023431       0.00033200      -0.00041133
