9
Lattice="4.77835218585782 -1.409915550240603e-07 2.758783052527437 1.592783968326949 4.50507358405084 2.7587829844536302 -3.421663436933047e-08 -1.0756787056510096e-07 5.5175661643197325" Properties=species:S:1:pos:R:3:forces:R:3 energy=-48.50708770751953 free_energy=-48.50708770751953 stress="-8.162199810612947e-05 -1.4192649189226358e-07 1.0906827441203859e-07 -1.4192649189226358e-07 -8.154189708875492e-05 -2.3284956185420924e-09 1.0906827441203859e-07 -2.3284956185420924e-09 -8.150827488861978e-05" pbc="T T T"
Fe       1.59278400       1.12626785       2.75878337      -0.00000011      -0.00000321       0.00000343
Fe       4.77835292       3.37880576       8.27634824       0.00000281       0.00000669      -0.00000521
Y        0.00000000      -0.00000022       0.00000123      -0.00000169       0.00000330      -0.00002574
O        1.75898176       1.24378766       5.51756634       0.00407398       0.00287867      -0.00000093
O        4.61215409       3.26128612       5.51756673      -0.00407520      -0.00287749       0.00000376
O        3.89886105       1.24378745       4.28210640      -0.00203893       0.00287828       0.00353047
O        2.47227506       3.26128510       6.75302540       0.00203091      -0.00287127      -0.00351903
O        2.47227457       3.26128529       4.28210612       0.00203574      -0.00288290       0.00353017
O        3.89886096       1.24378829       6.75302505      -0.00202774       0.00286812      -0.00351653
