9
Lattice="6.583329003840221 1.262662360683497e-08 3.8008865952282758 2.194443058838124 6.206821970339301 3.800886516153994 7.090152882104438e-08 -4.671087126388738e-08 7.601773067651498" Properties=species:S:1:pos:R:3:forces:R:3 energy=-35.908226013183594 free_energy=-35.908226013183594 stress="-6.520257738884538e-05 -1.0473801381749581e-08 -1.8020505976323875e-08 -1.0473801381749581e-08 -6.52200251352042e-05 3.6676197634477603e-09 -1.8020505976323875e-08 3.6676197634477603e-09 -6.5245883888565e-05" pbc="T T T"
Fe       2.19444324       1.55170552       3.80088662       0.00000065      -0.00000046       0.00000025
Fe       6.58332939       4.65511639      11.40265910       0.00000055       0.00000034      -0.00000075
Y       -0.00000008      -0.00000028       0.00000016       0.00000057      -0.00000017       0.00000296
Te       2.46994911       1.74651768       7.60177300       0.00168016       0.00118763      -0.00000229
Te       6.30782293       4.46030413       7.60177348      -0.00167967      -0.00118718      -0.00000082
Te       5.34835440       1.74651750       5.93992475      -0.00084133       0.00118833       0.00145483
Te       3.42941795       4.46030442       9.26362136       0.00083951      -0.00118718      -0.00145406
Te       3.42941726       4.46030446       5.93992499       0.00083929      -0.00118819       0.00145477
Te       5.34835433       1.74651794       9.26362130      -0.00083975       0.00118691      -0.00145483
