9
Lattice="5.975058912387554 9.984370890625906e-08 3.449702181978674 1.99168637659962 5.6333403694898845 3.449702219500269 -2.405233436191841e-07 -1.2412125208934037e-07 6.899404780555969" Properties=species:S:1:pos:R:3:forces:R:3 energy=-37.71820831298828 free_energy=-37.71820831298828 stress="-0.00022232918126974255 -9.302156911417114e-08 9.863525463060796e-08 -9.302156911417114e-08 -0.00022257788805291057 1.384701704409963e-07 9.863525463060796e-08 1.384701704409963e-07 -0.00022256217198446393" pbc="T T T"
Fe       1.99168606       1.40833572       3.44970264       0.00000008       0.00000361       0.00000550
Fe       5.97505744       4.22500632      10.34910926      -0.00000797       0.00000617       0.00001734
Y        0.00000060      -0.00000102      -0.00000163       0.00000345      -0.00000531      -0.00001602
Se       2.33087245       1.64817336       6.89940354      -0.00814447      -0.00577831      -0.00000721
Se       5.63587462       3.98516555       6.89940189       0.00815993       0.00576931      -0.00002111
Se       4.80962139       1.64817865       5.46829791       0.00406312      -0.00574349      -0.00705316
Se       3.15711968       3.98516766       8.33051612      -0.00409487       0.00578831       0.00708656
Se       3.15712421       3.98516347       5.46829451      -0.00405880       0.00575204      -0.00707408
Se       4.80962377       1.64817166       8.33051257       0.00407950      -0.00579235       0.00706222
