9
Lattice="2.4726140310015072 -0.5786005831754136 2.6935306715754663 -0.3158385738044578 2.7198692182266173 1.7251360301222585 -0.8507854786495134 -0.6580236417959554 3.1396466390683515" Properties=species:S:1:pos:R:3:forces:R:3 energy=-60636748.0 free_energy=-60636748.0 stress="14085712.0 -181018.859375 -930581.375 -181018.859375 15837869.0 3832338.0 -930581.375 3832338.0 16568218.0" pbc="T T T"
Fe       2.30224323      -2.14694906       5.92488682 26286584.00000000 41521284.00000000 4256428.00000000
Fe       3.79075886      -0.91144552       7.67815153 13887412.00000000 -6109324.00000000 -4638024.00000000
Zn       3.33969635      -1.92359808       2.79760877 -35138832.00000000 -13520088.00000000 -30242386.00000000
O        1.22887883      -1.26322697       6.43074563 -51070392.00000000 -26602560.00000000 -32162568.00000000
O        5.29241896      -0.58701470       6.51733085 85206176.00000000 176215248.00000000 48459640.00000000
O        1.95845185      -1.80586954       6.67936516 616365440.00000000 54951512.00000000 -56729984.00000000
O        2.03212846      -0.50639201       7.02290276 -76461464.00000000 -96963936.00000000 -17600848.00000000
O        4.61114787       1.82427503       4.19949963 22739060.00000000 27780116.00000000 22250014.00000000
O        1.95750261      -1.80010246       6.67892023 -601814016.00000000 -157272208.00000000 66408096.00000000
