9
Lattice="5.323332642769493 -8.210927767498642e-08 3.0734278072720915 1.7744441827113173 5.018886358067321 3.0734277278260675 6.355735590542416e-08 -5.235926617159581e-08 6.14685550445967" Properties=species:S:1:pos:R:3:forces:R:3 energy=-33.89990234375 free_energy=-33.89990234375 stress="0.00012110626266803592 -2.1751827006255553e-08 1.024461557252998e-10 -2.1751827006255553e-08 0.00012102331675123423 -5.2274554462883316e-08 1.024461557252998e-10 -5.2274554462883316e-08 0.00012103831249987707" pbc="T T T"
Fe       1.77444369       1.25472024       3.07342700      -0.00000333      -0.00001036      -0.00000771
Fe       5.32333625       3.76416274       9.22028535       0.00002823      -0.00001707       0.00001784
Zn      -0.00000075       0.00000029       0.00000008       0.00001342      -0.00000493      -0.00000264
S        1.87216164       1.32381994       6.14685571      -0.00238034      -0.00166795       0.00000229
S        5.22561471       3.69506813       6.14685449       0.00236322       0.00167228      -0.00001058
S        4.38725224       1.32381889       4.69476758       0.00118888      -0.00166613      -0.00204566
S        2.71052383       3.69506780       7.59894212      -0.00119966       0.00168034       0.00204857
S        2.71052448       3.69506848       4.69476879      -0.00119296       0.00168820      -0.00204888
S        4.38725142       1.32381832       7.59894301       0.00118265      -0.00167449       0.00204678
