9
Lattice="6.154982015741425 -3.688444572652484e-06 3.553586659248735 2.0516568486194844 5.8029820422321645 3.553587258183318 9.624869029596011e-07 1.414122492204909e-06 7.1071716514215115" Properties=species:S:1:pos:R:3:forces:R:3 energy=-29.07596778869629 free_energy=-29.07596778869629 stress="-8.826825069263577e-05 2.794810427531047e-07 1.510874625409997e-07 2.794810427531047e-07 -8.999446436064318e-05 2.664203577751323e-07 1.510874625409997e-07 2.664203577751323e-07 -8.732850255910307e-05" pbc="T T T"
Fe       2.05163273       1.45071872       3.55358984      -0.00015303      -0.00014475       0.00000488
Fe       6.15499253       4.35227934      10.66079054       0.00008633       0.00026223       0.00016149
Zn      -0.00000106       0.00000034       0.00000159       0.00000879       0.00000011      -0.00002054
Te       2.25669804       1.59569450       7.10718523       0.00145096       0.00089701       0.00002731
Te       5.94995996       4.20728304       7.10716944      -0.00144958      -0.00095165      -0.00003662
Te       5.02666041       1.59570475       5.50794995      -0.00062604       0.00097244       0.00125727
Te       3.17998958       4.20727872       8.70638149       0.00066035      -0.00089492      -0.00131255
Te       3.17998781       4.20728548       5.50794171       0.00070298      -0.00094846       0.00126117
Te       5.02663792       1.59567446       8.70637125      -0.00068073       0.00080794      -0.00134237
