9
Lattice="5.507535188415007 -1.2095457824928928e-07 3.1797770210867444 1.8358450349738673 5.192553320713234 3.1797768717736363 6.733923825142412e-07 2.9328992046524394e-07 6.359552875823627" Properties=species:S:1:pos:R:3:forces:R:3 energy=-32.56251525878906 free_energy=-32.56251525878906 stress="-0.00016812265675980598 6.031527988170637e-08 -1.790236296983494e-07 6.031527988170637e-08 -0.00016791610687505454 -1.2081862621471373e-07 -1.790236296983494e-07 -1.2081862621471373e-07 -0.00016792284441180527" pbc="T T T"
Fe       1.83584110       1.29814064       3.17978027      -0.00002535       0.00001127       0.00001707
Fe       5.50753452       3.89441323       9.53932577      -0.00000892      -0.00000980      -0.00002396
Zn      -0.00000039      -0.00000043      -0.00000074       0.00000507       0.00000166       0.00000630
Se       2.09840052       1.48379266       6.35954991       0.00853166       0.00602704      -0.00001564
Se       5.24498121       3.70875866       6.35955630      -0.00851271      -0.00603467       0.00000849
Se       4.45833626       1.48379273       4.99704560      -0.00426021       0.00602326       0.00738508
Se       2.88504637       3.70876027       7.72206210       0.00426127      -0.00602999      -0.00737908
Se       2.88504482       3.70876018       4.99704544       0.00425714      -0.00602746       0.00738260
Se       4.45833915       1.48379595       7.72206237      -0.00424804       0.00603871      -0.00738087
