9
Lattice="5.408821983685347 2.4392694895058663e-05 3.1228224724764124 1.8029640067205097 5.09952357232449 3.122821870019432 -1.3455596647274657e-06 -1.6893212137518377e-06 6.245647275549522" Properties=species:S:1:pos:R:3:forces:R:3 energy=-31.962312698364258 free_energy=-31.962312698364258 stress="-0.0001005805388558656 -1.6898478861548938e-05 1.7158588434540434e-06 -1.6898478861548938e-05 -0.00012410443741828203 9.995395657824702e-07 1.7158588434540434e-06 9.995395657824702e-07 -0.00014901516260579228" pbc="T T T"
Ge       1.80281425       1.27486977       3.12286154      -0.00118781      -0.00021628       0.00027367
Ge       5.40894146       3.82462426       9.36850605       0.00092702      -0.00027153       0.00018336
Be      -0.00001700      -0.00003456       0.00000681      -0.00020454      -0.00038227       0.00014787
Se       1.60260147       1.13338024       6.24562402       0.00054687       0.00188163      -0.00025610
Se       5.60909555       3.96614987       6.24565116      -0.00149095      -0.00203487      -0.00005031
Se       4.60761159       1.13330388       4.51089593       0.00048363       0.00115696       0.00209743
Se       2.60420566       3.96633368       7.98031608      -0.00010458      -0.00023398      -0.00272411
Se       2.60422941       3.96628399       4.51094126       0.00009903      -0.00071833       0.00256217
Se       4.60765698       1.13327423       7.98036448       0.00093117       0.00081885      -0.00223351
