9
Lattice="6.039749748674578 -1.2639775699257125e-08 3.4870511548459433 2.0132498827606558 5.69433040630916 3.48705119216698 -6.486397183107415e-08 -1.570226325024761e-10 6.974102422039531" Properties=species:S:1:pos:R:3:forces:R:3 energy=-29.249744415283203 free_energy=-29.249744415283203 stress="-0.00024177411978598684 -2.414638977654704e-08 3.787898350537944e-08 -2.414638977654704e-08 -0.0002416841743979603 1.3959780886807494e-08 3.787898350537944e-08 1.3959780886807494e-08 -0.00024180191394407302" pbc="T T T"
Ge       2.01324956       1.42358165       3.48705151      -0.00000214      -0.00000696       0.00000239
Ge       6.03974972       4.27074926      10.46115066       0.00000089       0.00000909      -0.00001358
Be       0.00000042       0.00000014       0.00000019      -0.00000459       0.00000065      -0.00000456
Te       1.92272773       1.35957250       6.97410215       0.00388572       0.00274107      -0.00000210
Te       6.13027190       4.33475738       6.97410386      -0.00388145      -0.00274108       0.00000814
Te       5.07838555       1.35957198       5.15218285      -0.00194347       0.00273624       0.00336570
Te       2.97461448       4.33475764       8.79602272       0.00194435      -0.00273876      -0.00336194
Te       2.97461270       4.33475767       5.15218250       0.00193822      -0.00274208       0.00336683
Te       5.07838613       1.35957344       8.79602261      -0.00193746       0.00274192      -0.00336084
