9
Lattice="5.399186290065421 1.9985198512498644e-07 3.117221600286221 1.7997289376918435 5.090401487349582 3.11722162468318 4.379370815468287e-08 6.084683603160104e-08 6.234443124719495" Properties=species:S:1:pos:R:3:forces:R:3 energy=-32.5038948059082 free_energy=-32.5038948059082 stress="-4.848516618949361e-05 -1.9256292116409668e-09 -9.102555154072434e-09 -1.9256292116409668e-09 -4.849996548728086e-05 6.747427949704843e-09 -9.102555154072434e-09 6.747427949704843e-09 -4.850041659665294e-05" pbc="T T T"
Ge       1.79972844       1.27259842       3.11722033      -0.00000275      -0.00001261      -0.00000889
Ge       5.39918748       3.81780277       9.35166430       0.00000749       0.00000760      -0.00000295
Be      -0.00000007      -0.00000005      -0.00000028       0.00000010      -0.00000060      -0.00000108
S        1.85347890       1.31060746       6.23444410      -0.00161506      -0.00114258       0.00000449
S        5.34543554       3.77979447       6.23444331       0.00161326       0.00114708       0.00000089
S        4.47244653       1.31060741       4.72238235       0.00080730      -0.00114689      -0.00139367
S        2.72646887       3.77979457       7.74650438      -0.00080932       0.00114594       0.00139722
S        2.72646853       3.77979445       4.72238240      -0.00080866       0.00114845      -0.00139304
S        4.47244688       1.31060751       7.74650452       0.00080773      -0.00114633       0.00139719
