9
Lattice="4.455404168172846 1.2239417253097477e-07 2.5723288319679853 1.485134845174773 4.200596479213085 2.5723288197463394 -9.849534529911105e-09 -2.1933085086370807e-08 5.144657680995838" Properties=species:S:1:pos:R:3:forces:R:3 energy=-44.03309631347656 free_energy=-44.03309631347656 stress="-8.04102819529362e-06 1.2463552856445403e-08 -2.191772985327134e-08 1.2463552856445403e-08 -8.032756340980995e-06 5.281693660208475e-08 -2.191772985327134e-08 5.281693660208475e-08 -8.08206186775351e-06" pbc="T T T"
Ge       1.48513356       1.05015244       2.57232675      -0.00000783       0.00003737      -0.00002151
Ge       4.45540465       3.15045401       7.71698380       0.00000023       0.00006037      -0.00002501
Be       0.00000011       0.00000010      -0.00000014      -0.00000187       0.00000228      -0.00000052
O        1.36144933       0.96268566       5.14465787       0.00007617       0.00001794       0.00000682
O        4.57909136       3.23790724       5.14465796      -0.00005794      -0.00005472       0.00000732
O        3.77468107       0.96268726       3.75137820      -0.00002548       0.00002635       0.00006777
O        2.16585864       3.23790561       6.53794010       0.00002962      -0.00006348      -0.00003999
O        2.16585670       3.23790653       3.75137804       0.00001699      -0.00005364       0.00006038
O        3.77468051       0.96268727       6.53793806      -0.00003004       0.00002694      -0.00005567
