9
Lattice="4.460159010540585 -6.240109052996551e-08 2.5750740142501316 1.4867196131493223 4.20507830251113 2.5750740111299444 -7.529150104625505e-08 -5.7060572312937943e-08 5.150148158909044" Properties=species:S:1:pos:R:3:forces:R:3 energy=-41.868865966796875 free_energy=-41.868865966796875 stress="-0.0002100344281643629 -6.186607492963958e-08 1.8531089551743207e-08 -6.186607492963958e-08 -0.00021001353161409497 3.044342378188958e-08 1.8531089551743207e-08 3.044342378188958e-08 -0.0002100149868056178" pbc="T T T"
Ge       1.48671950       1.05126898       2.57507253      -0.00000090      -0.00000650      -0.00001213
Ge       4.46015850       3.15380784       7.72521887      -0.00000206      -0.00000470      -0.00002396
Cu       0.00000018       0.00000018       0.00000036      -0.00000083       0.00000015      -0.00000375
O        1.49916969       1.06007100       5.15014853       0.00201720       0.00141522       0.00000555
O        4.44770969       3.14500669       5.15014901      -0.00201648      -0.00141621       0.00000911
O        3.71057465       1.06007360       3.87339162      -0.00100249       0.00142923       0.00174022
O        2.23630402       3.14500537       6.42690529       0.00100839      -0.00142631      -0.00172961
O        2.23630213       3.14500645       3.87339397       0.00099498      -0.00141668       0.00175202
O        3.71057568       1.06007273       6.42690457      -0.00099808       0.00142583      -0.00173765
