9
Lattice="4.335649611217135 -3.569073792601967e-09 2.5031884538912794 1.4452165230993537 4.087689818447134 2.503188472265006 -1.2961488909446927e-07 -6.91484470570444e-08 5.006377132282184" Properties=species:S:1:pos:R:3:forces:R:3 energy=-48.19520950317383 free_energy=-48.19520950317383 stress="0.0003977891174145043 1.2991715436783124e-07 1.1174925873547181e-07 1.2991715436783124e-07 0.0003971742116846144 1.3569162149451586e-07 1.1174925873547181e-07 1.3569162149451586e-07 0.0003976913867518306" pbc="T T T"
Ge       1.44521614       1.02192210       2.50318853      -0.00000209      -0.00000168      -0.00000057
Ge       4.33564917       3.06576772       7.50956609      -0.00000162       0.00000349       0.00000620
Co       0.00000021       0.00000014      -0.00000000      -0.00000056      -0.00000278       0.00000030
N        1.56341731       1.10550246       5.00637882      -0.00132513      -0.00094041       0.00001804
N        4.21744932       2.98218729       5.00637744       0.00132774       0.00094014       0.00000600
N        3.55394025       1.10550232       3.85714647       0.00065240      -0.00093813      -0.00115533
N        2.22692373       2.98218762       6.15560631      -0.00067555       0.00094229       0.00114046
N        2.22692639       2.98218790       3.85714621      -0.00064516       0.00094278      -0.00115357
N        3.55394153       1.10550146       6.15560630       0.00066996      -0.00094555       0.00113791
