9
Lattice="6.01721196877112 -1.760732246458599e-08 3.4740389309130864 2.0057373600263118 5.673081701657516 3.4740388378968854 8.497704438928233e-08 -5.3833290831563455e-08 6.948077714641677" Properties=species:S:1:pos:R:3:forces:R:3 energy=-29.634735107421875 free_energy=-29.634735107421875 stress="-7.15082060196437e-05 -2.0039506054558842e-08 -7.5609607463889e-09 -2.0039506054558842e-08 -7.153094338718802e-05 -1.3002124710226326e-08 -7.5609607463889e-09 -1.3002124710226326e-08 -7.154334161896259e-05" pbc="T T T"
Ge       2.00573874       1.41826947       3.47403874       0.00000617      -0.00000300       0.00000006
Ge       6.01721027       4.25481106      10.42211509      -0.00000779      -0.00000071      -0.00000628
Cu       0.00000038      -0.00000035      -0.00000031      -0.00000172       0.00000209       0.00000286
Te       2.13895904       1.51247150       6.94807761      -0.00086184      -0.00061224      -0.00000028
Te       5.88399017       4.16061019       6.94807860       0.00086234       0.00061370       0.00000285
Te       4.94773184       1.51247214       5.32643140       0.00042976      -0.00061180      -0.00075022
Te       3.07521776       4.16060969       8.56972471      -0.00042709       0.00061025       0.00074899
Te       3.07521718       4.16060986       5.32643137      -0.00043047       0.00061082      -0.00074884
Te       4.94773229       1.51247296       8.56972473       0.00043069      -0.00060911       0.00075090
