9
Lattice="4.2573223104342315 7.782023413892585e-08 2.457966185150649 1.4191075092732865 4.013841788820354 2.457966186722889 -2.609572967638474e-09 8.036088517797554e-11 4.91593237482119" Properties=species:S:1:pos:R:3:forces:R:3 energy=-53.016578674316406 free_energy=-53.016578674316406 stress="-5.673247869708575e-05 -1.3957347277937515e-07 -5.33105826150404e-08 -1.3957347277937515e-07 -5.6447795941494405e-05 1.3313526281422128e-08 -5.33105826150404e-08 1.3313526281422128e-08 -5.663183401338756e-05" pbc="T T T"
Ge       1.41910756       1.00346070       2.45796613       0.00000092       0.00000018      -0.00000089
Ge       4.25732230       3.01038108       7.37389853      -0.00000059      -0.00000217      -0.00000131
Cr       0.00000002      -0.00000008      -0.00000001       0.00000067       0.00000222       0.00000051
N        1.62401585       1.14835300       4.91593271      -0.00593670      -0.00419442       0.00000370
N        4.05241396       2.86548935       4.91593272       0.00593718       0.00419574       0.00000373
N        3.44531418       1.14835321       3.86440507       0.00296766      -0.00419231      -0.00514489
N        2.23111558       2.86548895       5.96745941      -0.00296704       0.00419503       0.00514100
N        2.23111566       2.86548855       3.86440495      -0.00296738       0.00419052      -0.00514453
N        3.44531416       1.14835270       5.96745950       0.00296487      -0.00419500       0.00514214
