9
Lattice="5.409434254165217 -2.9675236534966602e-08 3.1231384142055187 1.8031447295723946 5.100063688218562 3.1231384035324576 -3.2558799492225595e-08 -3.6094278109075816e-08 6.246276884804506" Properties=species:S:1:pos:R:3:forces:R:3 energy=-33.056671142578125 free_energy=-33.056671142578125 stress="7.20854222890921e-05 2.4572166523739725e-10 5.7497477889967286e-09 2.4572166523739725e-10 7.210221519926563e-05 1.042810371387759e-08 5.7497477889967286e-09 1.042810371387759e-08 7.21098404028453e-05" pbc="T T T"
Ge       1.80314632       1.27501583       3.12313914       0.00001261      -0.00000179       0.00000449
Ge       5.40943472       3.82504740       9.36941267       0.00000368      -0.00000094      -0.00002003
Cu      -0.00000021      -0.00000015      -0.00000026       0.00000074       0.00000221       0.00000591
S        1.85778447       1.31365219       6.24627664       0.00011659       0.00008279      -0.00000280
S        5.35479393       3.78641190       6.24627843      -0.00012285      -0.00008217       0.00001163
S        4.48054087       1.31365179       4.73202707      -0.00006756       0.00007918       0.00010055
S        2.73203732       3.78641196       7.76052668       0.00006464      -0.00008351      -0.00010103
S        2.73203637       3.78641098       4.73202730       0.00005290      -0.00008568       0.00010252
S        4.48054197       1.31365252       7.76052712      -0.00006065       0.00008982      -0.00010073
