9
Lattice="4.1987342986794935 -2.4472932831047978e-08 2.4241403288374364 1.399578084412244 3.958604658426902 2.42414031510965 -1.6244497513919863e-08 -2.829961920035346e-08 4.848280685811156" Properties=species:S:1:pos:R:3:forces:R:3 energy=-48.66998291015625 free_energy=-48.66998291015625 stress="0.00027596353902481496 1.4428698236201853e-08 6.98175668389922e-08 1.4428698236201853e-08 0.00027582250186242163 1.083124487877285e-07 6.98175668389922e-08 1.083124487877285e-07 0.0002762886870186776" pbc="T T T"
Ge       1.39957816       0.98965005       2.42413958       0.00000205      -0.00001361      -0.00000746
Ge       4.19873444       2.96895222       7.27242022       0.00000354      -0.00001070      -0.00000706
C        0.00000012       0.00000004      -0.00000012      -0.00000424       0.00000062      -0.00000053
O        1.23928592       0.87630800       4.84828123      -0.00427341      -0.00301516      -0.00000243
O        4.35902615       3.08229733       4.84828095       0.00427186       0.00302613      -0.00000072
O        3.57909130       0.87630809       3.49739386       0.00213230      -0.00301450      -0.00370026
O        2.01922114       3.08229741       6.19916748      -0.00214034       0.00303119       0.00370908
O        2.01922118       3.08229741       3.49739377      -0.00213403       0.00301874      -0.00370264
O        3.57909093       0.87630816       6.19916778       0.00214112      -0.00302207       0.00371265
