9
Lattice="5.208603492312877 -3.14809457046855e-08 3.0071890777026304 1.7362010706216293 4.91071905315444 3.007189188211129 -3.188560244400763e-08 1.1279821979837895e-07 6.014378210632706" Properties=species:S:1:pos:R:3:forces:R:3 energy=-35.382606506347656 free_energy=-35.382606506347656 stress="-7.199616084108129e-05 -5.380574208402322e-09 3.002659099138327e-08 -5.380574208402322e-09 -7.186872971942648e-05 1.815871897292709e-08 3.002659099138327e-08 1.815871897292709e-08 -7.187152368715033e-05" pbc="T T T"
Ge       1.73620378       1.22768005       3.00718852       0.00002324       0.00000017      -0.00000154
Ge       5.20860301       3.68304035       9.02156417      -0.00000382       0.00000935      -0.00002198
C       -0.00000038      -0.00000007       0.00000076      -0.00000354      -0.00000295       0.00000047
S        1.57590961       1.11433490       6.01437716       0.00400043       0.00281233      -0.00000727
S        5.36889528       3.79638429       6.01438000      -0.00399685      -0.00281054       0.00001596
S        4.42064627       1.11433498       4.37196629      -0.00201565       0.00280905       0.00345129
S        2.52415700       3.79638353       7.65679191       0.00200954      -0.00282061      -0.00344431
S        2.52415551       3.79638269       4.37196606       0.00199336      -0.00282300       0.00345069
S        4.42064786       1.11433643       7.65679126      -0.00200593       0.00282609      -0.00344300
