9
Lattice="5.4675144944472835 4.689651222350858e-07 3.156671255703347 1.8225052920926643 5.1548218280000615 3.1566712237198593 7.306835920563331e-08 1.249550881090896e-08 6.313342384848602" Properties=species:S:1:pos:R:3:forces:R:3 energy=-32.652244567871094 free_energy=-32.652244567871094 stress="0.00032360496697947383 -1.1993574133839502e-08 3.176907403812379e-09 -1.1993574133839502e-08 0.0003236215852666646 1.464027210573704e-08 3.176907403812379e-09 1.464027210573704e-08 0.00032353305141441524" pbc="T T T"
Ge       1.82250609       1.28870698       3.15667179       0.00000268       0.00000500       0.00000143
Ge       5.46751291       3.86611525       9.47001345      -0.00000567      -0.00000552       0.00000160
Cu      -0.00000029      -0.00000047       0.00000102       0.00000161       0.00000080      -0.00000281
Se       2.07444228       1.46685302       6.31334174      -0.00603981      -0.00426981      -0.00000047
Se       5.21557746       3.68796837       6.31334130       0.00604363       0.00427306       0.00000175
Se       4.43029350       1.46685414       4.95319030       0.00301900      -0.00427308      -0.00523406
Se       2.85972701       3.68796884       7.67349449      -0.00301922       0.00426939       0.00523162
Se       2.85972735       3.68796956       4.95319056      -0.00302090       0.00427066      -0.00523217
Se       4.43029318       1.46685360       7.67349496       0.00301868      -0.00427053       0.00523318
