9
Lattice="4.1799160659527335 -1.6074030472858823e-09 2.4132755426895875 1.3933053434504687 3.9408625117215776 2.4132755606191423 -1.4530584023934164e-08 1.1684455992772654e-08 4.826551110546898" Properties=species:S:1:pos:R:3:forces:R:3 energy=-49.75383758544922 free_energy=-49.75383758544922 stress="0.0001844388898462057 9.318210203446142e-08 -1.25169918874235e-07 9.318210203446142e-08 0.0001848058745963499 8.107000581958346e-08 -1.25169918874235e-07 8.107000581958346e-08 0.0001845771912485361" pbc="T T T"
Ge       1.39330551       0.98521557       2.41327552       0.00000044       0.00000003      -0.00000159
Ge       4.17991611       2.95564687       7.23982667       0.00000084      -0.00000134      -0.00000128
C        0.00000017       0.00000008      -0.00000025      -0.00000429      -0.00000039       0.00000909
N        1.29800529       0.91782815       4.82655118      -0.00211263      -0.00149512      -0.00000352
N        4.27521606       3.02303404       4.82655074       0.00211525       0.00149643      -0.00000386
N        3.53091348       0.91782831       3.53738110       0.00105840      -0.00149536      -0.00183117
N        2.04230817       3.02303423       6.11572136      -0.00105542       0.00149673       0.00182939
N        2.04230760       3.02303430       3.53738111      -0.00105757       0.00149590      -0.00182974
N        3.53091300       0.91782863       6.11572120       0.00105560      -0.00149626       0.00183320
