9
Lattice="4.184944229556192 -4.014233753977232e-06 2.416169996835035 1.3949768717711148 3.945583467654632 2.416171301803933 3.2757526805409706e-06 3.9145609960725206e-06 4.832334319905025" Properties=species:S:1:pos:R:3:forces:R:3 energy=-50.98753356933594 free_energy=-50.98753356933594 stress="0.0002840234665200114 3.210604336345568e-05 -1.579862328071613e-05 3.210604336345568e-05 0.00039124154136516154 -1.2656731087190565e-05 -1.579862328071613e-05 -1.2656731087190565e-05 0.0003723802510648966" pbc="T T T"
Ge       1.39498439       0.98640982       2.41616963       0.00003719       0.00001312      -0.00000810
Ge       4.18494813       2.95918649       7.24850532       0.00000649       0.00004704       0.00000500
Fe      -0.00000210      -0.00000267       0.00000015      -0.00000946      -0.00000932      -0.00000244
N        1.61400679       1.14134657       4.83231745       0.00402468       0.00455500      -0.00046514
N        3.96589918       2.80424345       4.83235183      -0.00424682      -0.00437021       0.00035226
N        3.37795719       1.14128980       3.81398974      -0.00170895       0.00338909       0.00464799
N        2.20197027       2.80427702       5.85069998       0.00175042      -0.00361112      -0.00445415
N        2.20194625       2.80426159       3.81398200       0.00130671      -0.00387824       0.00452802
N        3.37798733       1.14131960       5.85068805      -0.00116011       0.00386459      -0.00460379
