9
Lattice="4.514278782872641 3.796628431047488e-08 2.6063199193665714 1.5047596654676292 4.256102743387971 2.60631985808353 -4.608230717526794e-08 -1.0764121247962834e-07 5.212639918550019" Properties=species:S:1:pos:R:3:forces:R:3 energy=-40.382232666015625 free_energy=-40.382232666015625 stress="0.0006979158497415483 3.911766910391634e-08 -2.0031627467886892e-09 3.911766910391634e-08 0.0006978561286814511 -3.430647055324698e-08 -2.0031627467886892e-09 -3.430647055324698e-08 0.0006978274323046207" pbc="T T T"
Ge       1.50475964       1.06402528       2.60631974       0.00000303      -0.00000841      -0.00000381
Ge       4.51427984       3.19207639       7.81895944       0.00001044      -0.00000681      -0.00000492
Mg       0.00000016      -0.00000014       0.00000008      -0.00000213       0.00000196      -0.00000047
O        1.60651166       1.13597498       5.21264076      -0.00058764      -0.00041425       0.00000655
O        4.41252636       3.12012804       5.21264062       0.00058392       0.00041938       0.00000714
O        3.71102272       1.13597559       3.99759916       0.00029121      -0.00041014      -0.00050905
O        2.30801421       3.12012762       6.42767920      -0.00030047       0.00041473       0.00050148
O        2.30801524       3.12012734       3.99759973      -0.00029539       0.00041369      -0.00050437
O        3.71102367       1.13597554       6.42767989       0.00029728      -0.00041026       0.00050718
