9
Lattice="4.325469248500351 5.277478488718165e-08 2.497310790882119 1.4418230993274872 4.078091531544125 2.497310848494476 -2.032106187921978e-08 5.619127346533711e-08 4.99462161696135" Properties=species:S:1:pos:R:3:forces:R:3 energy=-52.33926773071289 free_energy=-52.33926773071289 stress="0.00024517669226042926 -1.3832530498802953e-07 2.5218914956326444e-08 -1.3832530498802953e-07 0.00024516365374438465 -4.590604518739383e-08 2.5218914956326444e-08 -4.590604518739383e-08 0.0002453309716656804" pbc="T T T"
Ge       1.44182272       1.01952267       2.49731139      -0.00000399      -0.00000200       0.00000387
Ge       4.32546897       3.05856826       7.49193332      -0.00000176      -0.00000397       0.00000670
Mn       0.00000008       0.00000013      -0.00000009       0.00000196       0.00000024      -0.00000292
N        1.52167237       1.07598470       4.99462121       0.00018254       0.00012597      -0.00000167
N        4.24562060       3.00210656       4.99462080      -0.00017832      -0.00013234      -0.00000636
N        3.56463310       1.07598503       3.81511733      -0.00008813       0.00012814       0.00015289
N        2.20265936       3.00210704       6.17412534       0.00008976      -0.00012276      -0.00015622
N        2.20265931       3.00210694       3.81511790       0.00008830      -0.00012268       0.00015484
N        3.56463287       1.07598519       6.17412588      -0.00009027       0.00012916      -0.00015111
