9
Lattice="5.580273505746891 -6.109974429271419e-08 3.221772326014971 1.8600911143210304 5.261132231042504 3.221772320222845 4.901468191133524e-08 2.756470228594407e-08 6.4435445671340545" Properties=species:S:1:pos:R:3:forces:R:3 energy=-31.052825927734375 free_energy=-31.052825927734375 stress="4.8594403779134154e-05 -2.980473201574796e-09 -3.2904477365036655e-08 -2.980473201574796e-09 4.848523167311214e-05 -2.430297918465385e-08 -3.2904477365036655e-08 -2.430297918465385e-08 4.8541765863774344e-05" pbc="T T T"
Ge       1.86009142       1.31528339       3.22177085       0.00000142       0.00000130      -0.00000940
Ge       5.58027286       3.94584859       9.66531518      -0.00000539      -0.00000383      -0.00000928
Mg      -0.00000009      -0.00000004       0.00000013      -0.00000015       0.00000034       0.00000174
S        2.01027587       1.42147917       6.44354508      -0.00150222      -0.00106240       0.00000216
S        5.43008913       3.83965285       6.44354542       0.00150347       0.00106269       0.00000619
S        4.57513586       1.42147933       4.96272236       0.00075213      -0.00106306      -0.00130018
S        2.86522912       3.83965251       7.92436769      -0.00074901       0.00106145       0.00130446
S        2.86522896       3.83965303       4.96272235      -0.00075136       0.00106340      -0.00129947
S        4.57513550       1.42148001       7.92436771       0.00075106      -0.00105973       0.00130387
