9
Lattice="5.572634822785777 4.401776881639562e-08 3.2173622265374626 1.8575450313701585 5.253929968602067 3.217362141768765 1.0208614194388915e-07 -3.163418353393824e-08 6.43472427625656" Properties=species:S:1:pos:R:3:forces:R:3 energy=-30.593229293823242 free_energy=-30.593229293823242 stress="2.657054938026704e-05 -2.130620302409625e-08 -5.288102844502873e-09 -2.130620302409625e-08 2.6585599698591977e-05 -2.0166567082924303e-08 -5.288102844502873e-09 -2.0166567082924303e-08 2.6592138965497725e-05" pbc="T T T"
Ge       1.85754534       1.31348198       3.21736230       0.00000130      -0.00000058       0.00000197
Ge       5.57263487       3.94044862       9.65208571       0.00000059       0.00000221      -0.00000302
Mg       0.00000038      -0.00000012      -0.00000039      -0.00000202       0.00000027       0.00000423
Se       2.14461400       1.51647092       6.43472500       0.00019778       0.00013722       0.00000114
Se       5.28556585       3.73745898       6.43472555      -0.00019525      -0.00013958       0.00000308
Se       4.50032680       1.51647102       5.07465201      -0.00009973       0.00013770       0.00016943
Se       2.92985222       3.73745917       7.79479569       0.00009748      -0.00013683      -0.00016913
Se       2.92985241       3.73745858       5.07465263       0.00009739      -0.00013772       0.00016519
Se       4.50032794       1.51647080       7.79479605      -0.00009764       0.00013719      -0.00017282
