9
Lattice="4.304141232658719 -1.6182067541720599e-06 2.4849948957780392 1.4347122765315174 4.057986388362597 2.4849947953674385 -1.4902292864129394e-07 -2.2835236047966651e-07 4.969990049671259" Properties=species:S:1:pos:R:3:forces:R:3 energy=-45.808494567871094 free_energy=-45.808494567871094 stress="-5.3385188948595896e-05 5.612668701360235e-06 8.439749308308819e-07 5.612668701360235e-06 -7.020412886049598e-05 7.66118205319799e-07 8.439749308308819e-07 7.66118205319799e-07 -3.836768519249745e-05" pbc="T T T"
Ge       1.43471047       1.01449441       2.48499548      -0.00003132      -0.00002489       0.00000353
Ge       4.30413943       3.04349228       7.45498597       0.00001229       0.00004109       0.00000952
Ni       0.00000113      -0.00000150      -0.00000160       0.00000351      -0.00000487      -0.00000471
N        1.66049087       1.17413496       4.96999401      -0.00003012      -0.00021943       0.00006618
N        4.07836004       2.88385365       4.96999286       0.00000414       0.00025563       0.00001238
N        3.47390278       1.17411887       3.92303122       0.00013693      -0.00045355       0.00019158
N        2.26494700       2.88385771       6.01694126      -0.00021012       0.00037495      -0.00025101
N        2.26495616       2.88386676       3.92303525      -0.00007169       0.00046875       0.00020971
N        3.47390565       1.17412094       6.01694463       0.00018639      -0.00043768      -0.00023723
