9
Lattice="4.4283493342821485 -1.3265400023835818e-09 2.5567086925843476 1.4761164494449577 4.175087827435185 2.5567086823047798 1.918243833044833e-08 9.741867324348566e-10 5.113417351943739" Properties=species:S:1:pos:R:3:forces:R:3 energy=-42.167327880859375 free_energy=-42.167327880859375 stress="-0.00033820027601905167 -4.8856250600692874e-08 -9.389264477022152e-09 -4.8856250600692874e-08 -0.0003381405840627849 -2.3627812595350406e-08 -9.389264477022152e-09 -2.3627812595350406e-08 -0.00033811424509622157" pbc="T T T"
Ge       1.47611605       1.04377209       2.55670871      -0.00000076       0.00000073       0.00000217
Ge       4.42834973       3.13131585       7.67012665      -0.00000014      -0.00000077       0.00000341
Ni      -0.00000013      -0.00000004      -0.00000005       0.00000527      -0.00000159       0.00000135
O        1.46066220       1.03284514       5.11341709       0.00267763       0.00190001      -0.00000295
O        4.44380379       3.14224267       5.11341725      -0.00268021      -0.00190177       0.00000056
O        3.69801775       1.03284420       3.82167969      -0.00134392       0.00189532       0.00232407
O        2.20644812       3.14224363       6.40515497       0.00134437      -0.00189450      -0.00232415
O        2.20644830       3.14224378       3.82167966       0.00134233      -0.00189255       0.00232099
O        3.69801746       1.03284406       6.40515502      -0.00134456       0.00189483      -0.00232501
