9
Lattice="6.000942595886827 -2.833918764812071e-09 3.4646458809284435 2.0003142124170883 5.6577428803968965 3.4646458524188346 1.7480664545748577e-08 -2.2556270350252372e-08 6.929291731579343" Properties=species:S:1:pos:R:3:forces:R:3 energy=-32.18748092651367 free_energy=-32.18748092651367 stress="-0.0002276680461363867 -5.112764434045403e-09 3.065184550621325e-09 -5.112764434045403e-09 -0.00022766663460060954 -1.3157163136767736e-09 3.065184550621325e-09 -1.3157163136767736e-09 -0.00022766007168684155" pbc="T T T"
Ge       2.00031436       1.41443572       3.46464587       0.00000135       0.00000068       0.00000018
Ge       6.00094258       4.24330731      10.39393775      -0.00000003      -0.00000046       0.00000131
Ni       0.00000016      -0.00000053       0.00000034      -0.00000269       0.00000327      -0.00000419
Te       2.05936577       1.45619130       6.92929164      -0.00341658      -0.00241578       0.00000055
Te       5.94189134       4.20155156       6.92929162       0.00341625       0.00241583      -0.00000063
Te       4.97125969       1.45619141       5.24810890       0.00170806      -0.00241552      -0.00295981
Te       3.02999707       4.20155156       8.61047453      -0.00170834       0.00241539       0.00295883
Te       3.02999695       4.20155161       5.24810873      -0.00170701       0.00241426      -0.00295766
Te       4.97125938       1.45619149       8.61047448       0.00170905      -0.00241770       0.00296135
