9
Lattice="4.450095078384797 -5.644355868751493e-08 2.569263631193247 1.4833649713127637 4.195589826915408 2.5692636339645425 4.3518238058193125e-08 3.416617116164385e-08 5.138527187010702" Properties=species:S:1:pos:R:3:forces:R:3 energy=-54.66667175292969 free_energy=-54.66667175292969 stress="0.0004993277252651751 5.6508140389155415e-09 2.980239699468257e-08 5.6508140389155415e-09 0.0004993239999748766 -5.814881021137808e-09 2.980239699468257e-08 -5.814881021137808e-09 0.0004991893074475229" pbc="T T T"
Ge       1.48336509       1.04889748       2.56926354      -0.00000004       0.00000053       0.00000023
Ge       4.45009499       3.14669242       7.70779061       0.00000026       0.00000014      -0.00000109
Os       0.00000004      -0.00000000       0.00000062      -0.00000422      -0.00000364      -0.00001024
N        1.57880079       1.11638082       5.13852646       0.00004661       0.00003511      -0.00000543
N        4.35465929       3.07920879       5.13852642      -0.00004208      -0.00003064      -0.00000636
N        3.66069474       1.11638072       3.93654589      -0.00002050       0.00002897       0.00004488
N        2.27276576       3.07920914       6.34050922       0.00002569      -0.00003111      -0.00003147
N        2.27276520       3.07920891       3.93654573       0.00001925      -0.00003153       0.00004321
N        3.66069445       1.11638097       6.34050936      -0.00002491       0.00003207      -0.00003237
