9
Lattice="4.369424113375441 -1.8069321579050928e-07 2.5226890852868817 1.4564746945857328 4.119532789844095 2.522688807316209 2.7976485493684755e-07 -1.4261954873725818e-07 5.045377686006825" Properties=species:S:1:pos:R:3:forces:R:3 energy=-46.23240280151367 free_energy=-46.23240280151367 stress="0.0004997130017727613 -3.3357395068378537e-07 -2.6186120294369175e-07 -3.3357395068378537e-07 0.0004982068785466254 -1.5277915110800677e-07 -2.6186120294369175e-07 -1.5277915110800677e-07 0.0004970993613824248" pbc="T T T"
Ge       1.45647479       1.02988268       2.52268885       0.00000272      -0.00000179       0.00000030
Ge       4.36942391       3.08964953       7.56806659      -0.00000354      -0.00000008      -0.00000062
Pt       0.00000033       0.00000046       0.00000000      -0.00000286       0.00000298      -0.00000540
N        1.61193061       1.13980460       5.04537594      -0.00428271      -0.00304224      -0.00002458
N        4.21397268       2.97973045       5.04537672       0.00429288       0.00306179      -0.00001493
N        3.56345747       1.13980199       3.91865998       0.00211847      -0.00306004      -0.00371309
N        2.26243796       2.97972525       6.17209980      -0.00214547       0.00300555       0.00374745
N        2.26243869       2.97972867       3.91865727      -0.00213164       0.00304669      -0.00372702
N        3.56346005       1.13980619       6.17209731       0.00215217      -0.00301278       0.00373791
