9
Lattice="4.284609452909777 1.1056969784177418e-09 2.473720153727588 1.428203172503596 4.039568076839126 2.4737201182357653 1.3013629698333048e-07 4.855182162901838e-08 4.947440082052499" Properties=species:S:1:pos:R:3:forces:R:3 energy=-46.19556427001953 free_energy=-46.19556427001953 stress="-5.641812822432257e-05 5.686072768185113e-07 -6.031203838574584e-07 5.686072768185113e-07 -5.474520003190264e-05 -3.671438975061392e-08 -6.031203838574584e-07 -3.671438975061392e-08 -5.463340494316071e-05" pbc="T T T"
Ge       1.42820297       1.00989213       2.47372016      -0.00000548       0.00000208       0.00000226
Ge       4.28460989       3.02967600       7.42116025       0.00000518      -0.00000200      -0.00000300
Pd       0.00000004       0.00000025      -0.00000016       0.00000429       0.00000027      -0.00000537
N        1.64680070       1.16446562       4.94743891       0.00378200       0.00270859      -0.00002213
N        4.06601254       2.87510282       4.94743998      -0.00378212      -0.00270633       0.00000241
N        3.46120951       1.16446356       3.89989278      -0.00188287       0.00267371       0.00330851
N        2.25160370       2.87510291       5.99498845       0.00188662      -0.00269015      -0.00329243
N        2.25160178       2.87510442       3.89989257       0.00186826      -0.00268481       0.00330842
N        3.46120996       1.16446478       5.99498843      -0.00187575       0.00269864      -0.00329916
