9
Lattice="4.544355533857012 -1.666895884152956e-08 2.623684759217114 1.5147852043780858 4.284459187658751 2.6236846862260714 4.348362406478254e-08 -5.864783047096729e-08 5.247369443118377" Properties=species:S:1:pos:R:3:forces:R:3 energy=-57.085105895996094 free_energy=-57.085105895996094 stress="-0.0008273140992969275 3.4878596011367335e-08 -6.961663245874661e-08 3.4878596011367335e-08 -0.0008271354017779231 5.068767805482821e-08 -6.961663245874661e-08 5.068767805482821e-08 -0.0008271668339148164" pbc="T T T"
Ge       1.51478510       1.07111447       2.62368496      -0.00000226      -0.00000288       0.00000037
Ge       4.54435555       3.21334395       7.87105438      -0.00000102      -0.00000418      -0.00000044
Re      -0.00000039      -0.00000055       0.00000040       0.00000386       0.00000567      -0.00000307
N        1.59582934       1.12842142       5.24736876      -0.00081706      -0.00058043      -0.00000285
N        4.46331190       3.15603818       5.24736861       0.00081110       0.00057912      -0.00000484
N        3.74644139       1.12842147       4.00571330       0.00041133      -0.00057471      -0.00070429
N        2.31269985       3.15603731       6.48902589      -0.00040781       0.00057256       0.00070810
N        2.31269911       3.15603804       4.00571324      -0.00040770       0.00057715      -0.00070024
N        3.74644126       1.12842204       6.48902585       0.00040972      -0.00057220       0.00070620
