9
Lattice="4.246131925945883 1.5347682404072885e-07 2.4515053344598297 1.4153774577442697 4.003291817875273 2.451505326845269 5.355823862440112e-09 -5.5387456381512705e-09 4.903010659643158" Properties=species:S:1:pos:R:3:forces:R:3 energy=-48.64210510253906 free_energy=-48.64210510253906 stress="4.1353137930855155e-05 -1.522715820101439e-07 1.6641473621348268e-07 -1.522715820101439e-07 4.049767449032515e-05 2.0896014518712036e-07 1.6641473621348268e-07 2.0896014518712036e-07 4.18834897573106e-05" pbc="T T T"
Ge       1.41537641       1.00082214       2.45150757      -0.00001388      -0.00001207       0.00002170
Ge       4.24613103       3.00246787       7.35451815      -0.00001293      -0.00001556       0.00002111
Si      -0.00000031      -0.00000052      -0.00000045      -0.00001314      -0.00000742       0.00002959
N        1.60053695       1.13175070       4.90301473      -0.00256205      -0.00181367       0.00003879
N        4.06097944       2.87154662       4.90301284       0.00265267       0.00187854       0.00002486
N        3.44586570       1.13174525       3.83760685       0.00131615      -0.00187920      -0.00227903
N        2.21564602       2.87154174       5.96841044      -0.00128390       0.00181668       0.00222479
N        2.21564073       2.87154493       3.83760552      -0.00134222       0.00185999      -0.00229369
N        3.44586148       1.13174911       5.96841011       0.00125889      -0.00182837       0.00221172
