9
Lattice="4.208312717317136 -6.879033198376987e-08 2.429670348939916 1.4027708554380458 3.9676349597100655 2.4296703237873967 -4.3226011150053276e-08 -6.137084164378445e-08 4.859340772749479" Properties=species:S:1:pos:R:3:forces:R:3 energy=-48.05647277832031 free_energy=-48.05647277832031 stress="-3.550832116161473e-05 -7.762036347003232e-08 -4.600840242119375e-08 -7.762036347003232e-08 -3.5659537388710305e-05 3.009501625683697e-08 -4.600840242119375e-08 3.009501625683697e-08 -3.519468373269774e-05" pbc="T T T"
Ge       1.40277076       0.99190892       2.42967031      -0.00000244      -0.00000008      -0.00000091
Ge       4.20831273       2.97572615       7.28901084       0.00000053      -0.00000039       0.00000014
S       -0.00000003      -0.00000008       0.00000013       0.00000803      -0.00000594      -0.00001062
N        1.37172524       0.96995659       4.85934098       0.00586295       0.00414526      -0.00000014
N        4.23935838       2.99767836       4.85934094      -0.00586557      -0.00415152      -0.00000156
N        3.52244967       0.96995614       3.61761953      -0.00293517       0.00414908       0.00508130
N        2.08863371       2.99767843       6.10106149       0.00292492      -0.00413263      -0.00506675
N        2.08863378       2.99767841       3.61761954       0.00293630      -0.00414389       0.00507313
N        3.52244976       0.96995640       6.10106176      -0.00293010       0.00414038      -0.00507343
