9
Lattice="4.36750301550311 -1.3655696761957888e-07 2.5215786356318617 1.4558343094968667 4.1177206615766755 2.5215784628719637 2.343799732130297e-07 -4.5855178721193113e-08 5.043156865305736" Properties=species:S:1:pos:R:3:forces:R:3 energy=-53.57926559448242 free_energy=-53.57926559448242 stress="0.0005870931781828403 4.4993512915425526e-07 -1.8456880468420422e-07 4.4993512915425526e-07 0.0005874017369933426 6.257823059740986e-08 -1.8456880468420422e-07 6.257823059740986e-08 0.0005878173978999257" pbc="T T T"
Ge       1.45583325       1.02943002       2.52157988      -0.00001284      -0.00000006       0.00001283
Ge       4.36750286       3.08829144       7.56473729       0.00000023       0.00000933       0.00001120
V        0.00000005      -0.00000025      -0.00000036       0.00000658      -0.00000634       0.00000294
N        1.60026002       1.13155446       5.04315858      -0.00642049      -0.00452638       0.00001548
N        4.22307844       2.98616511       5.04315834       0.00641441       0.00453421       0.00001387
N        3.56737304       1.13155431       3.90744554       0.00320598      -0.00453272      -0.00554895
N        2.25596456       2.98616711       6.17887115      -0.00320590       0.00454199       0.00555134
N        2.25596342       2.98616716       3.90744059      -0.00320765       0.00453183      -0.00556940
N        3.56737476       1.13155269       6.17886446       0.00321943      -0.00455174       0.00551027
