9
Lattice="4.222274088425227 6.25463886103339e-08 2.4377309633526028 1.4074247327960303 3.9807981623439646 2.4377310020033667 -2.1986607815556204e-08 3.1790430797190776e-08 4.875461964787134" Properties=species:S:1:pos:R:3:forces:R:3 energy=-73.62581634521484 free_energy=-73.62581634521484 stress="0.0008573653176426888 8.330570011594318e-08 8.106373883265405e-08 8.330570011594318e-08 0.0008571750367991626 4.371139183945161e-08 8.106373883265405e-08 4.371139183945161e-08 0.0008570116478949785" pbc="T T T"
Hf       1.40742463       0.99519970       2.43773175      -0.00000171      -0.00000757       0.00002887
Hf       4.22227425       2.98559852       7.31319341      -0.00000399      -0.00000175       0.00003153
C        0.00000099       0.00000268      -0.00001891       0.00004055       0.00010641      -0.00071822
N        1.35057128       0.95499750       4.87546231      -0.00079060      -0.00055480       0.00000022
N        4.27912581       3.02579909       4.87546220       0.00072539       0.00050795       0.00000516
N        3.54698581       0.95500181       3.60736453       0.00029266      -0.00041568      -0.00050712
N        2.08270835       3.02580260       6.14356711      -0.00046164       0.00064814       0.00080371
N        2.08271307       3.02579606       3.60736508      -0.00028253       0.00038886      -0.00047815
N        3.54699105       0.95499463       6.14356789       0.00048155      -0.00067258       0.00083256
