9
Lattice="4.242433323492426 8.038154883992269e-08 2.4493700649212644 1.4141444658929871 3.9998047010606945 2.4493701533521546 -7.583408433867847e-09 1.0294300492371464e-07 4.898740142977359" Properties=species:S:1:pos:R:3:forces:R:3 energy=-79.10131072998047 free_energy=-79.10131072998047 stress="-1.5647907503080205e-06 -8.740825840902744e-09 -7.273076363389919e-08 -8.740825840902744e-09 -1.5378318494185805e-06 -2.3169734575390066e-08 -7.273076363389919e-08 -2.3169734575390066e-08 -1.5069866776684648e-06" pbc="T T T"
Hf       1.41414482       0.99995126       2.44937023      -0.00000307      -0.00000025       0.00000132
Hf       4.24243302       2.99985378       7.34811041       0.00000372       0.00000024       0.00000175
Cr       0.00000014      -0.00000015       0.00000018      -0.00000250       0.00000466      -0.00000269
N        1.48297006       1.04861828       4.89873991      -0.00023830      -0.00016713      -0.00000241
N        4.17360775       2.95118670       4.89874014       0.00023770       0.00016648      -0.00000062
N        3.50094809       1.04861809       3.73365975       0.00011855      -0.00016785      -0.00020522
N        2.15562949       2.95118654       6.06382057      -0.00011927       0.00016689       0.00020468
N        2.15562960       2.95118667       3.73365988      -0.00011611       0.00016791      -0.00020409
N        3.50094831       1.04861838       6.06382046       0.00011969      -0.00017059       0.00020981
