9
Lattice="4.214507415235625 1.1776029448214593e-08 2.433247023188215 1.4048357916212906 3.9734758526612164 2.433247065727028 -4.526986936108123e-08 2.0088553122496527e-08 4.866494124786155" Properties=species:S:1:pos:R:3:forces:R:3 energy=-76.13116455078125 free_energy=-76.13116455078125 stress="3.8649352063657716e-05 -9.793167521365831e-08 2.721836622754381e-08 -9.793167521365831e-08 3.841323996311985e-05 -1.1115034226349962e-07 2.721836622754381e-08 -1.1115034226349962e-07 3.827019827440381e-05" pbc="T T T"
Hf       1.40483597       0.99336878       2.43324699      -0.00000159       0.00000130       0.00000047
Hf       4.21450730       2.98010712       7.29974109       0.00000191       0.00000006       0.00000020
Co      -0.00000001       0.00000005       0.00000001      -0.00000323       0.00000211      -0.00000196
N        1.44355348       1.02074654       4.86649419       0.00005907       0.00004628      -0.00000170
N        4.17578989       2.95272926       4.86649420      -0.00006163      -0.00004148      -0.00000223
N        3.49273051       1.02074639       3.68340114      -0.00003150       0.00004442       0.00004929
N        2.12661253       2.95272946       6.04958708       0.00003091      -0.00004376      -0.00005502
N        2.12661240       2.95272951       3.68340119       0.00003214      -0.00004520       0.00005601
N        3.49273052       1.02074650       6.04958700      -0.00002629       0.00003676      -0.00004434
