9
Lattice="4.224733457073798 8.784586872797168e-09 2.439151155490486 1.408244484726456 3.9831169837130225 2.439151171506746 -3.845255411049492e-08 -7.574224431179625e-09 4.878302377582756" Properties=species:S:1:pos:R:3:forces:R:3 energy=-77.23728942871094 free_energy=-77.23728942871094 stress="-7.307821942958981e-05 7.014710945441038e-08 -3.14977128823557e-08 7.014710945441038e-08 -7.294976967386901e-05 7.37020826591106e-08 -3.14977128823557e-08 7.37020826591106e-08 -7.282455771928653e-05" pbc="T T T"
Hf       1.40824445       0.99577917       2.43915121      -0.00000135       0.00000055      -0.00000088
Hf       4.22473339       2.98733775       7.31745345       0.00000126       0.00000012       0.00000203
Fe       0.00000032      -0.00000022      -0.00000010       0.00000576      -0.00000278       0.00000165
N        1.48521792       1.05020781       4.87830244      -0.00048172      -0.00033832      -0.00000076
N        4.14776006       2.93290926       4.87830226       0.00047773       0.00033772       0.00000085
N        3.48212430       1.05020750       3.72538784       0.00023735      -0.00033677      -0.00041521
N        2.15085337       2.93290938       6.03121713      -0.00023779       0.00033838       0.00041386
N        2.15085347       2.93290954       3.72538780      -0.00023836       0.00033572      -0.00041422
N        3.48212429       1.05020769       6.03121700       0.00023782      -0.00033417       0.00041285
