9
Lattice="4.2735702284491115 3.412778940295216e-08 2.4673467834677503 1.4245234475092448 4.029160558607934 2.467346773334848 5.5345665925786835e-08 2.672508243845237e-08 4.934693471073982" Properties=species:S:1:pos:R:3:forces:R:3 energy=-70.44381713867188 free_energy=-70.44381713867188 stress="-9.16526623768732e-05 -1.1605298055883395e-07 -8.046063726396824e-08 -1.1605298055883395e-07 -9.1706016974058e-05 3.6664701497102214e-08 -8.046063726396824e-08 3.6664701497102214e-08 -9.158379543805495e-05" pbc="T T T"
Hf       1.42452331       1.00729022       2.46734662      -0.00000013      -0.00000101      -0.00000014
Hf       4.27357041       3.02187043       7.40204021      -0.00000047      -0.00000005      -0.00000032
Ge       0.00000010       0.00000003       0.00000006      -0.00000084      -0.00000108       0.00000342
N        1.50155178       1.06175746       4.93469358       0.00086677       0.00061291       0.00000225
N        4.19654189       2.96740311       4.93469370      -0.00086462      -0.00061095       0.00000130
N        3.52279441       1.06175746       3.76772871      -0.00043082       0.00061095       0.00074744
N        2.17529939       2.96740307       6.10165824       0.00043243      -0.00061166      -0.00075066
N        2.17529928       2.96740306       3.76772879       0.00043172      -0.00061196       0.00074977
N        3.52279443       1.06175761       6.10165823      -0.00043392       0.00061309      -0.00075275
