9
Lattice="4.377900593526315 1.1207930419997771e-07 2.5275823442432066 1.4593002634732706 4.127524542580903 2.527582413591409 1.235148890296127e-08 9.36676979589462e-08 5.0551646670930195" Properties=species:S:1:pos:R:3:forces:R:3 energy=-74.50462341308594 free_energy=-74.50462341308594 stress="0.000234155377256684 -9.007892032286691e-08 8.244589899675248e-09 -9.007892032286691e-08 0.0002342078078072518 -7.413291314151138e-08 8.244589899675248e-09 -7.413291314151138e-08 0.00023436611809302121" pbc="T T T"
Hf       1.45929996       1.03188111       2.52758245      -0.00000185      -0.00000191      -0.00000131
Hf       4.37790084       3.09564355       7.58274711       0.00000109       0.00000048       0.00000237
Ir       0.00000006      -0.00000020       0.00000030      -0.00000530       0.00000508      -0.00002744
N        1.55831534       1.10189551       5.05516469       0.00725031       0.00512540      -0.00000008
N        4.27888533       3.02562953       5.05516453      -0.00724816      -0.00512469      -0.00000244
N        3.59874315       1.10189531       3.87712308      -0.00362581       0.00512940       0.00628209
N        2.23845817       3.02562935       6.23320641       0.00362200      -0.00511849      -0.00626767
N        2.23845775       3.02562924       3.87712325       0.00362456      -0.00513124       0.00628114
N        3.59874287       1.10189556       6.23320606      -0.00361717       0.00511676      -0.00626695
