9
Lattice="4.431403536898985 -1.1115768950538727e-07 2.558472179778191 1.477134455037696 4.1779671471804765 2.5584720974390844 1.5463187909917075e-08 -8.991027885155107e-08 5.116944332773345" Properties=species:S:1:pos:R:3:forces:R:3 energy=-78.31678009033203 free_energy=-78.31678009033203 stress="-0.0001360257010674104 -2.4717817836972245e-07 7.77252751049673e-09 -2.4717817836972245e-07 -0.00013582062092609704 -6.946199704316314e-08 7.77252751049673e-09 -6.946199704316314e-08 -0.0001356965658487752" pbc="T T T"
Hf       1.47713450       1.04449160       2.55847221      -0.00000020       0.00000143      -0.00000085
Hf       4.43140340       3.13347511       7.67541633      -0.00000169       0.00000131      -0.00000026
Mo      -0.00000036       0.00000029      -0.00000027       0.00002032      -0.00001392       0.00001470
N        1.59234516       1.12595813       5.11694429       0.00035143       0.00024891       0.00000111
N        4.31619263       3.05200904       5.11694435      -0.00035596      -0.00025094       0.00000028
N        3.63523094       1.12595822       3.93748374      -0.00017464       0.00024641       0.00030184
N        2.27330725       3.05200872       6.29640464       0.00017226      -0.00024557      -0.00029826
N        2.27330741       3.05200841       3.93748431       0.00016659      -0.00023699       0.00029004
N        3.63523107       1.12595818       6.29640488      -0.00017750       0.00024974      -0.00030720
