9
Lattice="4.24543257403067 -4.41193904437798e-08 2.4511017187825273 1.4151441554136406 4.002632227488371 2.4511017089683507 -1.408640612602925e-08 -2.1980463555381823e-08 4.902203461963441" Properties=species:S:1:pos:R:3:forces:R:3 energy=-78.89130401611328 free_energy=-78.89130401611328 stress="0.00048251397674903274 -8.248473903904596e-08 6.615789516217774e-08 -8.248473903904596e-08 0.0004824716306757182 6.041794620159635e-09 6.615789516217774e-08 6.041794620159635e-09 0.0004826952936127782" pbc="T T T"
Hf       1.41514419       1.00065806       2.45110170      -0.00000129      -0.00000051      -0.00000080
Hf       4.24543254       3.00197412       7.35330521       0.00000212       0.00000052       0.00000015
Mn       0.00000009      -0.00000012       0.00000031      -0.00000019       0.00000018      -0.00000599
N        1.48893602       1.05283669       4.90220345       0.00005996       0.00004214      -0.00000405
N        4.17164063       2.94979537       4.90220329      -0.00006038      -0.00004250       0.00000014
N        3.50096459       1.05283665       3.74055811      -0.00003219       0.00004303       0.00004917
N        2.15961229       2.94979526       6.06384854       0.00002730      -0.00003520      -0.00004315
N        2.15961228       2.94979580       3.74055831       0.00002927      -0.00004417       0.00004828
N        3.50096432       1.05283685       6.06384857      -0.00002462       0.00003669      -0.00004351
