9
Lattice="4.200642332601308 -1.1042844410339571e-07 2.425241943118058 1.4002140862089894 3.9604031968698674 2.425241805498241 8.504951258080374e-08 -1.084100781115056e-07 4.850483738926054" Properties=species:S:1:pos:R:3:forces:R:3 energy=-73.08763122558594 free_energy=-73.08763122558594 stress="1.247639193024952e-05 -5.794955981741623e-08 1.2269694593669556e-07 -5.794955981741623e-08 1.2348192285571713e-05 -1.7865885126866488e-07 1.2269694593669556e-07 -1.7865885126866488e-07 1.2838339898735285e-05" pbc="T T T"
Hf       1.40021405       0.99010067       2.42524178      -0.00000067       0.00000002       0.00000168
Hf       4.20064233       2.97030197       7.27572561       0.00000150       0.00000171      -0.00000094
Ni      -0.00000005       0.00000002      -0.00000007      -0.00000012       0.00000709       0.00000581
N        1.45886710       1.03157459       4.85048382      -0.00073245      -0.00051673       0.00000031
N        4.14198953       2.92882849       4.85048369       0.00072166       0.00051335       0.00000068
N        3.47120890       1.03157474       3.68865767       0.00036669      -0.00051615      -0.00063583
N        2.12964760       2.92882839       6.01230985      -0.00035846       0.00050952       0.00062466
N        2.12964767       2.92882840       3.68865780      -0.00036420       0.00051774      -0.00063255
N        3.47120889       1.03157452       6.01230974       0.00036572      -0.00051637       0.00063644
