9
Lattice="4.360560753713995 7.766412601452169e-08 2.517570988038635 1.4535202674686862 4.111176445233505 2.5175710867512686 -8.226470091229333e-08 6.272785113757033e-08 5.035142118563912" Properties=species:S:1:pos:R:3:forces:R:3 energy=-79.01392364501953 free_energy=-79.01392364501953 stress="-0.0001742459717206657 -1.8722587924457912e-08 -6.718538259065099e-08 -1.8722587924457912e-08 -0.00017428437422495335 1.1847743230930519e-08 -6.718538259065099e-08 1.1847743230930519e-08 -0.0001739453582558781" pbc="T T T"
Hf       1.45352012       1.02779430       2.51757113      -0.00000011      -0.00000031      -0.00000003
Hf       4.36056079       3.08338235       7.55271307      -0.00000053       0.00000036      -0.00000028
Os      -0.00000013      -0.00000009       0.00000007       0.00000473      -0.00000999       0.00000181
N        1.50548406       1.06453834       5.03514211       0.00133801       0.00094742      -0.00000058
N        4.30859675       3.04663846       5.03514208      -0.00133514      -0.00094759       0.00000115
N        3.60781867       1.06453822       3.82135867      -0.00066906       0.00094688       0.00116110
N        2.20626241       3.04663827       6.24892537       0.00066710      -0.00094301      -0.00115579
N        2.20626252       3.04663833       3.82135867       0.00066596      -0.00094283       0.00115353
N        3.60781859       1.06453825       6.24892542      -0.00067025       0.00094926      -0.00116098
