9
Lattice="4.374281932597669 -6.996445535320692e-08 2.525492877740777 1.4580939489097264 4.124112195910515 2.5254928130654775 -3.690989171237087e-08 -1.0530995804978853e-07 5.050985819411344" Properties=species:S:1:pos:R:3:forces:R:3 energy=-70.29788208007812 free_energy=-70.29788208007812 stress="-0.00013596915232483298 1.8684657732137566e-07 6.082728276624039e-08 1.8684657732137566e-07 -0.00013630682951770723 4.7615476006512836e-08 6.082728276624039e-08 4.7615476006512836e-08 -0.00013623421546071768" pbc="T T T"
Hf       1.45809383       1.03102793       2.52549269      -0.00000169       0.00000052       0.00000101
Hf       4.37428182       3.09308409       7.57647853      -0.00000074       0.00000125       0.00000094
Pt      -0.00000004       0.00000013      -0.00000002      -0.00001240      -0.00001334      -0.00000921
N        1.57073998       1.11068066       5.05098596       0.00084293       0.00059628       0.00000016
N        4.26163579       3.01343088       5.05098571      -0.00082958      -0.00058705       0.00000013
N        3.58891195       1.11068083       3.88579389      -0.00042075       0.00059533       0.00072712
N        2.24346410       3.01343129       6.21617791       0.00041956      -0.00059277      -0.00072491
N        2.24346383       3.01343147       3.88579366       0.00042224      -0.00059623       0.00073177
N        3.58891203       1.11068080       6.21617793      -0.00042039       0.00059557      -0.00072706
