9
Lattice="4.244411990175211 1.374511729508173e-08 2.4505124577324398 1.4148039923199343 4.001670048227435 2.450512487808017 -5.7123044618343067e-08 -3.5571868184210575e-09 4.901025014404881" Properties=species:S:1:pos:R:3:forces:R:3 energy=-76.35001373291016 free_energy=-76.35001373291016 stress="-7.264169198606396e-06 6.505858607397386e-08 9.210387474922754e-08 6.505858607397386e-08 -7.481649845431093e-06 2.619327688080375e-08 9.210387474922754e-08 2.619327688080375e-08 -7.197661489044549e-06" pbc="T T T"
Hf       1.41480396       1.00041747       2.45051237       0.00000034       0.00000042      -0.00000046
Hf       4.24441201       3.00125253       7.35153745      -0.00000002       0.00000092      -0.00000052
P        0.00000000       0.00000008      -0.00000007      -0.00000068       0.00000155       0.00000526
N        1.40417637       0.99290275       4.90102493       0.00017416       0.00012267       0.00000202
N        4.25503951       3.00876738       4.90102503      -0.00017881      -0.00012422       0.00000080
N        3.54232372       0.99290280       3.66656496      -0.00008571       0.00012219       0.00015080
N        2.11689218       3.00876726       6.13548508       0.00009018      -0.00012696      -0.00015688
N        2.11689221       3.00876730       3.66656503       0.00008792      -0.00012207       0.00015295
N        3.54232374       0.99290275       6.13548508      -0.00008780       0.00012505      -0.00015426
