9
Lattice="4.2141698308463305 8.70343201242039e-09 2.4330520494793273 1.4047232307421047 3.9731575496066185 2.4330521437242876 9.942704422023408e-09 1.224565523298309e-07 4.866104081737388" Properties=species:S:1:pos:R:3:forces:R:3 energy=-70.52275085449219 free_energy=-70.52275085449219 stress="-5.2230807341402397e-05 1.1553605361314112e-07 6.653493045405412e-08 1.1553605361314112e-07 -5.2270814194343984e-05 -1.2658204262550043e-08 6.653493045405412e-08 -1.2658204262550043e-08 -5.2460425649769604e-05" pbc="T T T"
Hf       1.40472321       0.99328953       2.43305203       0.00000020      -0.00000107       0.00000079
Hf       4.21416972       2.97986827       7.29915613       0.00000306       0.00000174       0.00000021
Pd      -0.00000008       0.00000003      -0.00000002       0.00000181       0.00000494       0.00000265
N        1.55424638       1.09901789       4.86610413       0.00229901       0.00162327      -0.00000058
N        4.06464699       2.87413953       4.86610426      -0.00230306      -0.00163063       0.00000061
N        3.43704690       1.09901818       3.77906854      -0.00115332       0.00162911       0.00199616
N        2.18184599       2.87413971       5.95313955       0.00115311      -0.00162965      -0.00199693
N        2.18184621       2.87413956       3.77906862       0.00115171      -0.00162774       0.00199437
N        3.43704696       1.09901819       5.95313968      -0.00115278       0.00162998      -0.00199705
