9
Lattice="4.713533542964928 -3.754894951034286e-07 2.7213597658044155 1.571177212623124 4.443962231751996 2.7213602525399856 -5.8430726683047e-07 1.8295930618504744e-07 5.442720543658686" Properties=species:S:1:pos:R:3:forces:R:3 energy=-59.2300910949707 free_energy=-59.2300910949707 stress="0.00026339039322920144 -5.8396366853230575e-08 6.192916544023319e-07 -5.8396366853230575e-08 0.0002639483427628875 5.100913469391344e-08 6.192916544023319e-07 5.100913469391344e-08 0.0002617788559291512" pbc="T T T"
Hf       1.57117321       1.11098653       2.72136083      -0.00006879      -0.00006046       0.00001800
Hf       4.71353775       3.33297911       8.16407356       0.00007857       0.00012038      -0.00010201
Pb       0.00000020       0.00000114      -0.00000140       0.00000014      -0.00000600       0.00000393
N        1.72408472       1.21911366       5.44272236      -0.00479192      -0.00338310       0.00001920
N        4.56062309       3.22485286       5.44272835       0.00477064       0.00342125       0.00008035
N        3.85149118       1.21910274       4.21446775       0.00239557      -0.00347155      -0.00407928
N        2.43321993       3.22485477       6.67097715      -0.00238445       0.00342435       0.00411791
N        2.43321620       3.22485019       4.21446308      -0.00243157       0.00339425      -0.00413173
N        3.85149453       1.21910687       6.67097105       0.00243121      -0.00343889       0.00407302
