9
Lattice="4.44794971360997 -3.1638081496965313e-09 2.5680248950984232 1.4826498800366275 4.193567264345036 2.5680249323672184 -9.30717255795036e-09 3.9063633496406356e-08 5.136049806317331" Properties=species:S:1:pos:R:3:forces:R:3 energy=-80.10186767578125 free_energy=-80.10186767578125 stress="-4.296183033147827e-05 -9.382413423963953e-08 1.5125678487493133e-08 -9.382413423963953e-08 -4.2956253309966996e-05 -4.102016859519608e-08 1.5125678487493133e-08 -4.102016859519608e-08 -4.2648956878110766e-05" pbc="T T T"
Hf       1.48264996       1.04839177       2.56802489       0.00000097      -0.00000060      -0.00000152
Hf       4.44794964       3.14517555       7.70407461      -0.00000073       0.00000108      -0.00000020
Re      -0.00000009       0.00000006       0.00000012      -0.00000171       0.00000180      -0.00000229
N        1.55182728       1.09730743       5.13604966      -0.00063312      -0.00044906      -0.00000090
N        4.37877234       3.09625994       5.13604968       0.00063193       0.00044703      -0.00000018
N        3.67203598       1.09730761       3.91194692       0.00031859      -0.00045133      -0.00055087
N        2.25856353       3.09625934       6.36015282      -0.00031787       0.00044739       0.00055325
N        2.25856364       3.09625961       3.91194705      -0.00031745       0.00045240      -0.00055146
N        3.67203604       1.09730784       6.36015276       0.00031912      -0.00044894       0.00055361
