9
Lattice="4.256768892218741 -3.226246186455119e-08 2.4576465558365483 1.4189229335662314 4.013320299183327 2.4576465559913117 -3.015322335744309e-08 -2.113200366847235e-08 4.915293163899989" Properties=species:S:1:pos:R:3:forces:R:3 energy=-73.79632568359375 free_energy=-73.79632568359375 stress="-0.0001290700602112338 -1.897506152204187e-08 4.869286129860484e-08 -1.897506152204187e-08 -0.00012929461081512272 7.909431332109307e-09 4.869286129860484e-08 7.909431332109307e-09 -0.0001292775123147294" pbc="T T T"
Hf       1.41892275       1.00333038       2.45764661       0.00000039       0.00000015      -0.00000192
Hf       4.25676911       3.00998990       7.37293957      -0.00000197      -0.00000042       0.00000173
Rh       0.00000014      -0.00000001       0.00000019      -0.00000285      -0.00000247      -0.00002145
N        1.54181174       1.09022578       4.91529289      -0.00236875      -0.00167167      -0.00000310
N        4.13387958       2.92309479       4.91529285       0.00237006       0.00167930      -0.00000228
N        3.48586326       1.09022541       3.79289481       0.00118288      -0.00167227      -0.00204498
N        2.18982879       2.92309412       6.03769195      -0.00118747       0.00167578       0.00206220
N        2.18982868       2.92309473       3.79289458      -0.00118086       0.00167155      -0.00204641
N        3.48586308       1.09022574       6.03769167       0.00118741      -0.00167936       0.00205666
