9
Lattice="4.265281427181063 -8.881199565819578e-08 2.4625613187300113 1.421760398704924 4.021345570189412 2.462561307106849 -8.293562824572431e-08 -7.287977341455617e-08 4.925122781108746" Properties=species:S:1:pos:R:3:forces:R:3 energy=-74.2224349975586 free_energy=-74.2224349975586 stress="-0.0006986038642935455 2.898229212178194e-08 -4.273614351291144e-08 2.898229212178194e-08 -0.000698600837495178 1.5386012819362804e-07 -4.273614351291144e-08 1.5386012819362804e-07 -0.0006983932107686996" pbc="T T T"
Hf       1.42176045       1.00533631       2.46256151      -0.00000071       0.00000006      -0.00000106
Hf       4.26528143       3.01600901       7.38768403       0.00000033      -0.00000017       0.00000119
S       -0.00000002      -0.00000011      -0.00000000       0.00000365      -0.00000032       0.00000072
N        1.39098653       0.98357584       4.92512279       0.00639439       0.00452173       0.00000175
N        4.29605538       3.03776961       4.92512283      -0.00639677      -0.00452280      -0.00000108
N        3.56978780       0.98357598       3.66719113      -0.00319475       0.00451958       0.00553918
N        2.11725369       3.03776944       6.18305411       0.00319409      -0.00451922      -0.00553489
N        2.11725376       3.03776957       3.66719112       0.00319767      -0.00452125       0.00553739
N        3.56978786       0.98357598       6.18305424      -0.00319898       0.00452137      -0.00554276
