9
Lattice="4.3428973055241755 6.449306546216425e-08 2.507373025428765 1.4476324650113037 4.0945234170379825 2.507373079067064 -9.344867268424152e-08 -3.8501268135863117e-10 5.01474621271541" Properties=species:S:1:pos:R:3:forces:R:3 energy=-69.84251403808594 free_energy=-69.84251403808594 stress="-9.072734974324703e-05 -1.242337930307258e-07 5.0301856902024156e-08 -1.242337930307258e-07 -9.09117006813176e-05 -1.4736268205695069e-08 5.0301856902024156e-08 -1.4736268205695069e-08 -9.069591033039615e-05" pbc="T T T"
Hf       1.44763249       1.02363103       2.50737292       0.00000118      -0.00000007      -0.00000071
Hf       4.34289729       3.07089271       7.52211910      -0.00000011      -0.00000094      -0.00000082
Se       0.00000005      -0.00000003       0.00000018       0.00000099       0.00000004      -0.00000092
N        1.47808729       1.04516553       5.01474618      -0.00049013      -0.00034517       0.00000027
N        4.31244285       3.04935773       5.01474592       0.00048560       0.00034434       0.00000088
N        3.60385344       1.04516572       3.78743423       0.00024489      -0.00034851      -0.00042295
N        2.18667593       3.04935788       6.24205815      -0.00024360       0.00034958       0.00042158
N        2.18667597       3.04935767       3.78743421      -0.00024503       0.00034648      -0.00042135
N        3.60385343       1.04516573       6.24205825       0.00024670      -0.00034672       0.00042278
