9
Lattice="4.3794150978439115 3.1921068090947734e-08 2.528456614057659 1.4598050184208717 4.128952287739043 2.5284566907688752 -7.25512474825286e-08 4.2650177052061777e-08 5.056913353777768" Properties=species:S:1:pos:R:3:forces:R:3 energy=-77.35897064208984 free_energy=-77.35897064208984 stress="-0.0005517028039321303 -9.613474105663045e-08 8.526820494125786e-08 -9.613474105663045e-08 -0.0005519820260815322 -4.177742241040505e-08 8.526820494125786e-08 -4.177742241040505e-08 -0.0005520182312466204" pbc="T T T"
Hf       1.45980416       1.03223819       2.52845678      -0.00000309       0.00000185       0.00000277
Hf       4.37941553       3.09671372       7.58536999       0.00000323      -0.00000346       0.00000199
Ta      -0.00000017      -0.00000009       0.00000015      -0.00000204      -0.00000460      -0.00000318
N        1.58746062       1.12250445       5.05691330      -0.00204289      -0.00144124       0.00000233
N        4.25175949       3.00644798       5.05691347       0.00204206       0.00144386       0.00000150
N        3.58568553       1.12250473       3.90323802       0.00102615      -0.00143987      -0.00176716
N        2.25353475       3.00644833       6.21058846      -0.00102466       0.00144297       0.00176400
N        2.25353513       3.00644764       3.90323801      -0.00102532       0.00144202      -0.00176942
N        3.58568520       1.12250444       6.21058862       0.00102589      -0.00144243       0.00176722
