9
Lattice="4.51980861972839 -3.579000493644734e-08 2.609512818439563 1.5066028492521881 4.261316404015427 2.6095128015476794 3.0868351799673295e-08 1.1389854026769285e-09 5.2190255834135515" Properties=species:S:1:pos:R:3:forces:R:3 energy=-65.02556610107422 free_energy=-65.02556610107422 stress="0.00018795357027556747 -1.53336401353954e-08 -6.060790269657446e-08 -1.53336401353954e-08 0.00018812535563483834 -6.215695513844821e-09 -6.060790269657446e-08 -6.215695513844821e-09 0.00018808488675858825" pbc="T T T"
Hf       1.50660272       1.06532950       2.60951286       0.00000025      -0.00000302       0.00000042
Hf       4.51980868       3.19598723       7.82853848      -0.00000071       0.00000370       0.00000000
Te       0.00000006       0.00000007       0.00000043      -0.00000719      -0.00000352      -0.00002132
N        1.62362475       1.14807558       5.21902535      -0.00523889      -0.00370258       0.00000044
N        4.40278681       3.11324019       5.21902535       0.00524819       0.00370711       0.00000033
N        3.70799632       1.14807575       4.01561293       0.00262046      -0.00370556      -0.00453794
N        2.31841536       3.11324053       6.42243794      -0.00262463       0.00370991       0.00454724
N        2.31841516       3.11324061       4.01561315      -0.00262076       0.00370324      -0.00453568
N        3.70799609       1.14807594       6.42243836       0.00262362      -0.00370991       0.00454724
