9
Lattice="4.298511510594496 8.882507300018618e-08 2.481746827186459 1.432837233438997 4.052675745408046 2.4817468627008665 -4.1118832889300386e-08 1.4420681245051811e-08 4.9634937255928255" Properties=species:S:1:pos:R:3:forces:R:3 energy=-75.81214904785156 free_energy=-75.81214904785156 stress="-0.00012253300519660115 7.390912770688374e-08 -6.358565229902524e-08 7.390912770688374e-08 -0.00012239401985425502 1.026399374381981e-07 -6.358565229902524e-08 1.026399374381981e-07 -0.00012220849748700857" pbc="T T T"
Hf       1.43283706       1.01316921       2.48174698      -0.00000164      -0.00000079       0.00000142
Hf       4.29851151       3.03950674       7.44524093       0.00000271      -0.00000085      -0.00000007
Ti      -0.00000003       0.00000004       0.00000001      -0.00000294      -0.00000459      -0.00000571
N        1.52729343       1.07995979       4.96349373      -0.00082767      -0.00058657       0.00000157
N        4.20405524       2.97271618       4.96349365       0.00082934       0.00058603       0.00000013
N        3.53486480       1.07995965       3.80442186       0.00041452      -0.00058401      -0.00071472
N        2.19648378       2.97271613       6.12256541      -0.00041863       0.00059152       0.00072241
N        2.19648415       2.97271591       3.80442155      -0.00041118       0.00058281      -0.00072259
N        3.53486490       1.07995979       6.12256556       0.00041500      -0.00058389       0.00071716
