9
Lattice="4.271560405960765 1.1304393323433406e-07 2.466186614782639 1.4238535219106097 4.0272661304087904 2.466186707138741 -2.4038668145256957e-08 9.611475769842854e-08 4.932373271201475" Properties=species:S:1:pos:R:3:forces:R:3 energy=-78.6634521484375 free_energy=-78.6634521484375 stress="-0.00013605087588075548 -1.357503691679085e-07 -3.4092913381300605e-08 -1.357503691679085e-07 -0.00013603403931483626 -9.806503697973312e-08 -3.4092913381300605e-08 -9.806503697973312e-08 -0.00013595292693935335" pbc="T T T"
Hf       1.42385349       1.00681669       2.46618678      -0.00000087       0.00000009       0.00000036
Hf       4.27156050       3.02044988       7.39855996      -0.00000026      -0.00000095      -0.00000045
V       -0.00000009       0.00000008      -0.00000014       0.00000376       0.00000297       0.00000329
N        1.52129687       1.07571935       4.93237328      -0.00121009      -0.00085783      -0.00000047
N        4.17411706       2.95154680       4.93237333       0.00120842       0.00085366       0.00000080
N        3.51091211       1.07571942       3.78366837       0.00060624      -0.00085664      -0.00104982
N        2.18450194       2.95154699       6.08107820      -0.00060529       0.00085700       0.00104892
N        2.18450177       2.95154671       3.78366840      -0.00060558       0.00085723      -0.00104934
N        3.51091201       1.07571932       6.08107819       0.00060433      -0.00085562       0.00104654
