9
Lattice="4.372521822597256 -6.021878635706333e-08 2.5244766353099335 1.4575072676820422 4.122452635771906 2.524476548260934 5.3432677810017004e-08 -6.883021439053027e-08 5.0489531780717645" Properties=species:S:1:pos:R:3:forces:R:3 energy=-80.77062225341797 free_energy=-80.77062225341797 stress="0.00020389724522829056 2.6222878091175517e-08 -2.1804329009000867e-08 2.6222878091175517e-08 0.00020369738922454417 1.5786158158448416e-08 -2.1804329009000867e-08 1.5786158158448416e-08 0.00020377135660964996" pbc="T T T"
Hf       1.45750746       1.03061303       2.52447647       0.00000209       0.00000024      -0.00000200
Hf       4.37252182       3.09183942       7.57342986      -0.00000074       0.00000192      -0.00000131
W        0.00000009       0.00000007      -0.00000009      -0.00000293      -0.00000760       0.00000921
N        1.56559322       1.10704149       5.04895302       0.00221670       0.00157082      -0.00000091
N        4.26443580       3.01541100       5.04895314      -0.00221431      -0.00156397      -0.00000057
N        3.58972529       1.10704132       3.88032022      -0.00110519       0.00156409       0.00191927
N        2.24030389       3.01541110       6.21758639       0.00110859      -0.00156891      -0.00192225
N        2.24030400       3.01541118       3.88031997       0.00110793      -0.00156832       0.00192058
N        3.58972492       1.10704146       6.21758645      -0.00111216       0.00157070      -0.00192165
