9
Lattice="4.361495099028408 8.500629317043784e-09 2.518110474198298 1.4538317036842696 4.112057186602475 2.5181104811374757 1.231645316571685e-08 1.7207775212968533e-08 5.036220927063876" Properties=species:S:1:pos:R:3:forces:R:3 energy=-73.35203552246094 free_energy=-73.35203552246094 stress="2.3294684069696814e-05 -3.061591655750817e-07 6.753111847501714e-08 -3.061591655750817e-07 2.3212725864141248e-05 -1.2795176473900938e-07 6.753111847501714e-08 -1.2795176473900938e-07 2.3666401830269024e-05" pbc="T T T"
Hf       1.45383168       1.02801408       2.51811033      -0.00000032      -0.00000294      -0.00000098
Hf       4.36149527       3.08404297       7.55433128       0.00000115       0.00000274       0.00000088
Zr      -0.00000005       0.00000000      -0.00000001       0.00000963      -0.00000394      -0.00001266
N        1.62592013       1.14969898       5.03622098       0.00104994       0.00073937       0.00000014
N        4.18940685       2.96235832       5.03622086      -0.00105453      -0.00074381       0.00000140
N        3.54853524       1.14969885       3.92619862      -0.00052363       0.00074062       0.00091305
N        2.26679166       2.96235831       6.14624325       0.00052100      -0.00073394      -0.00090277
N        2.26679176       2.96235830       3.92619872       0.00052285      -0.00073764       0.00090793
N        3.54853489       1.14969898       6.14624348      -0.00052565       0.00074050      -0.00090748
