9
Lattice="5.493210482134018 1.0794234663021554e-07 3.17150624872977 1.831070164872124 5.179048066810784 3.1715064177921657 -6.328025893253435e-08 1.623124617213136e-07 6.343012607064103" Properties=species:S:1:pos:R:3:forces:R:3 energy=-22.55255889892578 free_energy=-22.55255889892578 stress="-0.00015311840979848057 5.0496542058908744e-08 -1.990901221660124e-09 5.0496542058908744e-08 -0.0001531560847070068 2.7103606470291197e-08 -1.990901221660124e-09 2.7103606470291197e-08 -0.00015317159704864025" pbc="T T T"
Hg       1.83107069       1.29476129       3.17150608      -0.00000142       0.00000178      -0.00000235
Hg       5.49321003       3.88428681       9.51451894       0.00000059       0.00000025      -0.00000113
Au      -0.00000050       0.00000015      -0.00000016       0.00001144      -0.00000732       0.00000792
S        1.95727602       1.38400227       6.34301238       0.00141248       0.00099748       0.00000198
S        5.36700438       3.79504576       6.34301274      -0.00141257      -0.00100055       0.00000163
S        4.51457243       1.38400355       4.86655593      -0.00070563       0.00100113       0.00122634
S        2.80970790       3.79504630       7.81946858       0.00070550      -0.00100200      -0.00122297
S        2.80970844       3.79504528       4.86655689       0.00070217      -0.00099628       0.00122035
S        4.51457296       1.38400201       7.81946977      -0.00071256       0.00100514      -0.00123230
