9
Lattice="5.598765133236248 -3.294774192635897e-07 3.232448773509828 1.8662548714191998 5.278565663595013 3.2324485351079177 2.384297885593487e-07 -1.2338617099297982e-07 6.464897134047202" Properties=species:S:1:pos:R:3:forces:R:3 energy=-21.03643798828125 free_energy=-21.03643798828125 stress="9.29682300920831e-07 -8.067849721626885e-10 2.30070291706852e-08 -8.067849721626885e-10 9.968389349523932e-07 -1.4384543334244881e-08 2.30070291706852e-08 -1.4384543334244881e-08 9.486477097198076e-07" pbc="T T T"
Hg       1.86625465       1.31964165       3.23244812      -0.00000040       0.00000072       0.00000021
Hg       5.59876513       3.95892370       9.69734638       0.00000007      -0.00000048       0.00000142
Ag       0.00000033       0.00000014       0.00000196      -0.00000302      -0.00000489      -0.00002486
S        2.01435145       1.42436099       6.46489681       0.00008589       0.00005996       0.00000080
S        5.45066879       3.85420344       6.46489663      -0.00008169      -0.00005803       0.00000121
S        4.59159024       1.42436127       4.97692789      -0.00004281       0.00006288       0.00007796
S        2.87342998       3.85420398       7.95286600       0.00003871      -0.00005794      -0.00006774
S        2.87343090       3.85420427       4.97692824       0.00004402      -0.00005949       0.00007731
S        4.59158948       1.42436138       7.95286565      -0.00004071       0.00005698      -0.00006631
