9
Lattice="4.775186657932046 -1.2056338269779869e-08 2.7569552306532663 1.591728886823387 4.502089177228677 2.7569552095000187 -3.919423777597153e-08 -5.362188748122396e-08 5.513910529192977" Properties=species:S:1:pos:R:3:forces:R:3 energy=-28.56723976135254 free_energy=-28.56723976135254 stress="-0.00012147874804213643 1.301608136827781e-07 6.068889835120217e-09 1.301608136827781e-07 -0.00012149053509347141 -2.2453658488075234e-08 6.068889835120217e-09 -2.2453658488075234e-08 -0.00012158048048149794" pbc="T T T"
Hg       1.59172919       1.12552231       2.75695540       0.00000003       0.00000011      -0.00000017
Hg       4.77518661       3.37656694       8.27086557       0.00000017      -0.00000011      -0.00000094
Au      -0.00000006      -0.00000000      -0.00000002      -0.00000376      -0.00000139       0.00000844
O        1.61333443       1.14079986       5.51391056      -0.00038463      -0.00027153      -0.00000004
O        4.75358109       3.36128914       5.51391054       0.00038788       0.00027391       0.00000007
O        3.96851914       1.14079936       4.15414362       0.00018939      -0.00026977      -0.00033060
O        2.39839614       3.36128969       6.87367724      -0.00018747       0.00026673       0.00032577
O        2.39839607       3.36128959       4.15414367      -0.00018978       0.00026959      -0.00033018
O        3.96851941       1.14079960       6.87367730       0.00018823      -0.00026780       0.00032750
