9
Lattice="5.758518377334556 2.8832234831236555e-07 3.32468225299942 1.9195063810233948 5.429182750659224 3.324682281730251 -1.3284550139639507e-07 -5.8748021143272084e-08 6.649364736093959" Properties=species:S:1:pos:R:3:forces:R:3 energy=-22.15662384033203 free_energy=-22.15662384033203 stress="2.633510348459822e-06 -2.0300078062973625e-08 4.1838990050280245e-09 -2.0300078062973625e-08 2.6723314476839732e-06 -1.1264331689631035e-08 4.1838990050280245e-09 -1.1264331689631035e-08 2.6438949589646654e-06" pbc="T T T"
Hg       1.91950606       1.35729541       3.32468257       0.00000084       0.00000072       0.00000014
Hg       5.75851869       4.07188740       9.97404678      -0.00000043      -0.00000049       0.00000131
Ag       0.00000003       0.00000063      -0.00000108      -0.00000007      -0.00000217       0.00000367
Se       2.25345431       1.59343307       6.64936452       0.00119397       0.00084563      -0.00000161
Se       5.42456999       3.83574988       6.64936421      -0.00119376      -0.00084326      -0.00000269
Se       4.63179119       1.59343343       5.27623206      -0.00059749       0.00084547       0.00103325
Se       3.04623401       3.83574864       8.02249839       0.00059851      -0.00084735      -0.00103478
Se       3.04623371       3.83574925       5.27623190       0.00059740      -0.00084545       0.00103448
Se       4.63179046       1.59343424       8.02249772      -0.00059893       0.00084691      -0.00103381
