9
Lattice="6.320197090507823 2.6763136067579637e-08 3.6489673494169925 2.106732403564644 5.958738991493543 3.6489673237316325 1.5070211624838253e-07 7.510439753734741e-08 7.2979344378103" Properties=species:S:1:pos:R:3:forces:R:3 energy=-19.784061431884766 free_energy=-19.784061431884766 stress="-0.0002470886392984539 -1.0273928374715524e-08 7.19618276079359e-09 -1.0273928374715524e-08 -0.0002471327024977654 -3.32797300828247e-09 7.19618276079359e-09 -3.32797300828247e-09 -0.0002471310435794294" pbc="T T T"
Hg       2.10673242       1.48968476       3.64896747      -0.00000068       0.00000004      -0.00000015
Hg       6.32019726       4.46905427      10.94690190       0.00000082      -0.00000076      -0.00000044
Ag       0.00000058      -0.00000170      -0.00000144      -0.00000236       0.00000779       0.00000774
Te       2.35747830       1.66698918       7.29793489       0.00162470       0.00114920      -0.00000026
Te       6.06945135       4.29175028       7.29793479      -0.00162635      -0.00115021       0.00000002
Te       5.14145723       1.66698919       5.69060350      -0.00081188       0.00114738       0.00140499
Te       3.28547190       4.29175090       8.90526680       0.00081498      -0.00115155      -0.00141094
Te       3.28547223       4.29175052       5.69060271       0.00081368      -0.00115036       0.00140723
Te       5.14145730       1.66698894       8.90526578      -0.00081292       0.00114848      -0.00140819
