9
Lattice="6.966988125055762 8.99247735444425e-06 4.022396324391529 2.3223384090596872 6.568535925795354 4.022395361626434 3.403558813559312e-06 1.22753848199972e-06 8.044786753646317" Properties=species:S:1:pos:R:3:forces:R:3 energy=-21.32889747619629 free_energy=-21.32889747619629 stress="-0.00014117323735263199 -2.8797560958082613e-07 -1.642215181618667e-07 -2.8797560958082613e-07 -0.00014093668141867965 -2.8937054707967036e-07 -1.642215181618667e-07 -2.8937054707967036e-07 -0.00014185442705638707" pbc="T T T"
Hg       2.32233686       1.64213626       4.02239704       0.00000450       0.00000236       0.00000393
Hg       6.96699211       4.92640868      12.06718334      -0.00000250      -0.00000388      -0.00000189
Be      -0.00000001      -0.00000101      -0.00000441      -0.00002750       0.00003706       0.00002356
Te       1.82841916       1.29288676       8.04480059      -0.00431788      -0.00304930       0.00002705
Te       7.46091233       5.27565557       8.04479007       0.00431643       0.00305513      -0.00001381
Te       6.05278771       1.29289191       5.60585701       0.00219497      -0.00307581      -0.00373212
Te       3.23654547       5.27566008      10.48372177      -0.00217164       0.00305057       0.00368191
Te       3.23654604       5.27565812       5.60585972      -0.00216897       0.00308682      -0.00371905
Te       6.05278161       1.29288685      10.48370913       0.00217250      -0.00310287       0.00373039
