9
Lattice="5.392992430997987 -1.4463948073337716e-07 3.113645392968614 1.7976641001523144 5.084561323077295 3.113645232141366 9.626466829220074e-08 -1.2890305872033204e-07 6.227290619202287" Properties=species:S:1:pos:R:3:forces:R:3 energy=-22.720108032226562 free_energy=-22.720108032226562 stress="0.00040715510840527713 1.4064212017217415e-08 -9.89722348521127e-09 1.4064212017217415e-08 0.0004072106967214495 -5.024503924033752e-09 -9.89722348521127e-09 -5.024503924033752e-09 0.0004071870935149491" pbc="T T T"
Hg       1.79766419       1.27114035       3.11364537       0.00000079       0.00000192       0.00000102
Hg       5.39299279       3.81342112       9.34093600       0.00000017       0.00000000       0.00000058
Be       0.00000047       0.00000011       0.00000035       0.00000036      -0.00000073      -0.00000031
S        1.87886328       1.32855642       6.22729120       0.00510301       0.00360726       0.00000155
S        5.31179319       3.75600417       6.22729118      -0.00510003      -0.00361011       0.00000148
S        4.45356058       1.32855649       4.74078806      -0.00255298       0.00361063       0.00441716
S        2.73709585       3.75600500       7.71379189       0.00255045      -0.00360467      -0.00442079
S        2.73709567       3.75600443       4.74078837       0.00255154      -0.00361080       0.00441809
S        4.45356050       1.32855611       7.71379247      -0.00255325       0.00360654      -0.00441869
