9
Lattice="5.205736714030076 1.117015339545081e-07 3.0055334247609027 1.735245598322257 4.908015696307633 3.0055335604398805 -5.7585947118152986e-08 1.2545272713086913e-07 6.0110669492635695" Properties=species:S:1:pos:R:3:forces:R:3 energy=-27.621028900146484 free_energy=-27.621028900146484 stress="-5.6939974456327036e-05 -1.104010838304248e-08 -2.24755005717725e-08 -1.104010838304248e-08 -5.699519897461869e-05 1.3433152368236279e-08 -2.24755005717725e-08 1.3433152368236279e-08 -5.694755236618221e-05" pbc="T T T"
Hg       1.73524524       1.22700421       3.00553320       0.00000002       0.00000085      -0.00000173
Hg       5.20573682       3.68101156       9.01660067       0.00000063      -0.00000031      -0.00000091
Ba       0.00000097       0.00000042      -0.00000138      -0.00000595      -0.00000176       0.00000799
O        2.15110701       1.52106231       6.01106684      -0.00299125      -0.00211109       0.00000324
O        4.78987451       3.38695232       6.01106682       0.00299766       0.00212510       0.00000303
O        4.13018314       1.52106341       4.86844803       0.00150138      -0.00212620      -0.00260266
O        2.81079856       3.38695391       7.15368782      -0.00149469       0.00211016       0.00258402
O        2.81079923       3.38695307       4.86844634      -0.00150071       0.00211790      -0.00258896
O        4.13018357       1.52106247       7.15368745       0.00149288      -0.00211465       0.00259606
