9
Lattice="5.606919990760568 -8.260218097489133e-08 3.2371570552944138 1.8689733056794093 5.286254984669693 3.237156962969296 5.701405435103091e-07 2.900754627327855e-07 6.474313123076387" Properties=species:S:1:pos:R:3:forces:R:3 energy=-22.745262145996094 free_energy=-22.745262145996094 stress="-0.0004533871542662382 6.373596050934793e-08 -3.115511049145425e-08 6.373596050934793e-08 -0.00045342082739807665 -6.254782647374668e-08 -3.115511049145425e-08 -6.254782647374668e-08 -0.0004534246399998665" pbc="T T T"
Hg       1.86897336       1.32156365       3.23715662       0.00000052      -0.00000058      -0.00000065
Hg       5.60692016       3.96469136       9.71147030      -0.00000074      -0.00000157      -0.00000118
Be      -0.00000039      -0.00000049      -0.00000033      -0.00000000      -0.00000101      -0.00000012
Se       2.13957930       1.51290901       6.47431485       0.00267641       0.00189169       0.00000290
Se       5.33631804       3.77334665       6.47431370      -0.00267778      -0.00189278       0.00000383
Se       4.53713079       1.51290896       5.09008298      -0.00133861       0.00189263       0.00231372
Se       2.93876047       3.77334767       7.85854436       0.00133782      -0.00189021      -0.00231712
Se       2.93875979       3.77334551       5.09008340       0.00133763      -0.00189009       0.00231451
Se       4.53713399       1.51290840       7.85854270      -0.00133529       0.00189202      -0.00231588
