9
Lattice="6.510983114884414 2.516573952704199e-07 3.7591175078296155 2.170327736445797 6.138614095858145 3.759117864251903 -1.635804426590854e-07 3.208575751650449e-07 7.5182352989888415" Properties=species:S:1:pos:R:3:forces:R:3 energy=-21.601791381835938 free_energy=-21.601791381835938 stress="4.14557580370456e-05 2.46943230308716e-08 -4.2237502384523395e-09 2.46943230308716e-08 4.139053635299206e-05 2.0809929335285915e-09 -4.2237502384523395e-09 2.0809929335285915e-09 4.150683889747597e-05" pbc="T T T"
Hg       2.17032753       1.53465434       3.75911804      -0.00000042       0.00000077       0.00000004
Hg       6.51098318       4.60396212      11.27735337       0.00000018       0.00000164       0.00000027
Ba       0.00000001       0.00000041      -0.00000080       0.00000142      -0.00000013      -0.00000032
S        2.67785819       1.89353174       7.51823620      -0.00262147      -0.00185484       0.00000610
S        6.00345302       4.24508287       7.51823615       0.00262091       0.00185291       0.00000567
S        5.17205329       1.89353178       6.07821079       0.00131024      -0.00185608      -0.00227123
S        3.50925586       4.24508310       8.95825907      -0.00131316       0.00185793       0.00226559
S        3.50925750       4.24508132       6.07821118      -0.00131030       0.00185469      -0.00227051
S        5.17205424       1.89353096       8.95825871       0.00131261      -0.00185693       0.00226437
