9
Lattice="6.513880765198323 1.4779709176265838e-07 3.760790893039351 2.171293644419452 6.141346487684323 3.760791037361451 -6.480261278425551e-08 1.309354054582551e-07 7.521581898320092" Properties=species:S:1:pos:R:3:forces:R:3 energy=-22.53812599182129 free_energy=-22.53812599182129 stress="7.145156268961728e-05 4.668904374227623e-09 5.534628311210099e-09 4.668904374227623e-09 7.139775698306039e-05 -1.5880322834505023e-08 5.534628311210099e-09 -1.5880322834505023e-08 7.149610610213131e-05" pbc="T T T"
Hg       2.17129296       1.53533716       3.76079104      -0.00000149       0.00000025       0.00000059
Hg       6.51388105       4.60601007      11.28237270      -0.00000137       0.00000065       0.00000076
Ba       0.00000038       0.00000053      -0.00000034      -0.00000930       0.00000191       0.00000368
Se       2.72698362       1.92827061       7.52158184       0.00379852       0.00268548      -0.00000461
Se       5.95819216       4.21307966       7.52158207      -0.00379076      -0.00268001      -0.00000401
Se       5.15038913       1.92826621       6.12242636      -0.00189554       0.00267412       0.00328335
Se       3.53478536       4.21307632       8.92073316       0.00189753      -0.00268470      -0.00329141
Se       3.53478498       4.21307737       6.12243147       0.00189832      -0.00268031       0.00329466
Se       5.15038771       1.92826919       8.92073703      -0.00189588       0.00268259      -0.00328302
