9
Lattice="4.553130331844174 -1.6460651066037143e-07 2.628750754920594 1.5177101168208238 4.2927315853868135 2.628750475370013 1.0873706717015991e-07 -2.654894703487605e-07 5.257501321503148" Properties=species:S:1:pos:R:3:forces:R:3 energy=-32.6490592956543 free_energy=-32.6490592956543 stress="-3.3915719541255385e-05 6.38112780393385e-08 1.9791979610772614e-08 6.38112780393385e-08 -3.39596917910967e-05 -5.14340854351758e-08 1.9791979610772614e-08 -5.14340854351758e-08 -3.409570854273625e-05" pbc="T T T"
Hg       1.51771059       1.07318284       2.62875114       0.00000104      -0.00000092      -0.00000067
Hg       4.55313044       3.21954818       7.88625202       0.00000112       0.00000000       0.00000118
Be      -0.00000003      -0.00000047       0.00000051      -0.00000173       0.00000884       0.00000495
O        1.36734732       0.96685978       5.25750117       0.00070322       0.00049770       0.00000283
O        4.70349321       3.32587142       5.25750092      -0.00070745      -0.00049797       0.00000263
O        3.86945679       0.96686002       3.81290679      -0.00035477       0.00050133       0.00061357
O        2.20138239       3.32587227       6.70209617       0.00036111      -0.00051209      -0.00062650
O        2.20138385       3.32587103       3.81290713       0.00035220      -0.00049874       0.00061435
O        3.86945776       0.96685963       6.70209452      -0.00035456       0.00050136      -0.00061184
