9
Lattice="5.901344238191946 3.5547606335642005e-07 3.4071429782694205 1.9671150965263062 5.56384177042864 3.4071429517410765 3.5771029174988314e-08 -7.1964975611934405e-09 6.814285894581509" Properties=species:S:1:pos:R:3:forces:R:3 energy=-20.48576545715332 free_energy=-20.48576545715332 stress="-1.9044977307203226e-05 -1.8671483914545206e-08 1.3314211955162136e-08 -1.8671483914545206e-08 -1.9152945242240094e-05 -1.6730774987649966e-08 1.3314211955162136e-08 -1.6730774987649966e-08 -1.908745434775483e-05" pbc="T T T"
Hg       1.96711456       1.39096029       3.40714255       0.00000092       0.00000020       0.00000094
Hg       5.90134475       4.17288089      10.22142845      -0.00000000       0.00000084       0.00000011
Cd      -0.00000059      -0.00000043       0.00000106       0.00000164       0.00000173      -0.00000280
Se       2.36418062       1.67172757       6.81428668       0.00027508       0.00019187      -0.00000208
Se       5.50427907       3.89211467       6.81428665      -0.00027373      -0.00019251      -0.00000083
Se       4.71925399       1.67172907       5.45458315      -0.00013956       0.00019680       0.00023820
Se       3.14920711       3.89211417       8.17398793       0.00013693      -0.00018869      -0.00023463
Se       3.14920550       3.89211359       5.45458342       0.00013676      -0.00019759       0.00023670
Se       4.71925256       1.67172864       8.17398754      -0.00013816       0.00018731      -0.00023562
