9
Lattice="6.152049699390139 1.6961467892527028e-07 3.5518863217661294 2.0506831916799553 5.8002088057910965 3.551886670539343 1.0276073615367532e-07 4.99821160867848e-07 7.1037724655446635" Properties=species:S:1:pos:R:3:forces:R:3 energy=-25.330575942993164 free_energy=-25.330575942993164 stress="-8.384241664316505e-05 1.0000358230399797e-07 -4.606814130170278e-08 1.0000358230399797e-07 -8.394527685595676e-05 3.553652661025808e-08 -4.606814130170278e-08 3.553652661025808e-08 -8.384204556932673e-05" pbc="T T T"
Hg       2.05068322       1.45005197       3.55188656      -0.00000014      -0.00000080       0.00000002
Hg       6.15205027       4.35015740      10.65565933       0.00000061       0.00000036      -0.00000007
Co       0.00000193      -0.00000101       0.00000100      -0.00001691       0.00001225      -0.00000799
Te       1.98867097       1.40620431       7.10377121       0.00465571       0.00329211      -0.00000128
Te       6.21406188       4.39400618       7.10377146      -0.00465088      -0.00328817      -0.00000045
Te       5.15771386       1.40620331       5.27412424      -0.00232732       0.00329124       0.00403351
Te       3.04501810       4.39400559       8.93342241       0.00233194      -0.00329812      -0.00403668
Te       3.04501764       4.39400664       5.27412264       0.00233548      -0.00330303       0.00404462
Te       5.15771403       1.40620347       8.93342320      -0.00232852       0.00329418      -0.00403170
