9
Lattice="6.566186752530452 -9.222242421155598e-07 3.7909901424016774 2.1887276388282326 6.190658373660564 3.790990851159454 5.475406208584645e-07 1.2552164296173717e-06 7.5819793364354995" Properties=species:S:1:pos:R:3:forces:R:3 energy=-17.843849182128906 free_energy=-17.843849182128906 stress="0.0001659704139456153 9.901317099547668e-08 -1.8714938221364719e-07 9.901317099547668e-08 0.00016625718853902072 -1.5416873111462337e-07 -1.8714938221364719e-07 -1.5416873111462337e-07 0.00016620641690678895" pbc="T T T"
Hg       2.18873119       1.54766506       3.79099082      -0.00000018      -0.00000053      -0.00000198
Hg       6.56618807       4.64299872      11.37296533      -0.00000287       0.00000012       0.00000497
Cd       0.00000085      -0.00000120      -0.00000005      -0.00000497       0.00000219       0.00000317
Te       2.53131679       1.78991409       7.58197712      -0.00740434      -0.00523426      -0.00001113
Te       6.22360089       4.40074326       7.58198487       0.00740837       0.00522158       0.00000251
Te       5.30052642       1.78990405       5.98317182       0.00370168      -0.00523536      -0.00641137
Te       3.45438494       4.40074805       9.18078338      -0.00370458       0.00524078       0.00641183
Te       3.45438084       4.40074726       5.98318069      -0.00370647       0.00523257      -0.00640792
Te       5.30052946       1.78991550       9.18078725       0.00371336      -0.00522708       0.00640988
