9
Lattice="4.374975495944194 3.389959076392147e-07 2.525893375703931 1.4583253429896679 4.124767294121997 2.525893621539905 -1.783070250626179e-07 1.7500425471986177e-07 5.051787060244659" Properties=species:S:1:pos:R:3:forces:R:3 energy=-34.85192108154297 free_energy=-34.85192108154297 stress="-9.722924005473033e-05 3.89955907564854e-08 1.584054700742854e-07 3.89955907564854e-08 -9.69651373452507e-05 3.121740022038466e-08 1.584054700742854e-07 3.121740022038466e-08 -9.733963088365272e-05" pbc="T T T"
Hg       1.45832521       1.03119209       2.52589336       0.00000010       0.00000281      -0.00000169
Hg       4.37497570       3.09357596       7.57768020       0.00000463       0.00000151      -0.00000332
C        0.00000491       0.00000245      -0.00000667       0.00008797       0.00003588      -0.00012058
O        1.27989097       0.90502000       5.05178780       0.00079668       0.00056946       0.00000306
O        4.55340660       3.21974606       5.05178791      -0.00086260      -0.00061560       0.00001008
O        3.73502827       0.90502166       3.63431423      -0.00043643       0.00060987       0.00075471
O        2.09827044       3.21974725       6.46926244       0.00039768      -0.00057364      -0.00069046
O        2.09827191       3.21974592       3.63431448       0.00041699      -0.00060558       0.00074220
O        3.73502866       0.90502025       6.46926227      -0.00040656       0.00057542      -0.00069499
