9
Lattice="5.621318942613589 -2.3536507621701966e-07 3.2454700467590105 1.873772806795081 5.299829982584949 3.245469963918113 2.2877968021132847e-07 6.031275943585587e-08 6.490939697259958" Properties=species:S:1:pos:R:3:forces:R:3 energy=-18.743013381958008 free_energy=-18.743013381958008 stress="-0.00013333045353647321 6.667156782214079e-08 -2.814983091070644e-08 6.667156782214079e-08 -0.00013350858353078365 -6.631950810742637e-08 -2.814983091070644e-08 -6.631950810742637e-08 -0.00013328349450603127" pbc="T T T"
Hg       1.87377264       1.32495579       3.24547015      -0.00000039      -0.00000082       0.00000071
Hg       5.62132008       3.97487314       9.73640944       0.00000143       0.00000088       0.00000110
Cd      -0.00000030       0.00000124       0.00000160       0.00000048      -0.00000424      -0.00000503
S        2.08176623       1.47202993       6.49093959      -0.00151780      -0.00107828       0.00000404
S        5.41332524       3.82779931       6.49094057       0.00152016       0.00107630       0.00000711
S        4.58043556       1.47202936       5.04833161       0.00075991      -0.00107741      -0.00131622
S        2.91465538       3.82780152       7.93354597      -0.00076430       0.00108506       0.00131167
S        2.91465570       3.82779939       5.04833290      -0.00076239       0.00107606      -0.00131834
S        4.58043733       1.47202952       7.93354691       0.00076281      -0.00107758       0.00131501
