9
Lattice="4.671425763261474 1.0270234351082706e-07 2.6970486497512263 1.5571419646442821 4.4042623681580215 2.697048742020346 -4.562781630122683e-08 8.074236263113703e-08 5.394097378532216" Properties=species:S:1:pos:R:3:forces:R:3 energy=-33.8034782409668 free_energy=-33.8034782409668 stress="-3.53428149537649e-05 3.241520474261961e-08 2.0673089906608766e-08 3.241520474261961e-08 -3.538977034622803e-05 5.07456476839252e-09 2.0673089906608766e-08 5.07456476839252e-09 -3.525630017975345e-05" pbc="T T T"
Hg       1.55714170       1.10106552       2.69704906      -0.00000004      -0.00000002      -0.00000022
Hg       4.67142526       3.30319653       8.09114546      -0.00000027      -0.00000021      -0.00000010
Co       0.00000002       0.00000012       0.00000000      -0.00000122      -0.00000438       0.00000144
O        1.46835143       1.03828139       5.39409741       0.00020337       0.00014454       0.00000136
O        4.76021639       3.36598148       5.39409747      -0.00020218      -0.00014287      -0.00000129
O        3.93724977       1.03828120       3.96867831      -0.00010073       0.00014329       0.00017792
O        2.29131772       3.36598128       6.81951668       0.00010121      -0.00014329      -0.00017667
O        2.29131784       3.36598085       3.96867797       0.00010139      -0.00014204       0.00017440
O        3.93725053       1.03828172       6.81951650      -0.00010121       0.00014418      -0.00017756
