9
Lattice="6.201755045474629 1.6515080359065023e-07 3.580583542501154 2.0672517919229754 5.847070390515226 3.5805836214959 2.404515653993737e-07 2.667732497304547e-07 7.161166668527981" Properties=species:S:1:pos:R:3:forces:R:3 energy=-26.985153198242188 free_energy=-26.985153198242188 stress="-0.00016700659762136638 9.641881604238733e-08 -4.5584723551428397e-08 9.641881604238733e-08 -0.00016706177848391235 6.608333791291443e-08 -4.5584723551428397e-08 6.608333791291443e-08 -0.0001672157522989437" pbc="T T T"
Hg       2.06725236       1.46176792       3.58058309      -0.00000323      -0.00000268       0.00000095
Hg       6.20175480       4.38530408      10.74175110       0.00000242       0.00000073      -0.00000095
Cr      -0.00000116      -0.00000186       0.00000180       0.00000608       0.00001475      -0.00001038
Te       2.18295600       1.54358109       7.16116528       0.00369719       0.00261480      -0.00000356
Te       6.08605447       4.30348933       7.16116445      -0.00371046      -0.00262368       0.00000063
Te       5.11027822       1.54358269       5.47107397      -0.00185123       0.00261940       0.00321708
Te       3.15872810       4.30348793       8.85126180       0.00185523      -0.00262191      -0.00321905
Te       3.15872859       4.30348945       5.47107088       0.00185725      -0.00262762       0.00322942
Te       5.11027688       1.54358257       8.85126314      -0.00185327       0.00262614      -0.00321414
