9
Lattice="5.304820785049879 -8.434438475632949e-07 3.0627385979163875 1.7682728689296512 5.001430857332735 3.0627384781977898 -9.880075340116686e-07 -8.452515549041833e-07 6.125478907111936" Properties=species:S:1:pos:R:3:forces:R:3 energy=-25.92660140991211 free_energy=-25.92660140991211 stress="8.42487788759172e-05 1.6604006702891638e-07 3.3890287909343897e-07 1.6604006702891638e-07 8.504351717419922e-05 1.5380453532998217e-07 3.3890287909343897e-07 1.5380453532998217e-07 8.4799321484752e-05" pbc="T T T"
Hg       1.76827252       1.25035789       3.06273842      -0.00000590       0.00000196      -0.00002325
Hg       5.30481954       3.75107186       9.18821694       0.00000091      -0.00000632      -0.00001384
C        0.00000128       0.00000108       0.00001109      -0.00002432      -0.00002453      -0.00021098
S        1.56379680       1.10576636       6.12547803      -0.00132543      -0.00096393       0.00003449
S        5.50929626       3.89565997       6.12548016       0.00135148       0.00095826       0.00005247
S        4.52292082       1.10576560       4.41702122       0.00064906      -0.00094318      -0.00112969
S        2.55017384       3.89565875       7.83392690      -0.00066662       0.00097048       0.00119978
S        2.55016982       3.89566259       4.41702382      -0.00066361       0.00095916      -0.00112659
S        4.52291979       1.10577269       7.83392696       0.00068474      -0.00095159       0.00121766
