9
Lattice="4.840761177633825 -1.195884838309151e-07 2.794814732939973 1.6135869376742786 4.563913337078196 2.7948147481610945 -1.152185070867686e-08 1.0494774657423412e-08 5.589629485836384" Properties=species:S:1:pos:R:3:forces:R:3 energy=-29.395648956298828 free_energy=-29.395648956298828 stress="0.00031736979144625366 -1.1132970101357387e-08 1.381131475852726e-08 -1.1132970101357387e-08 0.0003174447047058493 -2.4394820385964522e-08 1.381131475852726e-08 -2.4394820385964522e-08 0.000317448255373165" pbc="T T T"
Hg       1.61358681       1.14097806       2.79481480      -0.00000046      -0.00000012       0.00000095
Hg       4.84076120       3.42293547       8.38444405       0.00000029       0.00000249       0.00000002
Ca      -0.00000009       0.00000028       0.00000095      -0.00000048      -0.00000153      -0.00001129
O        1.83204858       1.29545362       5.58962972      -0.00807497      -0.00571057      -0.00000070
O        4.62229982       3.26845952       5.58962961       0.00807382       0.00571184       0.00000002
O        3.92473719       1.29545355       4.38141530       0.00403703      -0.00570755      -0.00698979
O        2.52961138       3.26845916       6.79784326      -0.00403973       0.00571398       0.00699554
O        2.52961092       3.26845910       4.38141508      -0.00403696       0.00570688      -0.00699234
O        3.92473657       1.29545414       6.79784317       0.00404152      -0.00571547       0.00699747
