9
Lattice="5.940710128356758 -1.5417101618247026e-07 3.4298707404570714 1.980236576497325 5.600955100310066 3.429870718981544 7.78482990084799e-08 2.8745045570112682e-08 6.859741346076924" Properties=species:S:1:pos:R:3:forces:R:3 energy=-21.83139419555664 free_energy=-21.83139419555664 stress="-0.00018422154244035482 1.7000363783381545e-08 -3.751984500866001e-09 1.7000363783381545e-08 -0.00018421404820401222 -2.546345134746275e-09 -3.751984500866001e-09 -2.546345134746275e-09 -0.0001842622586991638" pbc="T T T"
Hg       1.98023728       1.40023950       3.42987106       0.00000102       0.00000345       0.00000122
Hg       5.94071016       4.20071702      10.28961276      -0.00000059       0.00000244       0.00000264
Ca      -0.00000116      -0.00000028       0.00000035       0.00000687       0.00000082      -0.00000227
S        2.24350733       1.58639936       6.85974138      -0.00424197      -0.00299838       0.00000059
S        5.67743996       4.01455558       6.85974126       0.00423877       0.00299606      -0.00000114
S        4.81895633       1.58639840       5.37280485       0.00211756      -0.00299831      -0.00367068
S        3.10199028       4.01455609       8.34667764      -0.00212058       0.00299745       0.00367165
S        3.10199045       4.01455556       5.37280437      -0.00211895       0.00299583      -0.00367317
S        4.81895656       1.58639865       8.34667757       0.00211798      -0.00299940       0.00367121
