9
Lattice="5.627804646223777 -2.5028141169388947e-07 3.2492151101350464 1.8759347410915836 5.3059451571149125 3.249214945616891 8.754350816737491e-08 -1.3959013607221375e-07 6.4984300686403005" Properties=species:S:1:pos:R:3:forces:R:3 energy=-23.408071517944336 free_energy=-23.408071517944336 stress="5.3608226153301075e-05 9.633479791659738e-09 4.0492156294646975e-09 9.633479791659738e-09 5.354368840926327e-05 6.710011657418136e-09 4.0492156294646975e-09 6.710011657418136e-09 5.355485700420104e-05" pbc="T T T"
Hg       1.87593470       1.32648649       3.24921509       0.00000082       0.00000157      -0.00000042
Hg       5.62780466       3.97945854       9.74764540       0.00000053      -0.00000059       0.00000025
Cu      -0.00000038      -0.00000060      -0.00000013       0.00000135       0.00000193      -0.00000043
Se       2.15716483       1.52534538       6.49843045       0.00152174       0.00107635       0.00000108
Se       5.34657354       3.78059900       6.49843028      -0.00152017      -0.00107444       0.00000079
Se       4.54922212       1.52534582       5.11737473      -0.00076174       0.00107465       0.00131592
Se       2.95451789       3.78059901       7.87948486       0.00075905      -0.00107712      -0.00131644
Se       2.95451807       3.78059932       5.11737477       0.00075994      -0.00107721       0.00131635
Se       4.54922249       1.52534607       7.87948518      -0.00076152       0.00107489      -0.00131713
