9
Lattice="6.076293150813612 1.1937398820656836e-07 3.508149156661379 2.025431107765712 5.728784205077405 3.508149252015042 -7.995740636294004e-08 6.024551306920768e-08 7.016298451813029" Properties=species:S:1:pos:R:3:forces:R:3 energy=-22.157474517822266 free_energy=-22.157474517822266 stress="0.0001881377538666129 -1.6228566934728406e-08 -1.1111826125898006e-08 -1.6228566934728406e-08 0.00018796318909153342 -1.4644919055228911e-08 -1.1111826125898006e-08 -1.4644919055228911e-08 0.0001882226933958009" pbc="T T T"
Hg       2.02543120       1.43219444       3.50814872       0.00000043       0.00000182       0.00000105
Hg       6.07629328       4.29658715      10.52444722       0.00000044       0.00000063       0.00000133
Ca      -0.00000003      -0.00000039       0.00000186       0.00000129       0.00000368      -0.00000112
Se       2.43221413       1.71983511       7.01629900      -0.00636721      -0.00450709       0.00000035
Se       5.66950726       4.00894819       7.01630016       0.00635885       0.00449962       0.00000435
Se       4.86018686       1.71983464       5.61450984       0.00318676      -0.00451136      -0.00550754
Se       3.24154145       4.00894726       8.41808629      -0.00317469       0.00449711       0.00550889
Se       3.24153874       4.00895157       5.61450965      -0.00318474       0.00451193      -0.00551227
Se       4.86018383       1.71983952       8.41808468       0.00317886      -0.00449634       0.00550496
