9
Lattice="6.137117576314085 0.00012336765208845706 3.543226417953942 2.0459028005387494 5.786087820905981 3.5430867634399443 8.633072235040159e-05 -0.00010999616964193079 7.086303307137791" Properties=species:S:1:pos:R:3:forces:R:3 energy=-21.092649459838867 free_energy=-21.092649459838867 stress="-4.406612060847692e-05 -1.1784007256210316e-05 -2.003911868087016e-05 -1.1784007256210316e-05 -3.9383794501191005e-05 -7.235434622998582e-06 -2.003911868087016e-05 -7.235434622998582e-06 -5.10142017446924e-05" pbc="T T T"
Hg       2.04606385       1.44687320       3.54324850      -0.00052062      -0.00052471      -0.00066828
Hg       6.13717348       4.33941453      10.62879165       0.00012633       0.00008033       0.00081402
Cu       0.00015463       0.00015304       0.00008344      -0.00027248      -0.00023904      -0.00002469
Te       2.20393077       1.55782030       7.08581534       0.00481994       0.00275841      -0.00008503
Te       5.97991252       4.22821374       7.08661237      -0.00499421      -0.00356887      -0.00036430
Te       5.03478272       1.55833977       5.45135673      -0.00216949       0.00396608       0.00411791
Te       3.14775304       4.22767609       8.72146143       0.00268413      -0.00335381      -0.00448020
Te       3.14705153       4.22771813       5.45151854       0.00251634      -0.00274616       0.00485009
Te       5.03555836       1.55819508       8.72145107      -0.00218999       0.00362777      -0.00415953
