9
Lattice="4.670725162066264 2.221484828832414e-08 2.6966444839294774 1.5569083618271184 4.403602543804704 2.6966445644224772 -6.535054041498413e-08 5.237360310404615e-08 5.393289081049363" Properties=species:S:1:pos:R:3:forces:R:3 energy=-33.80347442626953 free_energy=-33.80347442626953 stress="-0.0003407601616345346 -1.3247542618444186e-08 7.029832715943485e-09 -1.3247542618444186e-08 -0.0003406760224606842 1.3694366529648505e-08 7.029832715943485e-09 1.3694366529648505e-08 -0.0003407502081245184" pbc="T T T"
Hg       1.55690871       1.10090142       2.69664442       0.00000027       0.00000113      -0.00000033
Hg       4.67072519       3.30270185       8.08993361      -0.00000015       0.00000023      -0.00000045
Co       0.00000012      -0.00000003      -0.00000005       0.00000106      -0.00000415       0.00000096
O        1.46811570       1.03811504       5.39328900       0.00473136       0.00334322      -0.00000068
O        4.75951739       3.36548780       5.39328909      -0.00473011      -0.00334483       0.00000083
O        3.93666743       1.03811453       3.96807038      -0.00236544       0.00334507       0.00409925
O        2.29096598       3.36548725       6.81850766       0.00236416      -0.00334251      -0.00409406
O        2.29096648       3.36548722       3.96807037       0.00236398      -0.00334334       0.00409287
O        3.93666685       1.03811496       6.81850801      -0.00236550       0.00334519      -0.00409853
