9
Lattice="4.771073530662233 -3.2878298007772323e-07 2.754581085538474 1.5903575484204866 4.4982117933907695 2.7545810598244707 -3.339923702980631e-09 -3.385479760637645e-08 5.5091621768618815" Properties=species:S:1:pos:R:3:forces:R:3 energy=-25.28268814086914 free_energy=-25.28268814086914 stress="0.0006777450325898826 -3.6443978501665697e-07 -6.05751822035927e-08 -3.6443978501665697e-07 0.0006780025432817638 1.0198397148997174e-07 -6.05751822035927e-08 1.0198397148997174e-07 0.0006782027776353061" pbc="T T T"
Hg       1.59035763       1.12455290       2.75458122       0.00000064      -0.00000967       0.00000156
Hg       4.77107373       3.37365845       8.26374357       0.00000170      -0.00001042       0.00000246
Cd       0.00000057      -0.00000910       0.00000171      -0.00000589       0.00013678      -0.00002527
O        1.78168497       1.25984118       5.50916253      -0.00194767      -0.00137414       0.00000010
O        4.57975119       3.23837336       5.50916217       0.00189021       0.00133920      -0.00000111
O        3.88022933       1.25984282       4.29756830       0.00097650      -0.00138041      -0.00169247
O        2.48119940       3.23837045       6.72075989      -0.00095303       0.00134899       0.00164995
O        2.48119810       3.23837237       4.29756239      -0.00094578       0.00133750      -0.00163606
O        3.88022933       1.25984330       6.72075569       0.00098327      -0.00138788       0.00170076
