9
Lattice="5.84346603065206 3.4241394145353468 1.3913000878779498 2.608153499404567 6.611452903386739 1.8978440772544185 0.5589134274936289 0.10366445127513305 2.242244904812133" Properties=species:S:1:pos:R:3:forces:R:3 energy=-49937752.0 free_energy=-49937752.0 stress="-1136027.0 -1668117.875 822136.9375 -1668117.875 -794224.4375 -169957.765625 822136.9375 -169957.765625 -26128.720703125" pbc="T T T"
Hg       1.74018951       0.96567205       1.52028245 36160380.00000000 -5242812.00000000 -24471956.00000000
Hg       5.36165047      11.30750188       5.06902089 -851362.06250000 -2207885.00000000 -609346.00000000
C        0.69198779       0.90367328       0.44234600 -11428624.00000000 -72690128.00000000 47252388.00000000
S        1.61668695       2.33250022       2.65099807 47562680.00000000 50771216.00000000 -53628792.00000000
S        8.69491084      11.36601452       3.85233219 -72063168.00000000 -88286656.00000000 -71751480.00000000
S        6.77568415       5.23238570       2.26238032 -33462132.00000000 -21654308.00000000 -32226952.00000000
S        4.63447916       7.86022403       4.19363364  712304.00000000 28894538.00000000 -136847904.00000000
S        3.43303188       7.12160479       2.61661790 -81634752.00000000 9360668.00000000 4460079.00000000
S        7.03531622       5.01689096       2.73441758 115004664.00000000 101055360.00000000 267824000.00000000
