9
Lattice="4.375301874828784 -1.1019971534329486e-07 2.5260821264973945 1.4584338155763454 4.125074315921128 2.5260821937055016 -1.9391534352195285e-07 -5.4806025864845586e-08 5.052164588866009" Properties=species:S:1:pos:R:3:forces:R:3 energy=-34.851905822753906 free_energy=-34.851905822753906 stress="-0.0001121778623200953 8.034442799953467e-08 7.393605017114169e-08 8.034442799953467e-08 -0.00011217622522963211 1.432598253359174e-07 7.393605017114169e-08 1.432598253359174e-07 -0.00011229966912651435" pbc="T T T"
Hg       1.45843372       1.03126852       2.52608184       0.00000028      -0.00000246       0.00000310
Hg       4.37530167       3.09380520       7.57824653      -0.00000104       0.00000006      -0.00000366
C       -0.00000056      -0.00000267      -0.00000696      -0.00001119      -0.00005073      -0.00011648
O        1.27966082       0.90485647       5.05216534       0.00588095       0.00416529      -0.00000272
O        4.55407526       3.22021880       5.05216510      -0.00585675      -0.00414455       0.00000346
O        3.73547161       0.90485698       3.63430221      -0.00295484       0.00418460       0.00512171
O        2.09826356       3.22021881       6.47003002       0.00291586      -0.00412464      -0.00504911
O        2.09826409       3.22021817       3.63430155       0.00294608      -0.00417256       0.00510848
O        3.73547152       0.90485628       6.47002995      -0.00291967       0.00414503      -0.00506473
