9
Lattice="6.2021192387718 3.577598077720702e-06 3.580793340718591 2.0673790538555727 5.847403040220344 3.5807888351784767 1.5173713248529696e-06 -4.445194144538931e-06 7.1615840532729305" Properties=species:S:1:pos:R:3:forces:R:3 energy=-26.985137939453125 free_energy=-26.985137939453125 stress="-0.0001321279996773228 2.3416677663590235e-07 6.749638004066583e-08 2.3416677663590235e-07 -0.0001329261576756835 2.625807553613413e-07 6.749638004066583e-08 2.625807553613413e-07 -0.0001322329480899498" pbc="T T T"
Hg       2.06737557       1.46186275       3.58078679       0.00000257       0.00002121       0.00000729
Hg       6.20211834       4.38553322      10.74238394      -0.00000813      -0.00002421      -0.00000926
Cr       0.00000984       0.00000556       0.00000331      -0.00002512      -0.00001057      -0.00001585
Te       2.18267106       1.54333629       7.16158941       0.00673851       0.00476757      -0.00000196
Te       6.08684387       4.30407531       7.16157136      -0.00675310      -0.00478978       0.00001756
Te       5.11079686       1.54334739       5.47102489      -0.00337545       0.00481881       0.00584545
Te       3.15868548       4.30405333       8.85213319       0.00339460      -0.00480937      -0.00584550
Te       3.15869452       4.30406453       5.47102628       0.00338123      -0.00481083       0.00585602
Te       5.11080194       1.54333256       8.85213800      -0.00335514       0.00483718      -0.00585381
