9
Lattice="5.633417364348235 8.848362087449681e-08 3.252455125572342 1.8778058028531748 5.31123721866264 3.252455244540054 -4.5969625287308755e-08 1.131995998582952e-07 6.504910330766491" Properties=species:S:1:pos:R:3:forces:R:3 energy=-29.591354370117188 free_energy=-29.591354370117188 stress="0.0002940820704679936 -2.418738098697304e-08 1.770292579195143e-09 -2.418738098697304e-08 0.0002940370177384466 5.112111622906923e-09 1.770292579195143e-09 5.112111622906923e-09 0.0002940802660305053" pbc="T T T"
Hg       1.87780571       1.32780925       3.25245513       0.00000009       0.00000061       0.00000056
Hg       5.63341741       3.98342801       9.75736577      -0.00000074       0.00000047      -0.00000003
Cr       0.00000043      -0.00000016      -0.00000097      -0.00000084       0.00000070       0.00000083
Se       2.01410813       1.42418996       6.50491134       0.00031304       0.00022019       0.00000034
Se       5.49711507       3.88704784       6.50491096      -0.00031108      -0.00022165       0.00000069
Se       4.62636351       1.42418935       4.99672328      -0.00015582       0.00022002       0.00026746
Se       2.88486046       3.88704755       8.01309600       0.00015617      -0.00021836      -0.00026903
Se       2.88485919       3.88704789       4.99672436       0.00015530      -0.00022130       0.00026872
Se       4.62636254       1.42418995       8.01309688      -0.00015614       0.00021931      -0.00026944
