9
Lattice="4.799846805634174 -1.1506677083768585e-07 2.771192680054945 1.5999487947421451 4.525338996404626 2.771192735451502 -5.187847744833916e-08 3.116302978446616e-08 5.542385449966038" Properties=species:S:1:pos:R:3:forces:R:3 energy=-37.6812629699707 free_energy=-37.6812629699707 stress="3.857318006339483e-05 9.625776620225679e-09 -5.10403408426896e-09 9.625776620225679e-09 3.874880712828599e-05 3.245356339220962e-08 -5.10403408426896e-09 3.245356339220962e-08 3.8692858652211726e-05" pbc="T T T"
Hg       1.59994932       1.13133462       2.77119252       0.00000066       0.00000127      -0.00000085
Hg       4.79984641       3.39400391       8.31357911       0.00000084      -0.00000182       0.00000408
Cr       0.00000004       0.00000048      -0.00000046       0.00000084      -0.00000155       0.00000089
O        1.53295602       1.08396378       5.54238580      -0.00194848      -0.00137943      -0.00000098
O        4.86683957       3.44137522       5.54238523       0.00195110       0.00138062      -0.00000231
O        4.03336900       1.08396419       4.09877206       0.00097713      -0.00137991      -0.00169146
O        2.36642683       3.44137448       6.98599864      -0.00098002       0.00138277       0.00169474
O        2.36642669       3.44137489       4.09877188      -0.00097758       0.00138074      -0.00169587
O        4.03336820       1.08396388       6.98599891       0.00097543      -0.00138229       0.00169122
