9
Lattice="5.4214028606351325 2.0174240564385557e-07 3.130048702545882 1.807134320819764 5.1113483377355 3.1300489732015353 -5.6705508672182074e-08 2.91387298645762e-07 6.260097503308706" Properties=species:S:1:pos:R:3:forces:R:3 energy=-29.29408836364746 free_energy=-29.29408836364746 stress="-7.715944775554817e-06 9.706289993971495e-09 2.1406938444101797e-08 9.706289993971495e-09 -7.737725354672875e-06 -2.3695086781572172e-08 2.1406938444101797e-08 -2.3695086781572172e-08 -7.726177500444464e-06" pbc="T T T"
Hg       1.80713434       1.27783708       3.13004904       0.00000032       0.00000010      -0.00000039
Hg       5.42140272       3.83351205       9.39014649      -0.00000024      -0.00000042      -0.00000022
Co      -0.00000027      -0.00000007      -0.00000010       0.00000065       0.00000124      -0.00000044
S        1.77763377       1.25697767       6.26009780       0.00051808       0.00036803       0.00000108
S        5.45090302       3.85437088       6.26009728      -0.00051793      -0.00036515      -0.00000031
S        4.53258596       1.25697725       4.66952519      -0.00026068       0.00036606       0.00044775
S        2.69595151       3.85437179       7.85067045       0.00025980      -0.00036652      -0.00044879
S        2.69595147       3.85437123       4.66952511       0.00025900      -0.00036746       0.00044858
S        4.53258595       1.25697756       7.85066941      -0.00025876       0.00036429      -0.00044695
