9
Lattice="6.150724609094923 -2.3410564340108246e-07 3.5511219939437892 2.0502414778322064 5.7989576111735435 3.5511217130327357 9.356107617140202e-08 -2.778868259283851e-07 7.102243825834972" Properties=species:S:1:pos:R:3:forces:R:3 energy=-25.330598831176758 free_energy=-25.330598831176758 stress="1.582132972544059e-05 1.4604101927773172e-08 1.4360512778921475e-08 1.4604101927773172e-08 1.5839423213037662e-05 -1.4307581785999446e-08 1.4360512778921475e-08 -1.4307581785999446e-08 1.5824158253963105e-05" pbc="T T T"
Hg       2.05024176       1.44973921       3.55112165      -0.00000004       0.00000065       0.00000038
Hg       6.15072479       4.34921802      10.65336544      -0.00000046      -0.00000002      -0.00000047
Co      -0.00000026       0.00000089      -0.00000106       0.00000262      -0.00001233       0.00000035
Te       1.98955999       1.40682962       7.10224444       0.00026987       0.00018985       0.00000020
Te       6.21140634       4.39212623       7.10224407      -0.00026594      -0.00018814       0.00000035
Te       5.15594511       1.40682947       5.27413007      -0.00013702       0.00019404       0.00023566
Te       3.04502131       4.39212663       8.93035727       0.00013471      -0.00018991      -0.00023265
Te       3.04502168       4.39212758       5.27413112       0.00013149      -0.00018512       0.00022914
Te       5.15594397       1.40683086       8.93035707      -0.00013522       0.00019101      -0.00023294
