9
Lattice="4.799740268926661 1.7737292363952465e-09 2.7711313904626405 1.5999134927712584 4.525238122968709 2.7711312724694075 6.067920338270089e-08 -1.0160494733621464e-07 5.542262675825813" Properties=species:S:1:pos:R:3:forces:R:3 energy=-37.681270599365234 free_energy=-37.681270599365234 stress="8.914573612628374e-08 3.0041899634625224e-08 1.7450629385962202e-08 3.0041899634625224e-08 1.3825035694026155e-07 1.1554593726259554e-08 1.7450629385962202e-08 1.1554593726259554e-08 2.7828788162764795e-08" pbc="T T T"
Hg       1.59991331       1.13131009       2.77113119       0.00000116       0.00000102      -0.00000042
Hg       4.79974072       3.39392775       8.31339395       0.00000085      -0.00000237      -0.00000095
Cr       0.00000030      -0.00000021       0.00000030      -0.00000024      -0.00000140      -0.00000319
O        1.53292273       1.08393995       5.54226256      -0.00128937      -0.00091058      -0.00000258
O        4.86673129       3.44129851       5.54226255       0.00128675       0.00090909      -0.00000181
O        4.03327937       1.08393969       4.09868042       0.00064233      -0.00090325      -0.00111055
O        2.36637476       3.44129807       6.98584477      -0.00064445       0.00091136       0.00111485
O        2.36637413       3.44129861       4.09868087      -0.00064287       0.00090528      -0.00110841
O        4.03327896       1.08393987       6.98584470       0.00064531      -0.00090975       0.00111377
