9
Lattice="5.644061173532565 -1.7263209618709596e-07 3.2586001902511224 1.8813535695649777 5.321271880819453 3.258600176718191 -5.0424360558316595e-09 -2.0139939539308502e-08 6.517200389235996" Properties=species:S:1:pos:R:3:forces:R:3 energy=-29.590660095214844 free_energy=-29.590660095214844 stress="0.0004561961686704308 6.427010923459875e-09 1.940775762321323e-09 6.427010923459875e-09 0.0004562014655675739 1.3653800312596331e-09 1.940775762321323e-09 1.3653800312596331e-09 0.00045624934136867523" pbc="T T T"
Hg       1.88135377       1.33031794       3.25860021      -0.00000018      -0.00000026      -0.00000007
Hg       5.64406099       3.99095374       9.77580045      -0.00000162      -0.00000106       0.00000048
Cr       0.00000035       0.00000015       0.00000025      -0.00000031       0.00000055      -0.00000267
Se       2.01019985       1.42142619       6.51720071       0.00677234       0.00478946       0.00000225
Se       5.51521588       3.89984606       6.51720047      -0.00677276      -0.00478882       0.00000096
Se       4.63896086       1.42142528       4.99948410      -0.00338616       0.00478944       0.00586423
Se       2.88645337       3.89984612       8.03491638       0.00338629      -0.00478873      -0.00586491
Se       2.88645302       3.89984589       4.99948408       0.00338751      -0.00478835       0.00586405
Se       4.63896087       1.42142539       8.03491637      -0.00338515       0.00478777      -0.00586422
