9
Lattice="5.421623682180373 -1.551796584090238e-06 3.130174283640676 1.8072072052190649 5.111550383595913 3.130172942674806 8.542776366519675e-09 -1.636300466974049e-06 6.260348552484732" Properties=species:S:1:pos:R:3:forces:R:3 energy=-29.294084548950195 free_energy=-29.294084548950195 stress="-4.342788815847598e-05 1.0060436750336521e-07 -4.4731631732020105e-08 1.0060436750336521e-07 -4.3373944208724424e-05 2.6272939379623494e-08 -4.4731631732020105e-08 2.6272939379623494e-08 -4.3333664507372305e-05" pbc="T T T"
Hg       1.80721088       1.27789060       3.13017530       0.00000032      -0.00000548       0.00000047
Hg       5.42162271       3.83366065       9.39052557      -0.00000145       0.00000394      -0.00000257
Co       0.00000040       0.00000138      -0.00000117      -0.00000396      -0.00001369       0.00000015
S        1.77748821       1.25687041       6.26034806       0.00269225       0.00190273      -0.00000039
S        5.45134322       3.85467367       6.26034835      -0.00269094      -0.00189947       0.00000309
S        4.53287957       1.25686985       4.66952137      -0.00134632       0.00190659       0.00233567
S        2.69594905       3.85467443       7.85117116       0.00134453      -0.00189874      -0.00233656
S        2.69594995       3.85467639       4.66951937       0.00134927      -0.00190149       0.00233504
S        4.53287967       1.25686938       7.85117336      -0.00134367       0.00190555      -0.00233459
