9
Lattice="6.82932166441415 -3.913639897551447e-07 3.9429106342168025 2.276440215050581 6.43874600169578 3.9429105835934717 4.653661433192861e-08 -2.90943181390349e-08 7.885821187829813" Properties=species:S:1:pos:R:3:forces:R:3 energy=-21.077402114868164 free_energy=-21.077402114868164 stress="-2.5307313990197144e-05 2.2974134594733187e-08 -4.8721457979183924e-09 2.2974134594733187e-08 -2.530135134293232e-05 -1.2945977623246563e-09 -4.8721457979183924e-09 -1.2945977623246563e-09 -2.5259570975322276e-05" pbc="T T T"
Hg       2.27644030       1.60968636       3.94291062       0.00000018      -0.00000000      -0.00000001
Hg       6.82932160       4.82905923      11.82873161      -0.00000001       0.00000004       0.00000009
Ca       0.00000005      -0.00000010      -0.00000045      -0.00000059      -0.00000004       0.00000087
Te       2.65188311       1.87516481       7.88582128      -0.00026265      -0.00018479       0.00000004
Te       6.45387852       4.56358039       7.88582151       0.00026328       0.00018574      -0.00000021
Te       5.50338040       1.87516414       6.23950967       0.00013208      -0.00018639      -0.00022715
Te       3.60238167       4.56358186       9.53213303      -0.00013205       0.00018602       0.00022643
Te       3.60238151       4.56358153       6.23950939      -0.00013230       0.00018600      -0.00022703
Te       5.50338053       1.87516410       9.53213292       0.00013206      -0.00018657       0.00022698
