9
Lattice="5.379663508776312 5.21701039762255e-08 3.105949658820341 1.793221231337839 5.071995078345857 3.1059496370670474 7.630299310003469e-08 2.7312064763529852e-08 6.21189918548012" Properties=species:S:1:pos:R:3:forces:R:3 energy=-31.62496566772461 free_energy=-31.62496566772461 stress="-0.00013481189671438187 1.4003888715308221e-08 -1.184692677291821e-09 1.4003888715308221e-08 -0.00013481771748047322 -5.479237508154711e-09 -1.184692677291821e-09 -5.479237508154711e-09 -0.00013478788605425507" pbc="T T T"
Hg       1.79322098       1.26799906       3.10594937       0.00000006       0.00000079      -0.00000092
Hg       5.37966351       3.80399633       9.31784846      -0.00000072       0.00000087       0.00000057
Cr       0.00000012      -0.00000011       0.00000006      -0.00000066      -0.00000240      -0.00000066
S        1.83548841       1.29788608       6.21189925       0.00117064       0.00082576       0.00000142
S        5.33739625       3.77410911       6.21189937      -0.00116763      -0.00082538      -0.00000117
S        4.46191979       1.29788604       4.69552863      -0.00058427       0.00082755       0.00101450
S        2.71096541       3.77410925       7.72826973       0.00058413      -0.00082664      -0.00101143
S        2.71096510       3.77410900       4.69552909       0.00058432      -0.00082716       0.00101173
S        4.46191979       1.29788603       7.72826989      -0.00058566       0.00082672      -0.00101376
