9
Lattice="6.564122414139262 -3.5671232695996664e-06 3.7898007650899475 2.1880379585454617 6.188716742392041 3.789799869708194 -1.3567229470573574e-07 -1.1925495585386234e-06 7.579601765172435" Properties=species:S:1:pos:R:3:forces:R:3 energy=-27.299421310424805 free_energy=-27.299421310424805 stress="0.00014349012053571641 -1.3808211178911733e-06 2.512720982394967e-07 -1.3808211178911733e-06 0.00014425694826059043 -2.3048870900765905e-07 2.512720982394967e-07 -2.3048870900765905e-07 0.00014537927927449346" pbc="T T T"
Hg       2.18803958       1.54717750       3.78980044       0.00000053      -0.00000070      -0.00000098
Hg       6.56411947       4.64153408      11.36940122       0.00000017       0.00000104       0.00000098
Fe      -0.00000419      -0.00001184       0.00000398       0.00010729       0.00031441      -0.00011069
Te       1.92037631       1.35791278       7.57959942      -0.00836394      -0.00591134      -0.00000220
Te       6.83179112       4.83080438       7.57960182       0.00815430       0.00575905       0.00000252
Te       5.60392985       1.35791695       5.45290530       0.00421035      -0.00595594      -0.00729147
Te       3.14823215       4.83079693       9.70630023      -0.00418754       0.00591721       0.00725589
Te       3.14822886       4.83079590       5.45290309      -0.00418103       0.00589826      -0.00723234
Te       5.60392771       1.35792111       9.70629427       0.00425983      -0.00602197       0.00737828
