9
Lattice="5.820368229234986 -1.2811883923011665e-07 3.3603915432099907 1.940122413988544 5.487496463648403 3.3603919039931465 -1.2580586886579474e-08 4.3297152384516213e-07 6.720783108210211" Properties=species:S:1:pos:R:3:forces:R:3 energy=-29.54790687561035 free_energy=-29.54790687561035 stress="-2.0084988136659376e-05 -3.575913751774351e-07 -1.065712922354578e-07 -3.575913751774351e-07 -1.9845576389343478e-05 1.438928620700608e-07 -1.065712922354578e-07 1.438928620700608e-07 -1.9621404135250486e-05" pbc="T T T"
Hg       1.94012262       1.37187419       3.36039174      -0.00000037      -0.00000048      -0.00000056
Hg       5.82036784       4.11562246      10.08117492      -0.00000129       0.00000027      -0.00000075
Fe      -0.00000328      -0.00000062      -0.00000224       0.00009866       0.00001904       0.00006065
Se       1.85513771       1.31178180       6.72078339       0.00070396       0.00049758      -0.00000036
Se       5.90535579       4.17571752       6.72078356      -0.00077736      -0.00054832      -0.00000107
Se       4.89279847       1.31178164       4.96698981      -0.00034890       0.00049260       0.00060296
Se       2.86769177       4.17571501       8.47457695       0.00035326      -0.00049976      -0.00061274
Se       2.86769186       4.17571469       4.96698997       0.00034510      -0.00048710       0.00059670
Se       4.89279964       1.31178056       8.47457841      -0.00037296       0.00052623      -0.00064486
