9
Lattice="5.552446255485133 3.578450674487448e-07 3.205706395256065 1.850815694226846 5.234897142434506 3.205706502033148 1.1600160608552376e-07 2.1280027027222588e-07 6.411412589591478" Properties=species:S:1:pos:R:3:forces:R:3 energy=-30.985807418823242 free_energy=-30.985807418823242 stress="-5.280016466713278e-06 5.110727485657662e-08 -1.7538951624374022e-08 5.110727485657662e-08 -5.320184300217079e-06 -3.7061518298742158e-09 -1.7538951624374022e-08 -3.7061518298742158e-09 -5.369012342271162e-06" pbc="T T T"
Hg       1.85081593       1.30872470       3.20570649       0.00000001       0.00000100       0.00000029
Hg       5.55244620       3.92617357       9.61711970       0.00000033      -0.00000074       0.00000054
Fe       0.00000029       0.00000024       0.00000026      -0.00000865      -0.00000678      -0.00000293
S        1.77168238       1.25276886       6.41141247       0.00054866       0.00039023       0.00000055
S        5.63157938       3.98212877       6.41141307      -0.00053966      -0.00038233       0.00000023
S        4.66660546       1.25276853       4.74002817      -0.00027439       0.00038984       0.00047773
S        2.73665736       3.98212902       8.08279711       0.00027388      -0.00038865      -0.00047606
S        2.73665679       3.98212824       4.74002808       0.00027573      -0.00039077       0.00047529
S        4.66660481       1.25276872       8.08279658      -0.00027558       0.00038800      -0.00047547
