9
Lattice="6.5810379406932205 1.0789152967549343e-08 3.799563910866468 2.1936793216344044 6.204661955567023 3.7995639145074764 -8.345917568003733e-09 -1.4421835001037456e-09 7.599127836188487" Properties=species:S:1:pos:R:3:forces:R:3 energy=-27.2993221282959 free_energy=-27.2993221282959 stress="8.665706991450861e-05 2.1318866672004333e-08 1.3020906131089305e-08 2.1318866672004333e-08 8.665056520840153e-05 -1.5793272467590214e-08 1.3020906131089305e-08 -1.5793272467590214e-08 8.6650499724783e-05" pbc="T T T"
Hg       2.19367927       1.55116546       3.79956381      -0.00000007       0.00000006       0.00000003
Hg       6.58103789       4.65349653      11.39869181      -0.00000008       0.00000002       0.00000017
Fe      -0.00000005      -0.00000006      -0.00000000       0.00000038      -0.00000047       0.00000870
Te       1.91928902       1.35714221       7.59912779       0.00184627       0.00130552      -0.00000000
Te       6.85542833       4.84751984       7.59912763      -0.00184690      -0.00130568      -0.00000014
Te       5.62139331       1.35714231       5.46171688      -0.00092386       0.00130670       0.00159919
Te       3.15332388       4.84751970       9.73653898       0.00092635      -0.00130957      -0.00160386
Te       3.15332404       4.84751963       5.46171693       0.00092289      -0.00130480       0.00159758
Te       5.62139333       1.35714224       9.73653884      -0.00092498       0.00130824      -0.00160168
