9
Lattice="4.670703735858166 -3.644559339396449e-08 2.696631990917683 1.556901239429551 4.403581511169606 2.6966319415460247 1.2616304335442626e-08 -5.1546614817414793e-08 5.393263959983276" Properties=species:S:1:pos:R:3:forces:R:3 energy=-34.73767852783203 free_energy=-34.73767852783203 stress="6.139960169093683e-05 3.548170113276683e-08 2.4532528897225347e-08 3.548170113276683e-08 6.145045335870236e-05 -6.07493362281275e-08 2.4532528897225347e-08 -6.07493362281275e-08 6.146621308289468e-05" pbc="T T T"
Hg       1.55690113       1.10089574       2.69663201       0.00000045       0.00000034      -0.00000127
Hg       4.67070373       3.30268614       8.08989494      -0.00000046       0.00000037      -0.00000106
Fe       0.00000046      -0.00000010      -0.00000063      -0.00000776       0.00000108       0.00001575
O        1.49564593       1.05758112       5.39326376      -0.00193959      -0.00137101       0.00000017
O        4.73195887       3.34599989       5.39326417       0.00194371       0.00137348       0.00000022
O        3.92288058       1.05758136       3.99189922       0.00097194      -0.00137274      -0.00168169
O        2.30472428       3.34600038       6.79462957      -0.00096621       0.00136538       0.00167072
O        2.30472412       3.34599996       3.99189939      -0.00097167       0.00137399      -0.00168121
O        3.92288077       1.05758124       6.79462911       0.00096957      -0.00137082       0.00167754
