9
Lattice="5.552206490720541 1.0422218959245854e-06 3.2055695703305425 1.8507358307733952 5.234675362328615 3.205570693998016 -5.116237287360023e-07 1.0144334418332842e-06 6.411140026819469" Properties=species:S:1:pos:R:3:forces:R:3 energy=-30.985803604125977 free_energy=-30.985803604125977 stress="-6.518864393001422e-05 -1.5434178379791774e-08 4.209940485111474e-08 -1.5434178379791774e-08 -6.521837349282578e-05 -5.6425566441475894e-08 4.209940485111474e-08 -5.6425566441475894e-08 -6.526823563035578e-05" pbc="T T T"
Hg       1.85073708       1.30866808       3.20557085      -0.00000143       0.00000017      -0.00000095
Hg       5.55220451       3.92600820       9.61670958       0.00000090       0.00000077       0.00000022
Fe      -0.00000024       0.00000106       0.00000008       0.00000703      -0.00000685      -0.00000247
S        1.77160279       1.25271256       6.41113942       0.00193870       0.00136948       0.00000059
S        5.63134127       3.98196308       6.41114031      -0.00194120      -0.00137216       0.00000025
S        4.66640535       1.25271444       4.73982076      -0.00096992       0.00137410       0.00168121
S        2.73653591       3.98196394       8.08245826       0.00096691      -0.00136882      -0.00168049
S        2.73653644       3.98196323       4.73982279       0.00096843      -0.00136638       0.00168157
S        4.66640482       1.25271511       8.08245797      -0.00096977       0.00136989      -0.00168002
