9
Lattice="5.804467812748997 -3.3087808757254545e-08 3.351210724412353 1.9348226258787917 5.472504135628095 3.3512106329172746 1.545362264532981e-07 -2.784444392240594e-09 6.7024211811598695" Properties=species:S:1:pos:R:3:forces:R:3 energy=-24.753421783447266 free_energy=-24.753421783447266 stress="-5.952828360022977e-05 1.5628375038545528e-08 -2.9816323632303465e-08 1.5628375038545528e-08 -5.9493926528375596e-05 -1.3063204740149104e-08 -2.9816323632303465e-08 -1.3063204740149104e-08 -5.9559199144132435e-05" pbc="T T T"
Hg       1.93482250       1.36812591       3.35121065      -0.00000159      -0.00000035      -0.00000081
Hg       5.80446795       4.10437834      10.05363148      -0.00000085       0.00000037       0.00000017
Ge      -0.00000020      -0.00000010       0.00000024       0.00000029       0.00000008      -0.00000073
Se       2.29934572       1.62588270       6.70242038       0.00153071       0.00108083      -0.00000115
Se       5.43994544       3.84662132       6.70242117      -0.00152901      -0.00108296      -0.00000117
Se       4.65479498       1.62588221       5.34250179      -0.00076586       0.00108118       0.00132704
Se       3.08449558       3.84662126       8.06234107       0.00076599      -0.00108166      -0.00132400
Se       3.08449531       3.84662186       5.34250173       0.00076531      -0.00108083       0.00132552
Se       4.65479523       1.62588287       8.06234165      -0.00076495       0.00108325      -0.00132477
