9
Lattice="6.386571742409764 -2.1263659315634834e-06 3.687292192588371 2.1288549392069953 6.021319844900799 3.6872927182761925 -7.427663649724955e-07 1.1861835731691721e-07 7.374585671686336" Properties=species:S:1:pos:R:3:forces:R:3 energy=-21.574726104736328 free_energy=-21.574726104736328 stress="2.895205579989124e-05 1.6812163039503503e-07 1.9658605765471293e-07 1.6812163039503503e-07 2.9038603315711953e-05 1.8191258277511224e-07 1.9658605765471293e-07 1.8191258277511224e-07 2.9439717764034867e-05" pbc="T T T"
Hg       2.12884965       1.50532363       3.68728916       0.00000789       0.00000121       0.00000152
Hg       6.38657557       4.51599333      11.06189281      -0.00000352      -0.00000391      -0.00000882
Ge       0.00000739      -0.00000867      -0.00001175       0.00000356       0.00000308      -0.00000054
Te       2.38520094       1.68659751       7.37458538       0.00331137       0.00234286      -0.00000454
Te       6.13021802       4.33471980       7.37457515      -0.00331458      -0.00234669      -0.00000862
Te       5.19396814       1.68659723       5.75295863      -0.00166130       0.00234295       0.00288500
Te       3.32144798       4.33472531       8.99622842       0.00164522      -0.00234078      -0.00285405
Te       3.32146164       4.33472888       5.75294431       0.00166018      -0.00233996       0.00286211
Te       5.19397332       1.68659273       8.99622062      -0.00164879       0.00234126      -0.00287203
