9
Lattice="4.672817198883297 -3.355317601302388e-07 2.6978520088281326 1.5576054918551063 4.405573914503364 2.697851878514844 -1.6016677323851008e-07 -2.7285551111103595e-07 5.395704295073213" Properties=species:S:1:pos:R:3:forces:R:3 energy=-34.23822021484375 free_energy=-34.23822021484375 stress="-0.0004615776415448636 -1.306878427698166e-08 -3.420431227141307e-08 -1.306878427698166e-08 -0.0004615613433998078 -1.6661818591501287e-08 -3.420431227141307e-08 -1.6661818591501287e-08 -0.0004615270590875298" pbc="T T T"
Hg       1.55760577       1.10139286       2.69785191      -0.00000034      -0.00000108      -0.00000099
Hg       4.67281697       3.30418021       8.09355575      -0.00000095       0.00000023      -0.00000172
Ge      -0.00000056       0.00000007      -0.00000031       0.00000765      -0.00000072       0.00000473
O        1.56542392       1.10692158       5.39570425       0.00844073       0.00596690       0.00000164
O        4.66499903       3.29865231       5.39570422      -0.00844598      -0.00597358      -0.00000047
O        3.89010498       1.10692125       4.05354873      -0.00422066       0.00597191       0.00731409
O        2.34031745       3.29865197       6.73785913       0.00422150      -0.00596976      -0.00731087
O        2.34031691       3.29865215       4.05354904       0.00422126      -0.00596797       0.00730991
O        3.89010538       1.10692115       6.73786006      -0.00422323       0.00597453      -0.00731540
