9
Lattice="5.803802474848622 -9.198119539494248e-08 3.3508274481797065 1.9346008344408914 5.471877490608284 3.350827281535547 1.128958223011991e-07 -1.2426711604966965e-07 6.701654700818071" Properties=species:S:1:pos:R:3:forces:R:3 energy=-24.75339698791504 free_energy=-24.75339698791504 stress="4.2356172343716025e-05 -1.559466511480423e-08 -2.0971562264548993e-09 -1.559466511480423e-08 4.2362622480141e-05 -4.83293760566994e-09 -2.0971562264548993e-09 -4.83293760566994e-09 4.239118788973428e-05" pbc="T T T"
Hg       1.93460114       1.36796972       3.35082747       0.00000005      -0.00000064      -0.00000091
Hg       5.80380232       4.10390785      10.05248202      -0.00000098      -0.00000091       0.00000104
Ge       0.00000072      -0.00000035       0.00000147      -0.00000232       0.00000036      -0.00000528
Se       2.29858858       1.62534701       6.70165510       0.00833607       0.00589536       0.00000014
Se       5.43981490       3.84652932       6.70165496      -0.00833580      -0.00589372       0.00000014
Se       4.65450718       1.62534786       5.34146379      -0.00416844       0.00589526       0.00721779
Se       3.08389533       3.84652899       8.06184457       0.00416712      -0.00589317      -0.00721893
Se       3.08389526       3.84653013       5.34146414       0.00416993      -0.00589496       0.00722130
Se       4.65450819       1.62534825       8.06184413      -0.00416568       0.00589243      -0.00721548
