9
Lattice="4.673548179808798 1.0648327365735077e-07 2.698274442604661 1.5578495408184856 4.406263555878498 2.6982743609289406 8.0800008854857e-08 -4.2897748838780435e-08 5.396548745259527" Properties=species:S:1:pos:R:3:forces:R:3 energy=-34.23823547363281 free_energy=-34.23823547363281 stress="-2.2466621885541826e-05 -3.2295645269186934e-08 6.328713553216403e-09 -3.2295645269186934e-08 -2.245392715849448e-05 -3.406817583595512e-08 6.328713553216403e-09 -3.406817583595512e-08 -2.2309333871817216e-05" pbc="T T T"
Hg       1.55784896       1.10156564       2.69827421      -0.00000120      -0.00000020      -0.00000061
Hg       4.67354814       3.30469754       8.09482336      -0.00000184      -0.00000082      -0.00000056
Ge      -0.00000039      -0.00000011      -0.00000038       0.00000751       0.00000152       0.00000753
O        1.56597085       1.10730895       5.39654867       0.00005412       0.00003779       0.00000039
O        4.66542702       3.29895549       5.39654845      -0.00006092      -0.00004184      -0.00000177
O        3.89056307       1.10730865       4.05444479      -0.00002730       0.00003874       0.00005019
O        2.34083529       3.29895458       6.73865327       0.00003004      -0.00004053      -0.00004971
O        2.34083516       3.29895470       4.05444488       0.00002778      -0.00003636       0.00004673
O        3.89056329       1.10730910       6.73865286      -0.00002784       0.00004160      -0.00005233
