9
Lattice="6.385124422493255 -3.6058653536668703e-07 3.6864535100127083 2.1283744648203844 6.019953510275897 3.686453514711841 -1.0358294505570541e-07 -6.748885392784896e-08 7.372907199436347" Properties=species:S:1:pos:R:3:forces:R:3 energy=-21.57472801208496 free_energy=-21.57472801208496 stress="-0.00012080120359314606 -3.863344488763687e-08 2.1704940067479583e-08 -3.863344488763687e-08 -0.00012078377767466009 1.70061191795412e-08 2.1704940067479583e-08 1.70061191795412e-08 -0.00012081378372386098" pbc="T T T"
Hg       2.12837470       1.50498831       3.68645335      -0.00000058      -0.00000041      -0.00000055
Hg       6.38512401       4.51496440      11.05936060       0.00000007       0.00000065      -0.00000104
Ge      -0.00000050      -0.00000040      -0.00000308       0.00000027      -0.00000017      -0.00000103
Te       2.38527162       1.68664229       7.37290709      -0.00021143      -0.00014994      -0.00000064
Te       6.12822796       4.33331141       7.37290645       0.00021330       0.00015125      -0.00000167
Te       5.19248662       1.68664393       5.75216088       0.00010341      -0.00014797      -0.00018221
Te       3.32100999       4.33331106       8.99365506      -0.00010733       0.00015104       0.00018464
Te       3.32101254       4.33330979       5.75216104      -0.00010375       0.00014749      -0.00018209
Te       5.19248802       1.68664147       8.99365550       0.00010602      -0.00015190       0.00018461
