9
Lattice="5.603092075665079 3.1935409166608233e-07 3.2349460431324335 1.8676975577780943 5.282645945553353 3.2349462195709653 -1.7224101336374886e-07 9.429939946881535e-08 6.469892384594856" Properties=species:S:1:pos:R:3:forces:R:3 energy=-25.00336456298828 free_energy=-25.00336456298828 stress="-0.00027879816479980946 6.803473695526918e-08 -1.7547971964404496e-08 6.803473695526918e-08 -0.0002788676356431097 4.240822804035815e-09 -1.7547971964404496e-08 4.240822804035815e-09 -0.00027876978856511414" pbc="T T T"
Hg       1.86769672       1.32066122       3.23494602      -0.00000086      -0.00000018       0.00000001
Hg       5.60309234       3.96198505       9.70483846      -0.00000036      -0.00000015       0.00000062
Ge      -0.00000032      -0.00000003      -0.00000060       0.00000066      -0.00000028       0.00001467
S        1.90190482       1.34484957       6.46989252      -0.00283408      -0.00200450       0.00000172
S        5.56888471       3.93779674       6.46989192       0.00283456       0.00200453       0.00000164
S        4.65213979       1.34484998       4.88204389       0.00141853      -0.00200504      -0.00245702
S        2.81864923       3.93779733       8.05774104      -0.00141317       0.00199828       0.00244832
S        2.81864975       3.93779644       4.88204398      -0.00141859       0.00200403      -0.00245625
S        4.65214075       1.34484900       8.05774139       0.00141302      -0.00199673       0.00244582
