9
Lattice="5.766936318179425 2.4884986592992566e-08 3.329542369251403 1.922312213631309 5.437119846815468 3.329542223569076 1.6644083822626166e-07 -6.073222548206225e-08 6.659084450219017" Properties=species:S:1:pos:R:3:forces:R:3 energy=-31.26302719116211 free_energy=-31.26302719116211 stress="1.9863020497723483e-05 1.089639711793211e-09 -2.5656765600956533e-08 1.089639711793211e-09 1.9842113033519126e-05 -2.0369004261056034e-08 -2.5656765600956533e-08 -2.0369004261056034e-08 1.9812516256934032e-05" pbc="T T T"
Hg       1.92231217       1.35927966       3.32954257      -0.00000049      -0.00000037      -0.00000069
Hg       5.76693612       4.07783997       9.98862672       0.00000244       0.00000125       0.00000160
Hf      -0.00000094      -0.00000013      -0.00000102       0.00000670      -0.00000031       0.00000713
Se       2.14033864       1.51344734       6.65908412      -0.00014280      -0.00010114      -0.00000317
Se       5.54891071       3.92367190       6.65908511       0.00014010       0.00009763      -0.00000098
Se       4.69676748       1.51344800       5.18312948       0.00006834      -0.00009901      -0.00012378
Se       2.99248156       3.92367189       8.13503995      -0.00007329       0.00009790       0.00012006
Se       2.99248162       3.92367233       5.18312937      -0.00006951       0.00010118      -0.00012161
Se       4.69676744       1.51344840       8.13503983       0.00006844      -0.00009714       0.00012145
