9
Lattice="6.510391661518219 3.921350563663657e-07 3.7587763796273994 2.1701307256254334 6.138056331509028 3.7587767224389537 -2.0538906260965938e-07 2.7462470946324797e-07 7.51755311499916" Properties=species:S:1:pos:R:3:forces:R:3 energy=-29.26723861694336 free_energy=-29.26723861694336 stress="9.86642626230605e-05 2.8285654707360663e-08 -2.025969969565722e-08 2.8285654707360663e-08 9.86596496659331e-05 3.1220910301499316e-08 -2.025969969565722e-08 3.1220910301499316e-08 9.866913023870438e-05" pbc="T T T"
Hg       2.17013044       1.53451400       3.75877658      -0.00000004       0.00000001       0.00000050
Hg       6.51039187       4.60354294      11.27632964       0.00000047       0.00000007       0.00000067
Hf       0.00000037       0.00000018       0.00000182      -0.00000386      -0.00000088      -0.00001153
Te       2.33931362       1.65414530       7.51755290      -0.00100863      -0.00071393       0.00000020
Te       6.34120738       4.48391135       7.51755257       0.00101334       0.00071602      -0.00000014
Te       5.34073610       1.65414410       5.78468268       0.00050237      -0.00071171      -0.00087373
Te       3.33978730       4.48391222       9.25042256      -0.00050580       0.00071442       0.00087997
Te       3.33978616       4.48391349       5.78468270      -0.00050195       0.00070862      -0.00087266
Te       5.34073555       1.65414449       9.25042346       0.00050409      -0.00071272       0.00087664
