9
Lattice="5.594963287615263 -9.389300421717613e-08 3.2302534850293205 1.8649876796580758 5.2749817809287665 3.230253475255627 -5.6242132265217276e-08 -5.1739559825784795e-08 6.4605070674730465" Properties=species:S:1:pos:R:3:forces:R:3 energy=-33.69267272949219 free_energy=-33.69267272949219 stress="-4.440668817551341e-06 -1.6040765160596493e-08 -1.2010185734823153e-08 -1.6040765160596493e-08 -4.397473730932688e-06 -6.102855554246389e-09 -1.2010185734823153e-08 -6.102855554246389e-09 -4.329519470047671e-06" pbc="T T T"
Hg       1.86498696       1.31874598       3.23025408       0.00000248       0.00000084       0.00000073
Hg       5.59496370       3.95623690       9.69075984       0.00000108       0.00000066      -0.00000194
Hf       0.00000107       0.00000003       0.00000078      -0.00000882      -0.00000042      -0.00000788
S        2.01212776       1.42278888       6.46050674       0.00028417       0.00019925       0.00000222
S        5.44782290       3.85219238       6.46050716      -0.00028075      -0.00019728       0.00000041
S        4.58889975       1.42278901       4.97280749      -0.00013981       0.00019978       0.00024272
S        2.87105135       3.85219269       7.94820659       0.00013988      -0.00019856      -0.00024336
S        2.87105107       3.85219181       4.97280696       0.00014249      -0.00020068       0.00024541
S        4.58889914       1.42278886       7.94820641      -0.00014071       0.00019645      -0.00023825
