9
Lattice="4.752088267443633 -2.0199183701175752e-07 2.7436194209298344 1.5840292635322086 4.480311703327222 2.743619366386256 -1.3225704084563082e-07 -1.6032181464219353e-07 5.487239070935534" Properties=species:S:1:pos:R:3:forces:R:3 energy=-44.13328552246094 free_energy=-44.13328552246094 stress="-5.983687879052013e-05 3.743283905066619e-09 -5.718860407455395e-08 3.743283905066619e-09 -5.987348413327709e-05 3.0239394988029744e-08 -5.718860407455395e-08 3.0239394988029744e-08 -5.984159724903293e-05" pbc="T T T"
Hg       1.58402971       1.12007805       2.74361886       0.00000155      -0.00000008      -0.00000113
Hg       4.75208752       3.36023221       8.23085838      -0.00000096      -0.00000369      -0.00000009
Hf       0.00000034      -0.00000017      -0.00000021      -0.00000404      -0.00000122       0.00000216
O        1.69226173       1.19660989       5.48723860       0.00380838       0.00269324      -0.00000054
O        4.64385475       3.28370191       5.48723880      -0.00380504      -0.00268921      -0.00000085
O        3.90595720       1.19661027       4.20916206      -0.00190037       0.00269064       0.00329590
O        2.43016049       3.28370136       6.76531641       0.00190204      -0.00269288      -0.00329429
O        2.43016065       3.28370138       4.20916157       0.00190386      -0.00269142       0.00329465
O        3.90595688       1.19661021       6.76531685      -0.00190482       0.00269425      -0.00329548
