9
Lattice="5.66798388078045 3.085854264689621e-08 3.272412017732357 1.8893280409774162 5.34382632203293 3.2724119283177626 2.9018005966117068e-08 -8.899122537319148e-08 6.544823985204115" Properties=species:S:1:pos:R:3:forces:R:3 energy=-22.015106201171875 free_energy=-22.015106201171875 stress="-2.5569088393240236e-05 2.635431606279326e-08 -1.9175681487126894e-08 2.635431606279326e-08 -2.5497100068605505e-05 -1.625293144513762e-08 -1.9175681487126894e-08 -1.625293144513762e-08 -2.5460549295530654e-05" pbc="T T T"
Hg       1.88932748       1.33595679       3.27241212      -0.00000118       0.00000033       0.00000056
Hg       5.66798413       4.00786980       9.81723589      -0.00000029       0.00000015       0.00000037
In      -0.00000043       0.00000032       0.00000037       0.00000575      -0.00000184      -0.00000434
S        2.10040495       1.48520980       6.54482420       0.00179850       0.00126827       0.00000148
S        5.45690757       3.85861567       6.54482475      -0.00179930      -0.00127588       0.00000121
S        4.61778199       1.48521102       5.09141495      -0.00089816       0.00127853       0.00155899
S        2.93953036       3.85861581       7.99823152       0.00089791      -0.00126703      -0.00155735
S        2.93952992       3.85861613       5.09141589       0.00089674      -0.00127167       0.00155956
S        4.61778184       1.48520964       7.99823209      -0.00089985       0.00126904      -0.00156038
