9
Lattice="4.834831299116582 -5.24373326884592e-08 2.791391125318078 1.611610386288034 4.55832277326156 2.7913911206630586 -2.5132093163629507e-08 -2.3472268606292412e-08 5.58278229416621" Properties=species:S:1:pos:R:3:forces:R:3 energy=-38.9337043762207 free_energy=-38.9337043762207 stress="-9.801227861316875e-05 6.927583484639399e-08 -1.2021692086250368e-08 6.927583484639399e-08 -9.79653195827268e-05 -2.563689704970784e-08 -1.2021692086250368e-08 -2.563689704970784e-08 -9.812088683247566e-05" pbc="T T T"
Hg       1.61161095       1.13958059       2.79139133       0.00000301       0.00000019       0.00000117
Hg       4.83483175       3.41874187       8.37417330       0.00000205      -0.00000142      -0.00000047
Ir       0.00000017      -0.00000010       0.00000015      -0.00000467      -0.00000234       0.00000517
O        1.52469895       1.07812506       5.58278224       0.00077553       0.00054745       0.00000163
O        4.92174267       3.48019755       5.58278263      -0.00077304      -0.00054587       0.00000125
O        4.07248124       1.07812513       4.11181852      -0.00039004       0.00055081       0.00067627
O        2.37395921       3.48019818       7.05374537       0.00039133      -0.00055348      -0.00068016
O        2.37395964       3.48019777       4.11181891       0.00038900      -0.00054789       0.00067449
O        4.07248186       1.07812459       7.05374575      -0.00039285       0.00055275      -0.00067979
