9
Lattice="5.465206984537703 -2.2418414647890107e-08 3.1553390408288116 1.8217356331207395 5.15264666391302 3.1553390533957897 2.625874736265322e-09 1.7248059073762328e-08 6.310678077109467" Properties=species:S:1:pos:R:3:forces:R:3 energy=-31.583538055419922 free_energy=-31.583538055419922 stress="8.769044507062063e-05 -9.128955724690968e-08 -4.106079365406856e-10 -9.128955724690968e-08 8.776177128311247e-05 -4.903438988179687e-09 -4.106079365406856e-10 -4.903438988179687e-09 8.778306073509157e-05" pbc="T T T"
Hg       1.82173580       1.28816193       3.15533919       0.00000036       0.00000138       0.00000105
Hg       5.46520695       3.86448511       9.46601745      -0.00000087       0.00000071       0.00000035
Ir       0.00000002       0.00000106       0.00000057       0.00000037      -0.00000023       0.00000057
S        1.87825601       1.32812732       6.31067841      -0.00041628      -0.00029594       0.00000053
S        5.40868656       3.82451872       6.31067807       0.00041813       0.00029385      -0.00000032
S        4.52607828       1.32812798       4.78195706       0.00021002      -0.00029862      -0.00036651
S        2.76086417       3.82451810       7.83939812      -0.00021127       0.00029922       0.00036669
S        2.76086393       3.82451804       4.78195754      -0.00021216       0.00029856      -0.00036800
S        4.52607877       1.32812830       7.83939824       0.00021154      -0.00029907       0.00036603
