9
Lattice="6.52430514538587 -7.02848303515282e-07 3.7668082074177005 2.1747678371627006 6.151171074058717 3.7668080030025175 -8.721409871145036e-08 -3.120259338836444e-07 7.533616565894527" Properties=species:S:1:pos:R:3:forces:R:3 energy=-20.137834548950195 free_energy=-20.137834548950195 stress="2.4812770789139904e-05 3.5701486211792144e-08 5.0583617294819305e-09 3.5701486211792144e-08 2.5032799385371618e-05 5.907143219019417e-09 5.0583617294819305e-09 5.907143219019417e-09 2.4931749067036435e-05" pbc="T T T"
Hg       2.17476897       1.53779185       3.76680917       0.00000015      -0.00000063       0.00000064
Hg       6.52430467       4.61337760      11.30042493       0.00000010      -0.00000037       0.00000020
In       0.00000022      -0.00000129       0.00000193      -0.00000055       0.00000814      -0.00000880
Te       2.42331745       1.71354527       7.53361612      -0.00119154      -0.00083910      -0.00000045
Te       6.27575762       4.43762503       7.53361578       0.00118345       0.00083606      -0.00000042
Te       5.31264676       1.71354436       5.86546305       0.00059544      -0.00083803      -0.00102846
Te       3.38642530       4.43762557       9.20177071      -0.00059313       0.00083879       0.00102557
Te       3.38642466       4.43762692       5.86546076      -0.00059157       0.00083651      -0.00102165
Te       5.31264587       1.71354496       9.20176865       0.00059766      -0.00084141       0.00103341
