9
Lattice="4.79373879838494 -5.3610451175925107e-08 2.767666609185345 1.597912980772719 4.51957993628001 2.767666438539847 3.339793754895136e-08 -1.853813800682519e-07 5.535333160523847" Properties=species:S:1:pos:R:3:forces:R:3 energy=-38.87850570678711 free_energy=-38.87850570678711 stress="-1.5134181012399495e-05 9.083493779371565e-08 1.7000745344830648e-07 9.083493779371565e-08 -1.523061018815497e-05 -1.4114031898770918e-07 1.7000745344830648e-07 -1.4114031898770918e-07 -1.5433670341735706e-05" pbc="T T T"
Hg       1.59791355       1.12989402       2.76766609       0.00000560      -0.00000399      -0.00000693
Hg       4.79373895       3.38968440       8.30299873       0.00000220      -0.00000337      -0.00000931
Mo       0.00000093      -0.00000053      -0.00000074      -0.00000282      -0.00000110       0.00000108
O        1.58557924       1.12117487       5.53533346      -0.00085664      -0.00059563       0.00000000
O        4.80607176       3.39840499       5.53533369       0.00085461       0.00060737       0.00000363
O        4.00094923       1.12117302       4.14081892       0.00041747      -0.00059593      -0.00072241
O        2.39070263       3.39840662       6.92984847      -0.00041717       0.00059348       0.00072002
O        2.39070324       3.39840623       4.14081877      -0.00042391       0.00060183      -0.00073099
O        4.00094762       1.12117481       6.92984789       0.00042111      -0.00060314       0.00074530
