9
Lattice="6.132838940707937 2.7441765052593604e-07 3.540795697650919 2.0442799363272615 5.7820958924045724 3.540795644474938 -1.6758476264166e-07 -1.8362712013118173e-07 7.081591685567086" Properties=species:S:1:pos:R:3:forces:R:3 energy=-26.986406326293945 free_energy=-26.986406326293945 stress="-0.0001313426619162783 6.546071773527729e-08 9.319705007726498e-09 6.546071773527729e-08 -0.00013141236559022218 4.264287589705873e-09 9.319705007726498e-09 4.264287589705873e-09 -0.0001314626424573362" pbc="T T T"
Hg       2.04427972       1.44552386       3.54079587       0.00000089      -0.00000011      -0.00000031
Hg       6.13283928       4.33657209      10.62238742      -0.00000015       0.00000093       0.00000002
Mn       0.00000108       0.00000043      -0.00000045      -0.00001497      -0.00000850       0.00000416
Te       2.05055979       1.44996500       7.08159114       0.00450870       0.00318620      -0.00000020
Te       6.12655759       4.33213013       7.08159189      -0.00449610      -0.00317900      -0.00000040
Te       5.10755972       1.44996497       5.31663245      -0.00225247       0.00318727       0.00390247
Te       3.06955983       4.33213136       8.84655072       0.00225504      -0.00318763      -0.00390463
Te       3.06955854       4.33213096       5.31663226       0.00225374      -0.00318643       0.00390294
Te       5.10755937       1.44996506       8.84655081      -0.00225469       0.00318725      -0.00390404
