9
Lattice="6.1329175438732495 -8.152634462110272e-07 3.540841384250006 2.0443050851214792 5.782171411347551 3.5408413742011926 -2.3459698678143847e-07 -1.7819212427468186e-07 7.081683174833866" Properties=species:S:1:pos:R:3:forces:R:3 energy=-26.98639678955078 free_energy=-26.98639678955078 stress="-0.00017821535584516823 -1.0086435509037983e-07 1.410369043775006e-09 -1.0086435509037983e-07 -0.00017818745982367545 1.2773265112286936e-08 1.410369043775006e-09 1.2773265112286936e-08 -0.00017802571528591216" pbc="T T T"
Hg       2.04430570       1.44554224       3.54084139      -0.00000112      -0.00000013       0.00000010
Hg       6.13291670       4.33662782      10.62252468       0.00000099       0.00000122      -0.00000004
Mn      -0.00000069      -0.00000019       0.00000121       0.00000460      -0.00000474      -0.00000992
Te       2.05031824       1.44979457       7.08168131       0.00632513       0.00447285      -0.00000176
Te       6.12690204       4.33237537       7.08168183      -0.00632590      -0.00447141      -0.00000007
Te       5.10775750       1.44979668       5.31647118      -0.00315835       0.00446697       0.00547464
Te       3.06946669       4.33237379       8.84689557       0.00315562      -0.00446354      -0.00546649
Te       3.06946674       4.33237428       5.31647084       0.00315760      -0.00446714       0.00547276
Te       5.10775669       1.44979715       8.84689570      -0.00315844       0.00446597      -0.00546917
