9
Lattice="4.666486728083892 1.5598820059102967e-07 2.6941975178329356 1.5554958490574553 4.3996062094734345 2.694197299659635 1.774204433979256e-07 -1.41751422910541e-07 5.388394728364647" Properties=species:S:1:pos:R:3:forces:R:3 energy=-41.601863861083984 free_energy=-41.601863861083984 stress="7.123183604562655e-05 2.4120405228700292e-08 -2.1211312173363694e-07 2.4120405228700292e-08 7.151495810830966e-05 -7.777048693924371e-08 -2.1211312173363694e-07 -7.777048693924371e-08 7.133819599403068e-05" pbc="T T T"
Hg       1.55549571       1.09990139       2.69419744      -0.00000125       0.00000248       0.00000135
Hg       4.66648712       3.29970463       8.08259211      -0.00000197       0.00000258       0.00000186
Mn       0.00000003       0.00000008      -0.00000028       0.00000397      -0.00000470       0.00000760
O        1.54313920       1.09116390       5.38839482      -0.00138760      -0.00097346      -0.00000118
O        4.67884371       3.30844231       5.38839512       0.00138068       0.00097764      -0.00000505
O        3.89491701       1.09116420       4.03059506       0.00069779      -0.00098038      -0.00120151
O        2.32706552       3.30844229       6.74619447      -0.00069177       0.00097394       0.00119460
O        2.32706551       3.30844225       4.03059493      -0.00069106       0.00097883      -0.00119424
O        3.89491730       1.09116403       6.74619450       0.00069153      -0.00097680       0.00119722
