9
Lattice="4.602245307339417 1.5948877915769313e-08 2.657107586860057 1.5340817925443617 4.33903865775365 2.657107572320429 5.9045468007550194e-08 2.394410679255673e-08 5.314215071450396" Properties=species:S:1:pos:R:3:forces:R:3 energy=-29.76498031616211 free_energy=-29.76498031616211 stress="-0.000458318623714149 2.261574394424315e-08 -1.574035302098764e-08 2.261574394424315e-08 -0.00045828730799257755 -1.4986616392320684e-08 -1.574035302098764e-08 -1.4986616392320684e-08 -0.00045834333286620677" pbc="T T T"
Hg       1.53408175       1.08475978       2.65710746      -0.00000052      -0.00000002       0.00000135
Hg       4.60224530       3.25427892       7.97132279      -0.00000003       0.00000011       0.00000135
Mg      -0.00000018       0.00000015       0.00000081       0.00000240      -0.00000594      -0.00001957
O        1.63057030       1.15298722       5.31421516      -0.00265042      -0.00187597      -0.00000064
O        4.50575693       3.18605143       5.31421503       0.00265238       0.00187598      -0.00000160
O        3.78696053       1.15298719       4.06922258       0.00132136      -0.00186896      -0.00228921
O        2.34936707       3.18605133       6.55920719      -0.00132997       0.00188209       0.00230408
O        2.34936671       3.18605136       4.06922267      -0.00132219       0.00187056      -0.00229350
O        3.78696028       1.15298744       6.55920726       0.00132688      -0.00187773       0.00229798
