9
Lattice="5.815512022114339 -5.759255223387638e-07 3.357586328677734 1.9385034309979323 5.482915665451948 3.3575863865035 -1.268454225960319e-06 -8.26110750272059e-07 6.7151748543829175" Properties=species:S:1:pos:R:3:forces:R:3 energy=-21.460346221923828 free_energy=-21.460346221923828 stress="-6.345188739942387e-05 3.594978181808983e-08 1.2054363196511986e-07 3.594978181808983e-08 -6.337098602671176e-05 7.756605668873817e-08 1.2054363196511986e-07 7.756605668873817e-08 -6.331771874101833e-05" pbc="T T T"
Hg       1.93850297       1.37072793       3.35758662       0.00000210       0.00000299       0.00000027
Hg       5.81550892       4.11218727      10.07275751       0.00000324      -0.00000328       0.00000322
Mg       0.00000149       0.00000095      -0.00000059      -0.00000458      -0.00000356       0.00000265
Se       2.29714052       1.62432516       6.71517788       0.00177822       0.00126605       0.00002089
Se       5.45687187       3.85858916       6.71517589      -0.00177867      -0.00126224       0.00000825
Se       4.66693897       1.62432603       5.34696944      -0.00089112       0.00126447       0.00153591
Se       3.08707061       3.85859140       8.08337572       0.00087662      -0.00126216      -0.00155127
Se       3.08707960       3.85858898       5.34697147       0.00090044      -0.00125906       0.00153488
Se       4.66694182       1.62432022       8.08337623      -0.00088620       0.00125675      -0.00155484
