9
Lattice="5.922024745303833 9.607148816523982e-08 3.4190823092641507 1.9740082456507173 5.583338554207709 3.4190824709703564 -1.0909688022157645e-07 1.2090556868636735e-07 6.838164807489554" Properties=species:S:1:pos:R:3:forces:R:3 energy=-32.218666076660156 free_energy=-32.218666076660156 stress="-0.00024088422651402652 1.263961735276098e-07 -1.2125844328636504e-08 1.263961735276098e-07 -0.00024101622693706304 1.5291863775246384e-08 -1.2125844328636504e-08 1.5291863775246384e-08 -0.00024107359058689326" pbc="T T T"
Hg       1.97400826       1.39583469       3.41908240      -0.00000065       0.00000029      -0.00000035
Hg       5.92202460       4.18750401      10.25724707      -0.00000017      -0.00000016       0.00000005
Mo      -0.00000010       0.00000008      -0.00000071       0.00000168       0.00000203       0.00000983
Se       1.97832844       1.39888988       6.83816518       0.00356865       0.00252298       0.00000030
Se       5.91770475       4.18444913       6.83816519      -0.00357153      -0.00252487       0.00000150
Se       4.93286064       1.39888919       5.13236454      -0.00178764       0.00252786       0.00309677
Se       2.96317175       4.18444988       8.54396525       0.00179139      -0.00253281      -0.00310174
Se       2.96317226       4.18444949       5.13236429       0.00178996      -0.00252908       0.00309737
Se       4.93286093       1.39888872       8.54396513      -0.00179167       0.00253370      -0.00310370
