9
Lattice="4.666602292337043 -4.0942831940094704e-08 2.694263999171271 1.5555340972024927 4.399714792503275 2.694263932733135 8.408944783275578e-08 -2.190956785947327e-08 5.388527852695347" Properties=species:S:1:pos:R:3:forces:R:3 energy=-41.601844787597656 free_energy=-41.601844787597656 stress="0.00011214469850528985 5.5309836710648597e-08 3.969578870055557e-07 5.5309836710648597e-08 0.00011259757593506947 2.1823441898050078e-07 3.969578870055557e-07 2.1823441898050078e-07 0.00011273389827692881" pbc="T T T"
Hg       1.55553387       1.09992876       2.69426405       0.00000085      -0.00000259      -0.00000108
Hg       4.66660257       3.29978590       8.08279184      -0.00000207       0.00000126       0.00000030
Mn       0.00000017       0.00000017      -0.00000066      -0.00000503      -0.00000480       0.00001319
O        1.54313592       1.09116184       5.38852810       0.00148880       0.00104606      -0.00000496
O        4.67900047       3.30855290       5.38852794      -0.00147736      -0.00104713      -0.00000213
O        3.89503451       1.09116173       4.03065899      -0.00074863       0.00104415       0.00127804
O        2.32710195       3.30855306       6.74639672       0.00074404      -0.00104141      -0.00126708
O        2.32710215       3.30855315       4.03065902       0.00073886      -0.00104749       0.00127125
O        3.89503429       1.09116153       6.74639701      -0.00074059       0.00105166      -0.00128758
