9
Lattice="5.847391885822048 2.387072979018908e-08 3.3759932598987215 1.9491305641260144 5.512973720946864 3.37599341056438 -7.808698582301603e-08 1.2931116459518758e-07 6.751986655048009" Properties=species:S:1:pos:R:3:forces:R:3 energy=-30.036209106445312 free_energy=-30.036209106445312 stress="-0.0001515039475634694 3.6993903052007227e-08 -3.101326839782814e-08 3.6993903052007227e-08 -0.0001515101466793567 1.4261434699847086e-08 -3.101326839782814e-08 1.4261434699847086e-08 -0.00015156471636146307" pbc="T T T"
Hg       1.94913020       1.37824301       3.37599358       0.00000004       0.00000048      -0.00000032
Hg       5.84739188       4.13473036      10.12798043       0.00000011      -0.00000027       0.00000025
Mn       0.00000002      -0.00000012      -0.00000032       0.00000078      -0.00000282       0.00000691
Se       1.91114227       1.35138208       6.75198694       0.00619352       0.00437975      -0.00000010
Se       5.88537955       4.16159244       6.75198683      -0.00619215      -0.00437835       0.00000057
Se       4.89182068       1.35138165       5.03109096      -0.00309703       0.00437894       0.00536391
Se       2.90470181       4.16159240       8.47288193       0.00309712      -0.00438070      -0.00536391
Se       2.90470220       4.16159239       5.03109125       0.00309679      -0.00438011       0.00536239
Se       4.89182077       1.35138141       8.47288194      -0.00309919       0.00438306      -0.00536951
