9
Lattice="6.516135270871655 -1.314246285095619e-07 3.7620917376594725 2.1720450006485073 6.143469269510343 3.7620916783085976 -3.2436421069778685e-07 -3.02049909849952e-07 7.524184037134138" Properties=species:S:1:pos:R:3:forces:R:3 energy=-19.271305084228516 free_energy=-19.271305084228516 stress="-7.155332696129335e-06 2.5470166420404894e-08 2.6865727420499752e-08 2.5470166420404894e-08 -6.925159141246695e-06 1.2041980745891578e-08 2.6865727420499752e-08 1.2041980745891578e-08 -7.055070454953238e-06" pbc="T T T"
Hg       2.17204531       1.53586717       3.76209202       0.00000034      -0.00000009      -0.00000004
Hg       6.51613467       4.60760189      11.28627574      -0.00000026       0.00000058       0.00000005
Mg      -0.00000013       0.00000042       0.00000080       0.00000014      -0.00000166      -0.00000296
Te       2.47184897       1.74786201       7.52418542       0.00071009       0.00050577       0.00000414
Te       6.21632959       4.39560637       7.52418348      -0.00070854      -0.00050477       0.00000087
Te       5.28021146       1.74786301       5.90277570      -0.00035309       0.00050631       0.00061581
Te       3.40796892       4.39560653       9.14559013       0.00035230      -0.00050490      -0.00061573
Te       3.40796947       4.39560576       5.90277668       0.00035311      -0.00050517       0.00061456
Te       5.28021154       1.74786210       9.14558977      -0.00035408       0.00050393      -0.00061668
