9
Lattice="5.847687837312194 -3.5403642632362355e-08 3.3761641773695557 1.9492292932303623 5.513252669560021 3.3761640950882037 5.954628270591855e-08 -5.8668078935899334e-08 6.752328251601908" Properties=species:S:1:pos:R:3:forces:R:3 energy=-30.036211013793945 free_energy=-30.036211013793945 stress="-8.572902152081951e-05 -8.175316423830736e-09 -2.019533695829523e-08 -8.175316423830736e-09 -8.570393401896581e-05 1.8134985069195864e-08 -2.019533695829523e-08 1.8134985069195864e-08 -8.568837074562907e-05" pbc="T T T"
Hg       1.94922930       1.37831309       3.37616421       0.00000013       0.00000025      -0.00000017
Hg       5.84768782       4.13493934      10.12849249       0.00000002      -0.00000005       0.00000016
Mn      -0.00000035      -0.00000020       0.00000001       0.00001132       0.00000105       0.00000029
Se       1.91120922       1.35142868       6.75232837       0.00506556       0.00358173       0.00000042
Se       5.88570827       4.16182406       6.75232836      -0.00507253      -0.00358659      -0.00000007
Se       4.89208331       1.35142881       5.03131963      -0.00253429       0.00358456       0.00438979
Se       2.90483374       4.16182401       8.47333663       0.00253239      -0.00358224      -0.00438765
Se       2.90483394       4.16182380       5.03131978       0.00253369      -0.00358450       0.00438866
Se       4.89208350       1.35142867       8.47333689      -0.00253600       0.00358585      -0.00439167
