9
Lattice="5.654128871207146 -2.021698854115602e-07 3.264412889220476 1.8847093553456002 5.330763573858109 3.2644130239437743 4.141143789114041e-08 1.9428402473317732e-07 6.5288257067141355" Properties=species:S:1:pos:R:3:forces:R:3 energy=-34.647560119628906 free_energy=-34.647560119628906 stress="-0.000166193101904355 -1.0867299238270789e-07 1.8026637960133485e-08 -1.0867299238270789e-07 -0.000166142635862343 1.5220240623392556e-09 1.8026637960133485e-08 1.5220240623392556e-09 -0.0001660392590565607" pbc="T T T"
Hg       1.88470920       1.33269085       3.26441299       0.00000039      -0.00000039       0.00000080
Hg       5.65412865       3.99807273       9.79323868      -0.00000009      -0.00000081       0.00000093
Mo       0.00000002      -0.00000051       0.00000073       0.00000001       0.00000391      -0.00001353
S        1.88052864       1.32973436       6.52882641       0.00137806       0.00097618      -0.00000478
S        5.65830966       4.00102995       6.52882587      -0.00138083      -0.00097673      -0.00000199
S        4.71386523       1.32973422       4.89299896      -0.00068833       0.00097589       0.00119153
S        2.82497484       4.00102778       8.16465163       0.00068202      -0.00096531      -0.00118300
S        2.82497388       4.00102942       4.89299915       0.00068836      -0.00097740       0.00119159
S        4.71386297       1.32973558       8.16465207      -0.00067965       0.00096457      -0.00118162
