9
Lattice="5.734731036620665 -1.124005375522415e-07 3.310948542640811 1.9115769659289166 5.4067558422564215 3.310948439247311 4.7664362487951136e-08 -9.292681603569314e-08 6.621897002724452" Properties=species:S:1:pos:R:3:forces:R:3 energy=-25.654422760009766 free_energy=-25.654422760009766 stress="-7.525731689383974e-06 -4.3252459391851517e-08 1.3441089352639324e-09 -4.3252459391851517e-08 -7.468363492080243e-06 5.300768712857007e-09 1.3441089352639324e-09 5.300768712857007e-09 -7.47688773117261e-06" pbc="T T T"
Hg       1.91157720       1.35168890       3.31094833      -0.00000043       0.00000006      -0.00000007
Hg       5.73473102       4.05506684       9.93284562      -0.00000009      -0.00000013      -0.00000089
Ni       0.00000008      -0.00000005      -0.00000027      -0.00000081      -0.00000157       0.00000084
Se       1.89645722       1.34099739       6.62189684       0.00039536       0.00027947      -0.00000017
Se       5.74985086       4.06575815       6.62189664      -0.00039467      -0.00027923       0.00000066
Se       4.78650225       1.34099787       4.95332882      -0.00019573       0.00027739       0.00033984
Se       2.85980530       4.06575835       8.29046578       0.00019684      -0.00027773      -0.00033957
Se       2.85980590       4.06575785       4.95332874       0.00019565      -0.00027589       0.00033882
Se       4.78650245       1.34099724       8.29046562      -0.00019604       0.00027765      -0.00033945
