9
Lattice="5.500339319527985 1.231608825013041e-07 3.175623558621737 1.8334465281822547 5.185772021897296 3.1756236067339088 -5.267941505485567e-07 -3.135746186397082e-07 6.351248029677889" Properties=species:S:1:pos:R:3:forces:R:3 energy=-27.126895904541016 free_energy=-27.126895904541016 stress="0.00037257972871884704 -1.0841061737210111e-07 6.05230638939247e-08 -1.0841061737210111e-07 0.00037263534613884985 -5.547840586928032e-08 6.05230638939247e-08 -5.547840586928032e-08 0.00037266366416588426" pbc="T T T"
Hg       1.83344568       1.29643860       3.17562400      -0.00000047      -0.00000050       0.00000057
Hg       5.50033957       3.88932935       9.52687135       0.00000099      -0.00000120      -0.00000050
Ni      -0.00000045      -0.00000005      -0.00000079       0.00000614      -0.00000291       0.00001866
S        1.76723262       1.24962205       6.35124850       0.00753459       0.00532542       0.00000007
S        5.56655168       3.93615046       6.35124701      -0.00753057      -0.00532649      -0.00000233
S        4.61672310       1.24962378       4.70609217      -0.00376388       0.00532281       0.00651610
S        2.71706335       3.93614973       7.99640161       0.00376429      -0.00532593      -0.00651786
S        2.71706265       3.93614966       4.70609466       0.00375316      -0.00531542       0.00650567
S        4.61672241       1.24962372       7.99640199      -0.00376421       0.00532433      -0.00652045
