9
Lattice="5.49685207808262 -1.6565572677245434e-07 3.1736091539386453 1.8322838598132907 5.18248119798355 3.173609171315591 1.6669839831639692e-07 1.3915579259443755e-07 6.347218019147195" Properties=species:S:1:pos:R:3:forces:R:3 energy=-27.12703514099121 free_energy=-27.12703514099121 stress="2.1778896552859806e-05 -1.4403227055481693e-07 -2.855747638363937e-08 -1.4403227055481693e-07 2.189297265431378e-05 3.884766996975486e-08 -2.855747638363937e-08 3.884766996975486e-08 2.1964680854580365e-05" pbc="T T T"
Hg       1.83228376       1.29562026       3.17360902      -0.00000087       0.00000010      -0.00000025
Hg       5.49685203       3.88686153       9.52082699      -0.00000091       0.00000120       0.00000044
Ni      -0.00000014      -0.00000014       0.00000068       0.00001510      -0.00000804      -0.00001773
S        1.76735706       1.24971092       6.34721822       0.00566885       0.00400625      -0.00000085
S        5.56177888       3.93277110       6.34721817      -0.00567317      -0.00401390      -0.00000110
S        4.61317286       1.24971093       4.70418575      -0.00283451       0.00400834       0.00491065
S        2.71596423       3.93276943       7.99024950       0.00282595      -0.00399390      -0.00488979
S        2.71596278       3.93277015       4.70418690       0.00283071      -0.00400274       0.00490239
S        4.61317272       1.24971059       7.99025043      -0.00283109       0.00400239      -0.00490367
