9
Lattice="4.549001719487558 -1.6179843819104768e-07 2.6263673526595155 1.5163337639720107 4.288839973865865 2.626367335302209 -5.038650996301989e-08 -5.688686171598655e-08 5.252734792591007" Properties=species:S:1:pos:R:3:forces:R:3 energy=-29.720563888549805 free_energy=-29.720563888549805 stress="-0.0001810903922887519 -7.257267498061992e-08 -5.8029691274441575e-08 -7.257267498061992e-08 -0.0001810345274861902 2.8279734110014942e-08 -5.8029691274441575e-08 2.8279734110014942e-08 -0.00018105321214534342" pbc="T T T"
Hg       1.51633423       1.07221003       2.62636729       0.00000028       0.00000022      -0.00000044
Hg       4.54900200       3.21662967       7.87910135      -0.00000001      -0.00000015       0.00000048
Ni      -0.00000015      -0.00000003      -0.00000010       0.00000124       0.00000014       0.00000577
O        1.47428917       1.04248046       5.25273439       0.00285810       0.00202172      -0.00000182
O        4.59104592       3.24635966       5.25273555      -0.00285922      -0.00202110       0.00000118
O        3.81185670       1.04248046       3.90313996      -0.00142632       0.00201893       0.00247197
O        2.25347851       3.24635908       6.60232986       0.00142701      -0.00202122      -0.00247389
O        2.25347886       3.24635965       3.90313972       0.00142961      -0.00201743       0.00247233
O        3.81185641       1.04248009       6.60232988      -0.00143067       0.00201876      -0.00247522
