9
Lattice="5.859994397043439 -1.9195880005859628e-07 3.3832697096667594 1.9533313659236549 5.524855772819011 3.383269568984031 7.27499681165734e-08 -1.2085821687570403e-07 6.766539293326714" Properties=species:S:1:pos:R:3:forces:R:3 energy=-31.920425415039062 free_energy=-31.920425415039062 stress="-1.1900888239324559e-05 -7.726860218326692e-08 3.720183983091374e-08 -7.726860218326692e-08 -1.1842458661703859e-05 -5.177599859962356e-08 3.720183983091374e-08 -5.177599859962356e-08 -1.181180869025411e-05" pbc="T T T"
Hg       1.95333189       1.38121363       3.38326967      -0.00000045      -0.00000002      -0.00000047
Hg       5.85999408       4.14364139      10.14980919       0.00000009      -0.00000057      -0.00000049
Nb      -0.00000011      -0.00000090      -0.00000044      -0.00000021       0.00001065       0.00000451
Se       2.03628589       1.43987136       6.76653921       0.00052522       0.00037054       0.00000011
Se       5.77704044       4.08498416       6.76653911      -0.00052869      -0.00037545       0.00000027
Se       4.84185144       1.43987158       5.14674521      -0.00025959       0.00036718       0.00045033
Se       2.97147403       4.08498488       8.38633335       0.00026368      -0.00037236      -0.00045680
Se       2.97147474       4.08498370       5.14674549       0.00025977      -0.00036767       0.00045062
Se       4.84185091       1.43987204       8.38633359      -0.00025982       0.00036764      -0.00044804
