9
Lattice="4.5489871655739 8.759817633893902e-08 2.626358785829339 1.5163289224846304 4.288826583198906 2.6263591587312383 -2.6441130573401556e-07 2.6974268686573595e-07 5.252718029632529" Properties=species:S:1:pos:R:3:forces:R:3 energy=-29.72054672241211 free_energy=-29.72054672241211 stress="0.00023659502039663494 -3.70111692404862e-08 -1.2757513445649238e-07 -3.70111692404862e-08 0.00023655405675526708 1.852987594475053e-07 -1.2757513445649238e-07 1.852987594475053e-07 0.00023651850642636418" pbc="T T T"
Hg       1.51632876       1.07220643       2.62635899      -0.00000018       0.00000145       0.00000033
Hg       4.54898708       3.21662070       7.87907689       0.00000038      -0.00000034       0.00000044
Ni      -0.00000014       0.00000016       0.00000038       0.00000385      -0.00000742      -0.00001590
O        1.47495499       1.04295108       5.25271774      -0.00818776      -0.00578942       0.00000016
O        4.59036087       3.24587602       5.25271794       0.00818980       0.00578854       0.00000070
O        3.81150933       1.04295147       3.90370765       0.00409606      -0.00579073      -0.00709085
O        2.25380685       3.24587523       6.60172815      -0.00410189       0.00579999       0.00710247
O        2.25380616       3.24587626       3.90370736      -0.00409148       0.00578452      -0.00708356
O        3.81150927       1.04295049       6.60172898       0.00409114      -0.00578666       0.00708586
