9
Lattice="5.560225667602355 -1.0235192083755036e-07 3.210197638306108 1.8534084769589563 5.242230748347354 3.210197607839611 5.375008200847356e-08 6.933352565659184e-10 6.420395183514354" Properties=species:S:1:pos:R:3:forces:R:3 energy=-34.66423034667969 free_energy=-34.66423034667969 stress="-7.062422082526609e-05 3.570930928731286e-08 1.927272563762017e-09 3.570930928731286e-08 -7.059697963995859e-05 5.1963382929898216e-08 1.927272563762017e-09 5.1963382929898216e-08 -7.060266943881288e-05" pbc="T T T"
Hg       1.85340830       1.31055736       3.21019752       0.00000115       0.00000076      -0.00000003
Hg       5.56022578       3.93167368       9.63059235      -0.00000163      -0.00000039       0.00000261
Nb      -0.00000015      -0.00000029       0.00000190       0.00000285       0.00000188      -0.00002986
S        1.93976592       1.37162141       6.42039536       0.00345913       0.00244400      -0.00000150
S        5.47386855       3.87060957       6.42039480      -0.00346282      -0.00244641      -0.00000109
S        4.59034386       1.37162098       4.89008350      -0.00173466       0.00245374       0.00300360
S        2.82329126       3.87060863       7.95070636       0.00172617      -0.00244050      -0.00298817
S        2.82329033       3.87060965       4.89008350       0.00173607      -0.00245583       0.00300603
S        4.59034302       1.37162158       7.95070659      -0.00172651       0.00244276      -0.00299160
