9
Lattice="5.557925743591862 2.562159024695007e-07 3.2088687216816365 1.8526420939756498 5.240063026474333 3.2088688292727077 -2.8116047618617323e-07 -6.703911112654124e-08 6.417737930347601" Properties=species:S:1:pos:R:3:forces:R:3 energy=-34.66419219970703 free_energy=-34.66419219970703 stress="-0.0002492835046723485 -2.090223771844535e-09 2.3002991511589244e-08 -2.090223771844535e-09 -0.0002493429637979716 -5.769074817862929e-08 2.3002991511589244e-08 -5.769074817862929e-08 -0.00024924310855567455" pbc="T T T"
Hg       1.85264180       1.31001585       3.20886866      -0.00000066      -0.00000004      -0.00000174
Hg       5.55792588       3.93004706       9.62660675      -0.00000051       0.00000070      -0.00000168
Nb      -0.00000026       0.00000038      -0.00000212       0.00000738      -0.00000041       0.00002120
S        1.94002155       1.37180096       6.41773832      -0.00394404      -0.00279044       0.00000298
S        5.47054782       3.86826258       6.41773832       0.00393510       0.00278412      -0.00000017
S        4.58791529       1.37180164       4.88897628       0.00197431      -0.00278592      -0.00341548
S        2.82265157       3.86826198       7.94650027      -0.00196654       0.00278081       0.00340572
S        2.82265127       3.86826035       4.88897587      -0.00197291       0.00279137      -0.00341921
S        4.58791557       1.37180196       7.94649987       0.00196786      -0.00278033       0.00340836
