9
Lattice="4.8073986265564965 8.815751608432657e-08 2.7755528358702364 1.6024663047429497 4.532458819207545 2.775552813743171 1.2454993594430607e-07 6.097002182716675e-08 5.551105456013759" Properties=species:S:1:pos:R:3:forces:R:3 energy=-43.57756042480469 free_energy=-43.57756042480469 stress="-5.675435022567399e-05 2.1242748005079193e-08 -1.0689569229782592e-09 2.1242748005079193e-08 -5.6747536291368306e-05 8.213991264938159e-08 -1.0689569229782592e-09 8.213991264938159e-08 -5.6757093261694536e-05" pbc="T T T"
Hg       1.60246568       1.13311403       2.77555344      -0.00000386      -0.00000695       0.00000223
Hg       4.80739821       3.39934350       8.32665910      -0.00000523      -0.00000355       0.00000644
Nb      -0.00000083      -0.00000050       0.00000028       0.00000140      -0.00000145       0.00000196
O        1.63648761       1.15717126       5.55110628       0.00000179       0.00000507       0.00000070
O        4.77337763       3.37528773       5.55110461       0.00000048      -0.00000238      -0.00000265
O        3.98915500       1.15717146       4.19279177      -0.00000340       0.00000370       0.00000119
O        2.42071053       3.37528856       6.90941812       0.00000328       0.00000340      -0.00000620
O        2.42071075       3.37528818       4.19279190       0.00000262      -0.00000435       0.00000143
O        3.98915559       1.15717166       6.90941876       0.00000238       0.00000697      -0.00000536
