9
Lattice="4.8071361292221635 -6.359552902780611e-08 2.775401497264543 1.6023787676292711 4.532210911447536 2.7754012931475454 5.737245273180747e-08 -2.0942281476978055e-07 5.550802895156989" Properties=species:S:1:pos:R:3:forces:R:3 energy=-43.57755661010742 free_energy=-43.57755661010742 stress="-0.00023291408433578908 8.596236256153134e-08 1.3535255583008166e-08 8.596236256153134e-08 -0.00023295202117878944 -4.307692336169566e-08 1.3535255583008166e-08 -4.307692336169566e-08 -0.0002331069699721411" pbc="T T T"
Hg       1.60237818       1.13305282       2.77540118      -0.00000179       0.00000053       0.00000013
Hg       4.80713600       3.39915792       8.32620582      -0.00000100      -0.00000032       0.00001040
Nb       0.00000011      -0.00000002       0.00000068      -0.00000110       0.00000049       0.00000120
O        1.63631349       1.15704763       5.55080269       0.00331020       0.00234002      -0.00000141
O        4.77320179       3.37516328       5.55080230      -0.00331104      -0.00234073      -0.00000355
O        3.98898054       1.15704792       4.19248924      -0.00165528       0.00234663       0.00287139
O        2.42053481       3.37516287       6.90911576       0.00165659      -0.00234407      -0.00287271
O        2.42053541       3.37516316       4.19248902       0.00165838      -0.00234461       0.00286758
O        3.98897992       1.15704734       6.90911595      -0.00165504       0.00234145      -0.00287211
