9
Lattice="5.734052871117479 2.4678192839228785e-07 3.310556662001773 1.9113510148053463 5.406117542974183 3.310556964941091 -5.698866295830491e-08 3.3072617604603444e-07 6.62111342271081" Properties=species:S:1:pos:R:3:forces:R:3 energy=-25.6544189453125 free_energy=-25.6544189453125 stress="-0.00010011934500653297 -4.140208176295346e-08 -1.4490573185810263e-08 -4.140208176295346e-08 -0.00010007141827372834 -1.3381456831496052e-08 -1.4490573185810263e-08 -1.3381456831496052e-08 -0.00010001518967328593" pbc="T T T"
Hg       1.91135114       1.35152897       3.31055682       0.00000013      -0.00000078      -0.00000051
Hg       5.73405205       4.05458839       9.93167075       0.00000070       0.00000115       0.00000053
Ni      -0.00000001      -0.00000006      -0.00000023       0.00000441       0.00000107       0.00000323
Se       1.89655287       1.34106576       6.62111375      -0.00076446      -0.00054137      -0.00000002
Se       5.74885157       4.06505222       6.62111319       0.00076142       0.00053722      -0.00000028
Se       4.78577583       1.34106680       4.95301965       0.00038320      -0.00054257      -0.00066447
Se       2.85962787       4.06505160       8.28920724      -0.00038320       0.00054260       0.00066331
Se       2.85962732       4.06505148       4.95302040      -0.00038509       0.00054291      -0.00066379
Se       4.78577665       1.34106727       8.28920720       0.00038306      -0.00054011       0.00066176
