9
Lattice="5.859701745457541 2.528300933420941e-07 3.3831000528348714 1.953233819927572 5.5245801457510115 3.3831006306389777 -2.6245045842722753e-07 5.220821785831485e-07 6.76620056024729" Properties=species:S:1:pos:R:3:forces:R:3 energy=-31.920425415039062 free_energy=-31.920425415039062 stress="-2.4147853764588945e-05 -3.8456253292906695e-08 -1.8802120393957011e-07 -3.8456253292906695e-08 -2.411438981653191e-05 2.6834143795895216e-07 -1.8802120393957011e-07 2.6834143795895216e-07 -2.4069526261882856e-05" pbc="T T T"
Hg       1.95323367       1.38114526       3.38310035      -0.00000052       0.00000025       0.00000023
Hg       5.85970147       4.14343587      10.14930115      -0.00000018       0.00000019      -0.00000132
Nb      -0.00000082       0.00000124      -0.00000072       0.00001195      -0.00001683       0.00001063
Se       2.03632135       1.43989788       6.76620040      -0.00002953      -0.00002155      -0.00000044
Se       5.77661366       4.08468355       6.76620020       0.00003014       0.00002052       0.00000103
Se       4.84154013       1.43989835       5.14660761       0.00002001      -0.00002921      -0.00003455
Se       2.97139563       4.08468206       8.38579379      -0.00002185       0.00003314       0.00004118
Se       2.97139470       4.08468338       5.14660690      -0.00001572       0.00002112      -0.00002535
Se       4.84154145       1.43989607       8.38579533       0.00000575      -0.00000764       0.00000867
