9
Lattice="6.385749550851871 3.1308877140150653e-07 3.686814354709921 2.128583382251469 6.020542979129662 3.686814521937335 -1.9349670708821724e-07 6.798804389108475e-08 7.373629044565957" Properties=species:S:1:pos:R:3:forces:R:3 energy=-28.696773529052734 free_energy=-28.696773529052734 stress="-4.580491440719925e-05 3.657610037066661e-08 -4.922609875279704e-09 3.657610037066661e-08 -4.585517308441922e-05 1.7139885954975398e-08 -4.922609875279704e-09 1.7139885954975398e-08 -4.58638314739801e-05" pbc="T T T"
Hg       2.12858286       1.50513567       3.68681466       0.00000004      -0.00000015       0.00000024
Hg       6.38574964       4.51540754      11.06044341      -0.00000007      -0.00000020       0.00000012
Nb      -0.00000017      -0.00000046       0.00000036       0.00000092       0.00000243      -0.00000231
Te       2.25044363       1.59130473       7.37362939      -0.00258290      -0.00182692      -0.00000013
Te       6.26388930       4.42923923       7.37362931       0.00258178       0.00182573       0.00000007
Te       5.26052808       1.59130413       5.63575569       0.00128877      -0.00182289      -0.00223433
Te       3.25380497       4.42923920       9.11150183      -0.00129014       0.00182517       0.00223517
Te       3.25380456       4.42923953       5.63575537      -0.00128805       0.00182132      -0.00223242
Te       5.26052809       1.59130381       9.11150165       0.00128955      -0.00182449       0.00223371
