9
Lattice="4.832309478278398 -2.8312845362126054e-08 2.78993518396712 1.6107699335444645 4.55594448871709 2.789934951620671 1.7296868652669847e-07 -1.6225780736990518e-07 5.57987006834371" Properties=species:S:1:pos:R:3:forces:R:3 energy=-43.86478042602539 free_energy=-43.86478042602539 stress="-3.305266363895498e-05 1.4439973661239947e-08 -9.501817110901811e-10 1.4439973661239947e-08 -3.311887485324405e-05 1.5309266743201988e-08 -9.501817110901811e-10 1.5309266743201988e-08 -3.285079219494946e-05" pbc="T T T"
Hg       1.61076940       1.13898590       2.78993533      -0.00000270      -0.00000011       0.00000110
Hg       4.83230954       3.41695851       8.36980585      -0.00000004       0.00000092       0.00000241
Os       0.00000007       0.00000007      -0.00000002       0.00000784      -0.00000535      -0.00000289
O        1.52168941       1.07599668       5.57987008       0.00006944       0.00004619      -0.00000041
O        4.92139053       3.47994738       5.57986991      -0.00007015      -0.00004780      -0.00000042
O        4.07146529       1.07599680       4.10775678      -0.00003806       0.00005054       0.00005823
O        2.37161460       3.47994766       7.05198323       0.00003353      -0.00004542      -0.00005347
O        2.37161443       3.47994770       4.10775643       0.00003594      -0.00004911       0.00005478
O        4.07146526       1.07599631       7.05198317      -0.00003552       0.00005013      -0.00005919
