9
Lattice="5.389652980438667 4.053269015976803e-08 3.1117177945906414 1.7965510954957649 5.081413665179236 3.1117176840830996 3.0359355845341335e-08 -1.1387614864647483e-07 6.223435536597241" Properties=species:S:1:pos:R:3:forces:R:3 energy=-33.351646423339844 free_energy=-33.351646423339844 stress="0.0004326174093876034 -1.1482705453147446e-08 -8.309871901701626e-09 -1.1482705453147446e-08 0.0004326174093876034 1.4612368204325321e-08 -8.309871901701626e-09 1.4612368204325321e-08 0.00043265102431178093" pbc="T T T"
Hg       1.79655176       1.27035401       3.11171753      -0.00000278      -0.00000117      -0.00000189
Hg       5.38965240       3.81106002       9.33515245       0.00000265       0.00000156      -0.00000249
Os      -0.00000053       0.00000113      -0.00000305      -0.00000031       0.00000039      -0.00000085
S        1.89502316       1.33998387       6.22343578       0.00537616       0.00380248      -0.00000079
S        5.29118106       3.74142948       6.22343564      -0.00537556      -0.00380248      -0.00000030
S        4.44214136       1.33998366       4.75285718      -0.00268659       0.00379908       0.00465828
S        2.74406309       3.74142906       7.69401557       0.00268734      -0.00380069      -0.00465411
S        2.74406318       3.74143000       4.75285720       0.00268707      -0.00379950       0.00465864
S        4.44214082       1.33998341       7.69401580      -0.00268787       0.00380003      -0.00465596
