9
Lattice="4.665285245458054 3.007419590674204e-07 2.693503720594312 1.5550953118317157 4.398473035005538 2.6935038133109512 6.798625370076328e-08 1.6162776259396505e-07 5.387007323433057" Properties=species:S:1:pos:R:3:forces:R:3 energy=-32.03879928588867 free_energy=-32.03879928588867 stress="-0.00013092545850668103 7.702508497686722e-08 -5.864576024805501e-08 7.702508497686722e-08 -0.0001309260551352054 2.9875355522790414e-08 -5.864576024805501e-08 2.9875355522790414e-08 -0.00013095636677462608" pbc="T T T"
Hg       1.55509496       1.09961788       2.69350379      -0.00000009      -0.00000019      -0.00000029
Hg       4.66528569       3.29885505       8.08051096       0.00000069      -0.00000109      -0.00000034
Pd       0.00000020       0.00000015      -0.00000025      -0.00000910      -0.00000581       0.00002373
O        1.58741959       1.12247532       5.38700721      -0.00554171      -0.00392082       0.00000016
O        4.63296099       3.27599826       5.38700779       0.00554812       0.00392686       0.00000061
O        3.87157565       1.12247583       4.06824920       0.00277585      -0.00392410      -0.00480826
O        2.34880461       3.27599829       6.70576589      -0.00276794       0.00391547       0.00479600
O        2.34880456       3.27599796       4.06824923      -0.00277302       0.00392239      -0.00480346
O        3.87157608       1.12247503       6.70576561       0.00276697      -0.00391285       0.00479187
