9
Lattice="4.951453549627432 1.2106237266879406e-07 2.858723065191895 1.6504846165143932 4.668275336781049 2.858723089729432 -3.8682407534474705e-09 2.7316969054410527e-08 5.717446137083765" Properties=species:S:1:pos:R:3:forces:R:3 energy=-30.0445613861084 free_energy=-30.0445613861084 stress="-6.110224785516039e-05 -6.504697669384996e-09 -9.510108256449712e-10 -6.504697669384996e-09 -6.105010834289715e-05 4.34580549324437e-08 -9.510108256449712e-10 4.34580549324437e-08 -6.101025064708665e-05" pbc="T T T"
Hg       1.65048459       1.16706866       2.85872314       0.00000002      -0.00000055       0.00000091
Hg       4.95145335       3.50120656       8.57616915       0.00000023       0.00000055       0.00000037
Pb       0.00000043      -0.00000004       0.00000029      -0.00000858      -0.00000011      -0.00001587
O        1.71475744       1.21251677       5.71744646      -0.00201371      -0.00142334      -0.00000045
O        4.88718041       3.45575880       5.71744602       0.00201878       0.00142764      -0.00000036
O        4.09407456       1.21251680       4.34374683       0.00100654      -0.00142476      -0.00174554
O        2.50786376       3.45575843       7.09114542      -0.00101003       0.00142972       0.00175120
O        2.50786325       3.45575889       4.34374661      -0.00100689       0.00142300      -0.00174338
O        4.09407481       1.21251709       7.09114526       0.00101365      -0.00143215       0.00175296
