9
Lattice="6.094380499094354 -3.670870849742473e-08 3.518592438814552 2.031460197245081 5.745836738750183 3.518592325383115 1.2969554550676381e-07 -4.7215943036623934e-08 7.037184652989886" Properties=species:S:1:pos:R:3:forces:R:3 energy=-23.59305763244629 free_energy=-23.59305763244629 stress="-5.370864528231323e-06 -5.274662373544459e-10 -1.7481754710502173e-08 -5.274662373544459e-10 -5.416908607003279e-06 -2.0323083660400698e-08 -1.7481754710502173e-08 -2.0323083660400698e-08 -5.390947080741171e-06" pbc="T T T"
Hg       2.03145960       1.43645865       3.51859193       0.00000104       0.00000095      -0.00000159
Hg       6.09437991       4.30937806      10.55577663      -0.00000019      -0.00000220       0.00000073
Pb      -0.00000031      -0.00000003       0.00000039       0.00000105      -0.00000029      -0.00000022
Se       2.51230286       1.77646594       7.03718532      -0.00016887      -0.00011443       0.00000045
Se       5.61353989       3.96937105       7.03718547       0.00015949       0.00011796       0.00000163
Se       4.83822882       1.77646578       5.69431043       0.00008163      -0.00011508      -0.00014696
Se       3.28761146       3.96937074       8.38005994      -0.00008087       0.00011596       0.00013757
Se       3.28761185       3.96937075       5.69430933      -0.00007849       0.00011452      -0.00013910
Se       4.83822925       1.77646569       8.38005821       0.00008521      -0.00011739       0.00014749
