9
Lattice="5.469903778053978 1.4329990115350753e-08 3.1580505675037567 1.8233012413917347 5.157074725670773 3.158050622011552 3.5641602515779635e-09 6.92782919004914e-08 6.316101128834369" Properties=species:S:1:pos:R:3:forces:R:3 energy=-28.6555233001709 free_energy=-28.6555233001709 stress="-1.0511277650948614e-05 1.9869638379077514e-08 -3.0466974720866347e-08 1.9869638379077514e-08 -1.0521640433580615e-05 1.6906270161598513e-08 -3.0466974720866347e-08 1.6906270161598513e-08 -1.0577128705335781e-05" pbc="T T T"
Hg       1.82330129       1.28926826       3.15805056      -0.00000006       0.00000009       0.00000013
Hg       5.46990389       3.86780619       9.47415192       0.00000005       0.00000001       0.00000051
Pt       0.00000002      -0.00000015       0.00000010      -0.00000207       0.00000211       0.00000123
S        1.88140355       1.33035304       6.31610124       0.00028902       0.00020331      -0.00000047
S        5.41180140       3.82672166       6.31610146      -0.00028723      -0.00020272       0.00000013
S        4.52920225       1.33035362       4.78739371      -0.00014347       0.00020441       0.00024894
S        2.76400296       3.82672169       7.84480853       0.00014377      -0.00020483      -0.00025070
S        2.76400255       3.82672187       4.78739337       0.00014511      -0.00020647       0.00025237
S        4.52920253       1.33035310       7.84480852      -0.00014523       0.00020412      -0.00025240
