9
Lattice="5.480125996521991 1.7188792201845382e-07 3.1639526275469247 1.826708768569673 5.166712692137854 3.163952729729529 5.876452118553869e-08 1.6670037047321692e-07 6.327905153310734" Properties=species:S:1:pos:R:3:forces:R:3 energy=-26.1815242767334 free_energy=-26.1815242767334 stress="-3.545003437466221e-06 -6.10421446722853e-09 -1.497161150609827e-08 -6.10421446722853e-09 -3.545040954122669e-06 -7.295564596887516e-09 -1.497161150609827e-08 -7.295564596887516e-09 -3.5442592434264952e-06" pbc="T T T"
Hg       1.82670864       1.29167835       3.16395257      -0.00000072      -0.00000050      -0.00000010
Hg       5.48012568       3.87503454       9.49185729       0.00000112       0.00000111       0.00000090
Pd       0.00000021       0.00000065       0.00000026      -0.00000045      -0.00001184      -0.00000781
S        1.91611348       1.35489685       6.32790511       0.00003219       0.00002348       0.00000030
S        5.39072149       3.81181558       6.32790533      -0.00002742      -0.00001937      -0.00000102
S        4.52206908       1.35489718       4.82335536      -0.00001714       0.00002384       0.00002873
S        2.78476616       3.81181561       7.83245516       0.00001252      -0.00001830      -0.00002313
S        2.78476552       3.81181587       4.82335566       0.00001448      -0.00002009       0.00002772
S        4.52206930       1.35489776       7.83245523      -0.00001496       0.00002134      -0.00002599
