9
Lattice="5.73617512970085 -2.3236600420512768e-07 3.311782562668403 1.9120580523418922 5.408117155077908 3.3117827447907655 -2.2399957770243587e-07 6.466179557042195e-08 6.623565513315439" Properties=species:S:1:pos:R:3:forces:R:3 energy=-22.234619140625 free_energy=-22.234619140625 stress="-5.163678906683344e-06 -8.150523811423227e-09 3.096973344440812e-08 -8.150523811423227e-09 -5.102013801661087e-06 7.852696271015702e-09 3.096973344440812e-08 7.852696271015702e-09 -5.370207873056643e-06" pbc="T T T"
Hg       1.91205958       1.35203026       3.31178218       0.00000234       0.00000259      -0.00000097
Hg       5.73617373       4.05608645       9.93534866      -0.00000191      -0.00000317       0.00000031
Pb       0.00000016       0.00000005      -0.00000011      -0.00000186       0.00000177      -0.00000270
S        2.11472293       1.49533653       6.62356543       0.00124658       0.00088629      -0.00000272
S        5.53350984       3.91278070       6.62356456      -0.00124528      -0.00088505      -0.00000299
S        4.67881320       1.49533526       5.14318678      -0.00062382       0.00088121       0.00108026
S        2.96942030       3.91278117       8.10394470       0.00062454      -0.00088448      -0.00107680
S        2.96942042       3.91278211       5.14318660       0.00062734      -0.00088107       0.00108111
S        4.67881167       1.49533545       8.10394436      -0.00062795       0.00088196      -0.00107552
