9
Lattice="6.801591674138106 -1.57764513821734e-07 3.926900945616552 2.2671971468795347 6.412602734833692 3.9269008227991558 5.5372029534531716e-08 -1.1126607676676538e-07 7.853801795325983" Properties=species:S:1:pos:R:3:forces:R:3 energy=-20.901973724365234 free_energy=-20.901973724365234 stress="-4.720772267319262e-06 -4.807233278114609e-09 -1.9903139136800974e-09 -4.807233278114609e-09 -4.7870344133116305e-06 1.195959220545717e-09 -1.9903139136800974e-09 1.195959220545717e-09 -4.731005901703611e-06" pbc="T T T"
Hg       2.26719740       1.60315080       3.92690086       0.00000017       0.00000030       0.00000032
Hg       6.80159157       4.80945161      11.78070285       0.00000021      -0.00000010       0.00000042
Pb       0.00000129       0.00000031       0.00000181       0.00000116       0.00000027       0.00000147
Te       2.67727031       1.89311507       7.85380156       0.00676002       0.00477779      -0.00000035
Te       6.39151663       4.51948530       7.85380173      -0.00676152      -0.00477969      -0.00000001
Te       5.46295661       1.89311565       6.24548585      -0.00337967       0.00477757       0.00585426
Te       3.60583383       4.51948581       9.46211729       0.00338097      -0.00477912      -0.00585508
Te       3.60583222       4.51948792       6.24548507       0.00337949      -0.00477726       0.00585417
Te       5.46295565       1.89311740       9.46211724      -0.00338083       0.00478024      -0.00585521
