9
Lattice="4.948910667266919 8.780064275895625e-09 2.8572548875628834 1.649636900025727 4.665877731548679 2.8572548829576507 7.930248622859552e-09 -3.2701124239860325e-11 5.71450976139017" Properties=species:S:1:pos:R:3:forces:R:3 energy=-30.04448699951172 free_energy=-30.04448699951172 stress="-0.0005799130885861814 -3.044338114932543e-08 -6.006163122407315e-09 -3.044338114932543e-08 -0.0005799707141704857 -2.5713470463983867e-08 -6.006163122407315e-09 -2.5713470463983867e-08 -0.0005799576756544411" pbc="T T T"
Hg       1.64963690       1.16646945       2.85725489      -0.00000025       0.00000017       0.00000052
Hg       4.94891066       3.49940824       8.57176462      -0.00000001       0.00000034       0.00000009
Pb       0.00000006      -0.00000012       0.00000014      -0.00000104       0.00000407      -0.00000359
O        1.71453049       1.21235613       5.71450978      -0.00079215      -0.00055833      -0.00000052
O        4.88401711       3.45352170       5.71450974       0.00079006       0.00055856      -0.00000021
O        4.09164547       1.21235612       4.34208180       0.00039552      -0.00055963      -0.00068589
O        2.50690215       3.45352161       7.08693772      -0.00039533       0.00056006       0.00068428
O        2.50690207       3.45352164       4.34208174      -0.00039433       0.00055636      -0.00068216
O        4.09164540       1.21235620       7.08693766       0.00039756      -0.00056155       0.00068757
