9
Lattice="4.711350504741839 5.540647466588397e-08 2.7200995590762997 1.5704502444738226 4.441903906673933 2.7200995175265175 8.878425228256854e-09 -4.4609896409306676e-08 5.4401991027747325" Properties=species:S:1:pos:R:3:forces:R:3 energy=-34.262454986572266 free_energy=-34.262454986572266 stress="-0.0001450529380235821 1.0703965358516143e-07 1.5124246743880576e-08 1.0703965358516143e-07 -0.00014513610221911222 -1.9327242029021363e-08 1.5124246743880576e-08 -1.9327242029021363e-08 -0.0001452666037948802" pbc="T T T"
Hg       1.57044978       1.11047600       2.72009957       0.00000026       0.00000069      -0.00000032
Hg       4.71135083       3.33142813       8.16029876       0.00000081      -0.00000022      -0.00000090
Pt       0.00000029      -0.00000009      -0.00000021      -0.00000841      -0.00000310       0.00001025
O        1.56661326       1.10776284       5.44019902      -0.00377525      -0.00267055       0.00000076
O        4.71518778       3.33414134       5.44019899       0.00378092       0.00267447      -0.00000014
O        3.92804412       1.10776230       4.07682605       0.00188771      -0.00266957      -0.00326847
O        2.35375640       3.33414143       6.80357234      -0.00188293       0.00266372       0.00326304
O        2.35375637       3.33414114       4.07682592      -0.00188753       0.00266852      -0.00326842
O        3.92804426       1.10776256       6.80357234       0.00188418      -0.00266413       0.00326414
