9
Lattice="4.535649349421764 4.8151804748118223e-08 2.618658464201017 1.5118830594676143 4.2762521997855005 2.6186586415704713 -4.859544352669091e-08 1.8287012134989071e-07 5.237317012571787" Properties=species:S:1:pos:R:3:forces:R:3 energy=-39.62047576904297 free_energy=-39.62047576904297 stress="-0.0008178347488865256 -4.48055210711118e-08 -5.351968868083645e-10 -4.48055210711118e-08 -0.0008176901610568166 -5.2899121527616444e-08 -5.351968868083645e-10 -5.2899121527616444e-08 -0.000817741674836725" pbc="T T T"
Hg       1.51188326       1.06906352       2.61865855      -0.00000058       0.00000015      -0.00000021
Hg       4.53564919       3.20718903       7.85597545       0.00000023      -0.00000005      -0.00000004
P        0.00000002       0.00000019      -0.00000003       0.00000084      -0.00000609      -0.00000013
O        1.39333782       0.98523844       5.23731695      -0.00401354      -0.00283432       0.00000149
O        4.65419456       3.29101374       5.23731705       0.00401664       0.00283933      -0.00000014
O        3.83898071       0.98523866       3.82532436       0.00200605      -0.00283408      -0.00347328
O        2.20855207       3.29101386       6.64930993      -0.00200844       0.00283456       0.00347447
O        2.20855154       3.29101370       3.82532453      -0.00200927       0.00283897      -0.00347757
O        3.83898012       0.98523869       6.64931006       0.00200772      -0.00283742       0.00347447
