9
Lattice="4.712649223610118 5.964752771450924e-08 2.720849276421442 1.5708831186500776 4.4431282999241875 2.7208492974189027 2.011875670377418e-08 3.994262127132824e-08 5.441698517996141" Properties=species:S:1:pos:R:3:forces:R:3 energy=-34.26245880126953 free_energy=-34.26245880126953 stress="-0.00013104926620144397 9.986184323906855e-09 -2.6178009093769106e-08 9.986184323906855e-09 -0.00013112580927554518 2.5374319534421375e-08 -2.6178009093769106e-08 2.5374319534421375e-08 -0.000131129621877335" pbc="T T T"
Hg       1.57088324       1.11078262       2.72084912       0.00000085      -0.00000028      -0.00000095
Hg       4.71264968       3.33234641       8.16254735       0.00000025       0.00000067      -0.00000128
Pt      -0.00000011       0.00000003      -0.00000024      -0.00000260       0.00000214       0.00000950
O        1.56618620       1.10746063       5.44169852       0.00639670       0.00452454       0.00000024
O        4.71734609       3.33566759       5.44169846      -0.00639537      -0.00452388       0.00000009
O        3.92955599       1.10746073       4.07720634      -0.00319664       0.00452183       0.00553802
O        2.35397621       3.33566718       6.80619117       0.00319902      -0.00452720      -0.00554334
O        2.35397610       3.33566755       4.07720630       0.00319748      -0.00452421       0.00554128
O        3.92955616       1.10746078       6.80619103      -0.00319950       0.00452627      -0.00554359
