9
Lattice="5.676257728173289 -1.0050829773082483e-10 3.277188758268347 1.8920859932634602 5.35162667283647 3.277188612833038 2.583538693288626e-07 4.562581837051986e-09 6.55437706905462" Properties=species:S:1:pos:R:3:forces:R:3 energy=-25.40621566772461 free_energy=-25.40621566772461 stress="-4.143616934015881e-06 -1.927554338365667e-09 1.1587429904480473e-09 -1.927554338365667e-09 -4.146595074416837e-06 1.3444291901976158e-08 1.1587429904480473e-09 1.3444291901976158e-08 -4.124960014451062e-06" pbc="T T T"
Hg       1.89208603       1.33790686       3.27718853       0.00000049      -0.00000000      -0.00000072
Hg       5.67625809       4.01372031       9.83156581      -0.00000012      -0.00000001      -0.00000085
Pd       0.00000009      -0.00000026       0.00000001       0.00000003       0.00000212      -0.00000126
Se       2.16792388       1.53295395       6.55437708       0.00038273       0.00027019       0.00000093
Se       5.40041892       3.81867288       6.55437722      -0.00038125      -0.00027043       0.00000163
Se       4.59229555       1.53295428       5.15466616      -0.00019057       0.00026817       0.00033139
Se       2.97604860       3.81867281       7.95408778       0.00019078      -0.00027036      -0.00032955
Se       2.97604864       3.81867247       5.15466662       0.00018940      -0.00026979       0.00032986
Se       4.59229630       1.53295355       7.95408870      -0.00019150       0.00027012      -0.00033151
