9
Lattice="5.734510458841881 -8.441263604746671e-08 3.3108211070514444 1.9115034468317147 5.406548266059216 3.310821037533705 -4.730661452947237e-08 -1.1859232814328675e-07 6.621642296040357" Properties=species:S:1:pos:R:3:forces:R:3 energy=-25.322246551513672 free_energy=-25.322246551513672 stress="0.0001836776064010337 2.583685088097809e-08 -4.686066645831488e-09 2.583685088097809e-08 0.0001836774026742205 6.963046583763344e-09 -4.686066645831488e-09 6.963046583763344e-09 0.00018368301971349865" pbc="T T T"
Hg       1.91150334       1.35163675       3.31082130      -0.00000011       0.00000023       0.00000016
Hg       5.73451020       4.05491103       9.93246335       0.00000030      -0.00000037      -0.00000015
P       -0.00000001      -0.00000004      -0.00000006      -0.00000293       0.00000006       0.00000371
Se       1.88520453       1.33304049       6.62164252      -0.00481793      -0.00340608      -0.00000001
Se       5.76080917       4.07350756       6.62164238       0.00481910       0.00340831       0.00000047
Se       4.79190829       1.33304085       4.94345602       0.00240992      -0.00340804      -0.00417358
Se       2.85410580       4.07350724       8.29982828      -0.00240815       0.00340571       0.00417095
Se       2.85410571       4.07350745       4.94345577      -0.00240920       0.00340645      -0.00417292
Se       4.79190843       1.33304079       8.29982830       0.00240907      -0.00340629       0.00417128
