9
Lattice="4.667677315250617 7.68771588740265e-06 2.6948796578471272 1.5558943445424294 4.400736290108305 2.694888910330296 -6.427241405292352e-06 6.787187968227076e-06 5.389770447995907" Properties=species:S:1:pos:R:3:forces:R:3 energy=-32.03882598876953 free_energy=-32.03882598876953 stress="-7.847940287319943e-05 8.384047760046087e-06 -1.0010101505031344e-05 8.384047760046087e-06 -8.275923755718395e-05 1.3706699974136427e-05 -1.0010101505031344e-05 1.3706699974136427e-05 -8.948762842919677e-05" pbc="T T T"
Hg       1.55589423       1.10016275       2.69488928      -0.00000426      -0.00003159       0.00001125
Hg       4.66767366       3.30055750       8.08465380       0.00000962      -0.00003147      -0.00001547
Pd       0.00000052       0.00001080      -0.00000962      -0.00015262      -0.00053807       0.00047996
O        1.58676678       1.12203872       5.38976870       0.00394771       0.00278828       0.00003759
O        4.63678178       3.27870179       5.38976352      -0.00356263      -0.00252216      -0.00004018
O        3.87428972       1.12203486       4.06908552      -0.00186738       0.00258102       0.00328031
O        2.34928516       3.27874602       6.71044245       0.00190689      -0.00259478      -0.00335781
O        2.34925727       3.27874065       4.06902882       0.00223155      -0.00313988       0.00376874
O        3.87431122       1.12201046       6.71053328      -0.00250854       0.00348885      -0.00416400
