9
Lattice="5.469853943322447 -2.60365241791336e-07 3.15802164723953 1.8232844994783644 5.157027442998102 3.1580214789207615 9.09014797765333e-09 -1.997199245627178e-07 6.316043278734509" Properties=species:S:1:pos:R:3:forces:R:3 energy=-28.655521392822266 free_energy=-28.655521392822266 stress="-3.678838038467802e-05 -1.2907536151018917e-09 -2.2816426525906763e-09 -1.2907536151018917e-09 -3.676100095617585e-05 1.1429945878660419e-08 -2.2816426525906763e-09 1.1429945878660419e-08 -3.674383697216399e-05" pbc="T T T"
Hg       1.82328440       1.28925691       3.15802194       0.00000032      -0.00000031       0.00000004
Hg       5.46985397       3.86777040       9.47406572       0.00000007      -0.00000076      -0.00000180
Pt       0.00000022       0.00000006       0.00000021      -0.00000208      -0.00000040       0.00000008
S        1.88135843       1.33032081       6.31604304       0.00093544       0.00066191      -0.00000042
S        5.41178005       3.82670602       6.31604268      -0.00093406      -0.00066012       0.00000183
S        4.52917475       1.33032103       4.78732576      -0.00046617       0.00065967       0.00080732
S        2.76396332       3.82670563       7.84476046       0.00046748      -0.00066128      -0.00080851
S        2.76396399       3.82670620       4.78732560       0.00046599      -0.00066024       0.00080839
S        4.52917457       1.33032068       7.84476022      -0.00046718       0.00066143      -0.00080732
