9
Lattice="5.676105420699915 -1.9538289720644643e-07 3.2771009775256332 1.8920349906574132 5.351483629861126 3.277100917539789 2.669623346948752e-09 -7.157965747491791e-08 6.5542019504272755" Properties=species:S:1:pos:R:3:forces:R:3 energy=-25.406211853027344 free_energy=-25.406211853027344 stress="9.981417861126829e-06 -4.628344374424387e-09 -3.825121996925418e-09 -4.628344374424387e-09 9.969442544388585e-06 3.768729328612608e-09 -3.825121996925418e-09 3.768729328612608e-09 9.94785841612611e-06" pbc="T T T"
Hg       1.89203524       1.33787095       3.27710073      -0.00000144      -0.00000029      -0.00000005
Hg       5.67610510       4.01361220       9.83130282       0.00000131       0.00000080      -0.00000002
Pd      -0.00000038       0.00000033      -0.00000065       0.00000045      -0.00000008       0.00000008
Se       2.16758585       1.53271486       6.55420170       0.00220140       0.00155650      -0.00000043
Se       5.40055430       3.81876864       6.55420167      -0.00220181      -0.00155644      -0.00000052
Se       4.59231238       1.53271473       5.15428521      -0.00110022       0.00155634       0.00190702
Se       2.97582810       3.81876878       7.95411883       0.00110015      -0.00155606      -0.00190703
Se       2.97582855       3.81876819       5.15428609       0.00110052      -0.00155639       0.00190756
Se       4.59231254       1.53271457       7.95411895      -0.00110036       0.00155565      -0.00190659
