9
Lattice="5.480850662731965 -1.5345198898138537e-07 3.164370857292539 1.8269501206883045 5.167395886630843 3.164370780296674 -3.185104598611257e-08 -1.1682237440477672e-07 6.328741769752644" Properties=species:S:1:pos:R:3:forces:R:3 energy=-26.18151092529297 free_energy=-26.18151092529297 stress="0.00019828588119708002 -6.296023968843656e-08 -4.384875573748559e-09 -6.296023968843656e-08 0.00019828083168249577 -2.031395496260302e-08 -4.384875573748559e-09 -2.031395496260302e-08 0.00019835226703435183" pbc="T T T"
Hg       1.82695035       1.29184917       3.16437090      -0.00000021       0.00000051       0.00000148
Hg       5.48085060       3.87554642       9.49311352      -0.00000126       0.00000019      -0.00000086
Pd      -0.00000097      -0.00000059       0.00000103       0.00002072       0.00000758      -0.00001971
S        1.91653500       1.35519475       6.32874176      -0.00501978      -0.00355119      -0.00000034
S        5.39126679       3.81220140       6.32874135       0.00500774       0.00354129       0.00000342
S        4.52258336       1.35519517       4.82413874       0.00250539      -0.00354534      -0.00434071
S        2.78521719       3.81219985       7.83334366      -0.00251231       0.00354981       0.00435209
S        2.78521789       3.81220100       4.82413893      -0.00250921       0.00354666      -0.00434321
S        4.52258292       1.35519508       7.83334392       0.00250909      -0.00354946       0.00434822
