9
Lattice="5.382143775760124 9.626213740657779e-08 3.1073824581047598 1.7940479767723108 5.074334890702486 3.1073825260667856 -9.070705963558003e-08 1.9096540340961722e-08 6.214765073318712" Properties=species:S:1:pos:R:3:forces:R:3 energy=-31.844728469848633 free_energy=-31.844728469848633 stress="-3.751998156076297e-05 7.0555272735362e-10 -2.3828842898865332e-08 7.0555272735362e-10 -3.7564361264230683e-05 4.2215557272129445e-08 -2.3828842898865332e-08 4.2215557272129445e-08 -3.753777491510846e-05" pbc="T T T"
Hg       1.79404739       1.26858348       3.10738252      -0.00000172      -0.00000191      -0.00000126
Hg       5.38214312       3.80575079       9.32214784       0.00000053      -0.00000275      -0.00000082
Ru      -0.00000375      -0.00000502      -0.00000077      -0.00000001       0.00000093       0.00000117
S        1.87829836       1.32815798       6.21476552       0.00071758       0.00050852       0.00000156
S        5.29789402       3.74617873       6.21476478      -0.00071090      -0.00050130      -0.00000090
S        4.44299576       1.32815876       4.73403652      -0.00035724       0.00050399       0.00061703
S        2.73319876       3.74617870       7.69549405       0.00035620      -0.00050434      -0.00061691
S        2.73319706       3.74617868       4.73403646       0.00035396      -0.00050724       0.00062144
S        4.44299600       1.32815762       7.69549371      -0.00035870       0.00050446      -0.00062168
