9
Lattice="4.859143052746188 2.394657636049964e-07 2.8054276703644216 1.6197144953000278 4.58124484180711 2.8054278113288587 -3.16074239926419e-07 -5.0852783976274385e-08 5.61085588818547" Properties=species:S:1:pos:R:3:forces:R:3 energy=-46.02873992919922 free_energy=-46.02873992919922 stress="0.0002218436566181481 3.0287131380646315e-07 -4.075764081790112e-08 3.0287131380646315e-07 0.0002220559836132452 1.40816096561025e-08 -4.075764081790112e-08 1.40816096561025e-08 0.00022183058899827302" pbc="T T T"
Hg       1.61971487       1.14531126       2.80542722       0.00000036       0.00000423      -0.00000303
Hg       4.85914279       3.43593422       8.41628170       0.00000068      -0.00000151      -0.00001002
Re      -0.00000032      -0.00000011      -0.00000017       0.00000298       0.00000166      -0.00000009
O        1.55510018       1.09962328       5.61085572       0.00126660       0.00088739       0.00000339
O        4.92375774       3.48162177       5.61085646      -0.00127208      -0.00089061       0.00000215
O        4.08159340       1.09962248       4.15218447      -0.00064075       0.00089955       0.00110865
O        2.39726394       3.48162210       7.06952862       0.00064540      -0.00090480      -0.00110662
O        2.39726357       3.48162236       4.15218466       0.00064367      -0.00089812       0.00111401
O        4.08159287       1.09962257       7.06952820      -0.00064707       0.00090206      -0.00110829
