9
Lattice="5.808824597914775 7.610144407656424e-08 3.3537263810360582 1.9362749319101713 5.4766125357579805 3.3537263911002966 1.4792106938188296e-08 2.278569846562258e-08 6.707452736451332" Properties=species:S:1:pos:R:3:forces:R:3 energy=-33.431724548339844 free_energy=-33.431724548339844 stress="-9.588584362063557e-06 3.8964564907928434e-08 4.9533173118732066e-09 3.8964564907928434e-08 -9.622147445043083e-06 -2.6375024386737778e-09 4.9533173118732066e-09 -2.6375024386737778e-09 -9.619633601687383e-06" pbc="T T T"
Hg       1.93627498       1.36915307       3.35372637       0.00000002       0.00000032       0.00000025
Hg       5.80882465       4.10745941      10.06117900      -0.00000011       0.00000002      -0.00000004
Re      -0.00000018       0.00000028       0.00000014       0.00000260      -0.00000381      -0.00000076
Se       1.99876785       1.41334235       6.70745275      -0.00589645      -0.00417000      -0.00000033
Se       5.74633166       4.06327028       6.70745282       0.00589657       0.00416988      -0.00000005
Se       4.80944091       1.41334214       5.08470988       0.00294493      -0.00416556      -0.00510332
Se       2.93565870       4.06327042       8.33019520      -0.00294648       0.00416780       0.00510603
Se       2.93565861       4.06327053       5.08471018      -0.00294679       0.00416803      -0.00510594
Se       4.80944099       1.41334215       8.33019563       0.00294553      -0.00416675       0.00510401
