9
Lattice="5.733645319396096 2.7643963253475296e-07 3.3103218286391973 1.9112153700679193 5.405733130296785 3.31032182349026 6.562699893635464e-08 4.00991811242893e-08 6.620643543609113" Properties=species:S:1:pos:R:3:forces:R:3 energy=-29.975902557373047 free_energy=-29.975902557373047 stress="0.0001479844213463366 2.750921979099985e-08 -1.4164024619844895e-08 2.750921979099985e-08 0.00014796371397096664 -3.395573822118081e-09 -1.4164024619844895e-08 -3.395573822118081e-09 0.00014795780589338392" pbc="T T T"
Hg       1.91121507       1.35143326       3.31032184       0.00000068      -0.00000001      -0.00000017
Hg       5.73364598       4.05430011       9.93096512      -0.00000056      -0.00000026       0.00000016
Ru       0.00000061      -0.00000001      -0.00000035      -0.00000297       0.00000094       0.00000027
Se       2.00533799       1.41798760       6.62064388       0.00103946       0.00073378       0.00000141
Se       5.63952288       3.98774599       6.62064425      -0.00103928      -0.00073363       0.00000127
Se       4.73097660       1.41798768       5.04699460      -0.00052059       0.00073618       0.00089919
Se       2.91388300       3.98774550       8.19429246       0.00052083      -0.00073697      -0.00090235
Se       2.91388317       3.98774556       5.04699463       0.00052201      -0.00073679       0.00090073
Se       4.73097770       1.41798809       8.19429240      -0.00051949       0.00073671      -0.00090053
