9
Lattice="6.298694735697172 -1.1644089402705866e-06 3.63655186395011 2.099563541795528 5.938465717918013 3.6365523355684277 -6.210809136755614e-07 1.3844103987981992e-07 7.273104803643812" Properties=species:S:1:pos:R:3:forces:R:3 energy=-29.857276916503906 free_energy=-29.857276916503906 stress="-0.0002756361791398376 1.2841564966947772e-07 -6.576895117405002e-08 1.2841564966947772e-07 -0.0002757090260274708 7.833276782776011e-08 -6.576895117405002e-08 7.833276782776011e-08 -0.0002758954360615462" pbc="T T T"
Hg       2.09956512       1.48461674       3.63655147      -0.00000010      -0.00000018       0.00000143
Hg       6.29869279       4.45384852      10.90965463       0.00000256       0.00000179       0.00000185
Re       0.00000252       0.00000204       0.00000457      -0.00003490      -0.00002284      -0.00004949
Te       2.17169434       1.53561946       7.27310398       0.00746667       0.00528139      -0.00000002
Te       6.22655966       4.40284161       7.27310560      -0.00743333      -0.00525670      -0.00000212
Te       5.21284451       1.53562065       5.51729146      -0.00373393       0.00528078       0.00647420
Te       3.18541494       4.40284174       9.02891667       0.00371855      -0.00526202      -0.00645204
Te       3.18541225       4.40284467       5.51729117       0.00373913      -0.00528765       0.00648451
Te       5.21284392       1.53562295       9.02891639      -0.00372458       0.00526546      -0.00645815
