9
Lattice="5.7125927158459255 6.11015211698531e-08 3.29816655703855 1.9041976500962983 5.385883514571653 3.298166521461038 3.14283412606073e-08 -2.135017598933942e-08 6.596333059641676" Properties=species:S:1:pos:R:3:forces:R:3 energy=-28.20758056640625 free_energy=-28.20758056640625 stress="0.00027753086760640144 6.106019867502255e-08 -2.0003088962994298e-08 6.106019867502255e-08 0.0002775213506538421 5.025039495620831e-09 -2.0003088962994298e-08 5.025039495620831e-09 0.00027750179287977517" pbc="T T T"
Hg       1.90419756       1.34647094       3.29816647       0.00000037       0.00000029       0.00000009
Hg       5.71259291       4.03941299       9.89449988      -0.00000077      -0.00000122      -0.00000013
Rh       0.00000001       0.00000022      -0.00000033       0.00000057      -0.00000108       0.00000064
Se       2.01178989       1.42254981       6.59633326      -0.00071859      -0.00050744       0.00000005
Se       5.60500083       3.96333313       6.59633332       0.00071843       0.00050729       0.00000039
Se       4.70669813       1.42254940       5.04042673       0.00035747      -0.00050443      -0.00062069
Se       2.91009188       3.96333416       8.15223924      -0.00035783       0.00050559       0.00062029
Se       2.91009218       3.96333436       5.04042674      -0.00035671       0.00050502      -0.00061955
Se       4.70669828       1.42254914       8.15223919       0.00035713      -0.00050400       0.00061910
