9
Lattice="5.441085117184018 -1.6367548643291662e-08 3.1414116700092607 1.813694939515416 5.129904584647669 3.141411815699762 -1.2840265819954748e-07 8.763935356469102e-08 6.28282356241848" Properties=species:S:1:pos:R:3:forces:R:3 energy=-30.075647354125977 free_energy=-30.075647354125977 stress="-5.491858610184863e-05 -4.8604341884583846e-08 7.99700305975648e-09 -4.8604341884583846e-08 -5.4885022109374404e-05 -2.881139327115534e-09 7.99700305975648e-09 -2.881139327115534e-09 -5.4855187045177445e-05" pbc="T T T"
Hg       1.81369536       1.28247572       3.14141179      -0.00000045      -0.00000052       0.00000145
Hg       5.44108471       3.84742844       9.42423575       0.00000113       0.00000057       0.00000205
Rh       0.00000017       0.00000003       0.00000050      -0.00000279       0.00000004      -0.00000894
S        1.87355875       1.32480640       6.28282326      -0.00222945      -0.00157565      -0.00000216
S        5.38122062       3.80509853       6.28282343       0.00223035       0.00157812      -0.00000095
S        4.50430587       1.32480655       4.76396180       0.00111583      -0.00157684      -0.00193107
S        2.75047481       3.80509760       7.80168513      -0.00111786       0.00158077       0.00193378
S        2.75047480       3.80509829       4.76396134      -0.00111523       0.00157666      -0.00193098
S        4.50430453       1.32480722       7.80168494       0.00111869      -0.00158340       0.00193688
