9
Lattice="4.808985976787829 3.995579913437225e-08 2.7764694563024146 1.602995350780286 4.533955285655551 2.776469477929423 -8.741690578956514e-09 2.0306221449814422e-08 5.552938927745885" Properties=species:S:1:pos:R:3:forces:R:3 energy=-40.169620513916016 free_energy=-40.169620513916016 stress="-2.2127067495603114e-05 -1.3799745346432246e-08 -4.535070274869213e-08 -1.3799745346432246e-08 -2.213851439591963e-05 4.513081108825645e-08 -4.535070274869213e-08 4.513081108825645e-08 -2.2036432710592635e-05" pbc="T T T"
Hg       1.60299594       1.13348911       2.77646938       0.00000266      -0.00000003      -0.00000024
Hg       4.80898579       3.40046647       8.32940803      -0.00000083       0.00000095      -0.00000193
Ru      -0.00000004      -0.00000007      -0.00000020      -0.00000173       0.00000181      -0.00000218
O        1.51254893       1.06953345       5.55293902      -0.00007793      -0.00005373       0.00000015
O        4.89943238       3.46442191       5.55293893       0.00007823       0.00005502       0.00000050
O        4.05271124       1.06953358       4.08637538       0.00003961      -0.00005612      -0.00006846
O        2.35926994       3.46442153       7.01950245      -0.00004041       0.00005454       0.00006899
O        2.35926982       3.46442172       4.08637543      -0.00003958       0.00005195      -0.00006533
O        4.05271138       1.06953367       7.01950268       0.00004026      -0.00005424       0.00006905
