9
Lattice="6.491100906728236 -2.007033405792e-07 3.7476393904002916 2.1637001197643304 6.119869450380176 3.7476393787149482 -6.656216416419645e-08 -6.137814547910417e-08 7.495278896089636" Properties=species:S:1:pos:R:3:forces:R:3 energy=-25.820655822753906 free_energy=-25.820655822753906 stress="-3.5186519653507276e-06 1.6422010418182253e-08 -2.9728175476861907e-09 1.6422010418182253e-08 -3.4947963740705745e-06 2.105144947250892e-09 -2.9728175476861907e-09 2.105144947250892e-09 -3.490281187623623e-06" pbc="T T T"
Hg       2.16369996       1.52996719       3.74763938      -0.00000019       0.00000010       0.00000045
Hg       6.49110057       4.58990183      11.24291776      -0.00000041      -0.00000005       0.00000055
Sc      -0.00000016       0.00000056       0.00000308       0.00000264      -0.00000104      -0.00001606
Te       2.36556667       1.67270928       7.49527871       0.00001011       0.00000557       0.00000138
Te       6.28923461       4.44715969       7.49527894      -0.00001207      -0.00000675      -0.00000006
Te       5.30831898       1.67270759       5.79628095      -0.00000757       0.00000980       0.00001126
Te       3.34648315       4.44716049       9.19427541       0.00000498      -0.00000440      -0.00000468
Te       3.34648188       4.44716119       5.79628091       0.00000758      -0.00000871       0.00001120
Te       5.30831814       1.67270894       9.19427546      -0.00000511       0.00000545      -0.00000399
