9
Lattice="4.638251180790552 -9.750540218673471e-09 2.677895296164731 1.5460837986843607 4.372984513121929 2.677895155960278 9.153929781395749e-08 -1.0698660347069305e-07 5.3557904337787425" Properties=species:S:1:pos:R:3:forces:R:3 energy=-32.695167541503906 free_energy=-32.695167541503906 stress="4.4832268031314015e-05 -5.155315818683448e-08 3.5625042471565393e-08 -5.155315818683448e-08 4.461701973923482e-05 -3.609411791671846e-08 3.5625042471565393e-08 -3.609411791671846e-08 4.455861926544458e-05" pbc="T T T"
Hg       1.54608353       1.09324692       2.67789505       0.00000170       0.00000343       0.00000058
Hg       4.63825113       3.27973834       8.03368553      -0.00000004       0.00000538      -0.00000076
Se       0.00000022       0.00000180       0.00000008      -0.00000035       0.00001899       0.00000018
O        1.50321330       1.06293129       5.35579079      -0.00268328      -0.00189948      -0.00000003
O        4.68112155       3.31005174       5.35579062       0.00269043       0.00189948       0.00000004
O        3.88664469       1.06293153       3.97971682       0.00134009      -0.00190508      -0.00233018
O        2.29769025       3.31005190       6.73186474      -0.00134629       0.00189102       0.00232685
O        2.29769041       3.31005204       3.97971540      -0.00134414       0.00188994      -0.00232601
O        3.88664486       1.06293179       6.73186468       0.00134164      -0.00190389       0.00233102
