9
Lattice="5.638192966618448 -2.198159718523155e-08 3.255212053414135 1.8793976170077535 5.315738862526238 3.2552120842572307 -8.055676061535084e-08 -1.9187289126088892e-08 6.510424246356654" Properties=species:S:1:pos:R:3:forces:R:3 energy=-24.357284545898438 free_energy=-24.357284545898438 stress="-0.00015011704817879945 -6.595160417788293e-09 -3.7588847590086516e-08 -6.595160417788293e-09 -0.00015003119187895209 5.982293060924349e-08 -3.7588847590086516e-08 5.982293060924349e-08 -0.00015009021444711834" pbc="T T T"
Hg       1.87939730       1.32893484       3.25521172       0.00000077      -0.00000084       0.00000025
Hg       5.63819312       3.98680403       9.76563619       0.00000024       0.00000018      -0.00000030
Sn       0.00000094       0.00000049       0.00000041      -0.00001044      -0.00000596      -0.00000790
S        2.03103992       1.43616187       6.51042435      -0.00150205      -0.00106092      -0.00000042
S        5.48655013       3.87957661       6.51042389       0.00151068       0.00106776      -0.00000204
S        4.62267295       1.43616216       5.01414465       0.00075428      -0.00106440      -0.00130171
S        2.89491764       3.87957611       8.00670378      -0.00075423       0.00106812       0.00130679
S        2.89491694       3.87957688       5.01414414      -0.00075388       0.00106147      -0.00130112
S        4.62267305       1.43616220       8.00670438       0.00075468      -0.00106530       0.00130653
