9
Lattice="6.539651776423883 -2.550076714328249e-07 3.775668358132371 2.179883626274835 6.16564103931577 3.7756684599362504 -2.2430904620859874e-08 1.0882270477958446e-07 7.551336755116179" Properties=species:S:1:pos:R:3:forces:R:3 energy=-21.30035400390625 free_energy=-21.30035400390625 stress="5.5374097428284585e-05 1.2042625785468886e-09 7.380382527344409e-09 1.2042625785468886e-09 5.552880611503497e-05 3.980430651751021e-09 7.380382527344409e-09 3.980430651751021e-09 5.5603526561753824e-05" pbc="T T T"
Hg       2.17988397       1.54140947       3.77566849      -0.00000035      -0.00000002      -0.00000026
Hg       6.53965071       4.62423099      11.32700534      -0.00000056       0.00000006      -0.00000024
Sn      -0.00000249       0.00000016      -0.00000130       0.00000538       0.00000052       0.00000197
Te       2.43651133       1.72287500       7.55133695      -0.00141400      -0.00099847       0.00000042
Te       6.28302669       4.44276816       7.55133644       0.00141183       0.00099610       0.00000038
Te       5.32139647       1.72287402       5.88575015       0.00070713      -0.00099888      -0.00122266
Te       3.39813835       4.44276709       9.21692265      -0.00070728       0.00099842       0.00122263
Te       3.39813957       4.44276595       5.88575180      -0.00070813       0.00099954      -0.00122397
Te       5.32139691       1.72287277       9.21692381       0.00070609      -0.00099732       0.00122163
