9
Lattice="4.602886069833235 -1.9861134773954725e-10 2.6574778067119196 1.5342954197652692 4.339642193547992 2.65747769700124 1.494303444538246e-07 -2.8704344253136803e-08 5.3149553546028425" Properties=species:S:1:pos:R:3:forces:R:3 energy=-36.173892974853516 free_energy=-36.173892974853516 stress="-0.00020683887123595923 1.877714055353863e-07 -4.687331767172509e-08 1.877714055353863e-07 -0.0002067305176751688 1.6220857901316776e-07 -4.687331767172509e-08 1.6220857901316776e-07 -0.00020730934920720756" pbc="T T T"
Hg       1.53429541       1.08491059       2.65747775      -0.00000057      -0.00000051      -0.00000179
Hg       4.60288630       3.25473168       7.97243329       0.00000081      -0.00000012      -0.00000133
S        0.00000003      -0.00000034      -0.00000121       0.00000083       0.00000525       0.00003001
O        1.34577633       0.95160755       5.31495526       0.00625682       0.00442624       0.00000216
O        4.79140537       3.38803480       5.31495534      -0.00625801      -0.00442898       0.00000554
O        3.92999824       0.95160754       3.82295414      -0.00312436       0.00441980       0.00542021
O        2.20718301       3.38803536       6.80695726       0.00314200      -0.00444543      -0.00543761
O        2.20718343       3.38803507       3.82295381       0.00312781      -0.00442803       0.00542736
O        3.92999859       0.95160647       6.80695778      -0.00314391       0.00444973      -0.00544286
