9
Lattice="5.540663158650036 4.4500786437228866e-08 3.1989036808714046 1.846887688421264 5.223788182386057 3.198903807457439 -1.0701145017414076e-07 7.936716671055723e-08 6.397807547092066" Properties=species:S:1:pos:R:3:forces:R:3 energy=-26.75020980834961 free_energy=-26.75020980834961 stress="-1.7321903214906342e-05 -3.721529751032904e-08 -2.6709265910085378e-08 -3.721529751032904e-08 -1.7298169041168876e-05 1.846437669428269e-08 -2.6709265910085378e-08 1.846437669428269e-08 -1.733790304569993e-05" pbc="T T T"
Hg       1.84688737       1.30594688       3.19890383      -0.00000019      -0.00000044       0.00000067
Hg       5.54066303       3.91784134       9.59671082       0.00000079      -0.00000028       0.00000028
Si       0.00000007       0.00000001       0.00000033       0.00000211      -0.00000144      -0.00000363
S        1.84554692       1.30499966       6.39780789       0.00159562       0.00112906      -0.00000107
S        5.54200334       3.91878954       6.39780802      -0.00159729      -0.00112799      -0.00000184
S        4.61788931       1.30499970       4.79719452      -0.00079963       0.00113115       0.00138503
S        2.76966187       3.91878808       7.99841988       0.00079587      -0.00112396      -0.00137812
S        2.76966143       3.91878858       4.79719460       0.00079954      -0.00113189       0.00138158
S        4.61788952       1.30499946       7.99842021      -0.00079671       0.00112557      -0.00138327
