9
Lattice="4.57772665989913 -4.2199262159279496e-07 2.6429520399446687 1.5259086793065326 4.315920908343876 2.6429517099336737 2.531417144741071e-07 -2.2518109318463339e-07 5.285903641434944" Properties=species:S:1:pos:R:3:forces:R:3 energy=-38.97622299194336 free_energy=-38.97622299194336 stress="-4.6165227104211226e-05 -6.342157909955404e-09 -9.994202132546093e-10 -6.342157909955404e-09 -4.62662210338749e-05 -2.5196667863269795e-08 -9.994202132546093e-10 -2.5196667863269795e-08 -4.631799311027862e-05" pbc="T T T"
Hg       1.52590914       1.07897997       2.64295166      -0.00000033      -0.00000091      -0.00000070
Hg       4.57772657       3.23694032       7.92885523       0.00000048       0.00000030      -0.00000053
Si      -0.00000020      -0.00000019      -0.00000006      -0.00000183       0.00000446       0.00000988
O        1.43595882       1.01537566       5.28590312       0.00057161       0.00040197      -0.00000121
O        4.66767646       3.30054478       5.28590367      -0.00056756      -0.00040293       0.00000134
O        3.85974760       1.01537548       3.88652935      -0.00028318       0.00039840       0.00049055
O        2.24388822       3.30054431       6.68527887       0.00028443      -0.00040388      -0.00049543
O        2.24388796       3.30054473       3.88652918       0.00028080      -0.00040030       0.00048888
O        3.85974707       1.01537587       6.68527936      -0.00028437       0.00040233      -0.00049257
