9
Lattice="5.639397924944119 -8.869574552097405e-08 3.255907929789871 1.8797992975882443 5.316875655571132 3.2559078035289817 2.6343678574435733e-08 -1.3600944798738204e-07 6.511815813951149" Properties=species:S:1:pos:R:3:forces:R:3 energy=-24.357295989990234 free_energy=-24.357295989990234 stress="-3.91885487260879e-06 4.8271136421362826e-08 2.3692155792787162e-08 4.8271136421362826e-08 -3.910512077709427e-06 2.8816227626293767e-08 2.3692155792787162e-08 2.8816227626293767e-08 -4.008400082966546e-06" pbc="T T T"
Hg       1.87980042       1.32921963       3.25590745       0.00000018       0.00000113      -0.00000014
Hg       5.63939832       3.98765536       9.76772407       0.00000155      -0.00000129       0.00000074
Sn       0.00000059       0.00000115      -0.00000038      -0.00000900      -0.00003684       0.00000222
S        2.03128388       1.43633623       6.51181572      -0.00220247      -0.00155921      -0.00000048
S        5.48790982       3.88053809       6.51181537       0.00223543       0.00157355      -0.00000054
S        4.62375529       1.43633603       5.01505112       0.00110146      -0.00156313      -0.00191286
S        2.89544231       3.88053934       8.00857763      -0.00111602       0.00157149       0.00192787
S        2.89544297       3.88054006       5.01505439      -0.00111241       0.00157568      -0.00192878
S        4.62375548       1.43633572       8.00858081       0.00110123      -0.00156131       0.00191168
