9
Lattice="6.3703624666899845 -4.195809849463423e-07 3.677930662294975 2.123453779579674 6.006036128434187 3.6779306283446713 3.7260884002080554e-07 2.2189385668822578e-07 7.355860679212448" Properties=species:S:1:pos:R:3:forces:R:3 energy=-21.92278289794922 free_energy=-21.92278289794922 stress="-6.813533400418237e-05 1.0272579942238735e-07 -1.7235693405837083e-07 1.0272579942238735e-07 -6.849339843029156e-05 -1.1946190170419868e-07 -1.7235693405837083e-07 -1.1946190170419868e-07 -6.797794776502997e-05" pbc="T T T"
Hg       2.12345396       1.50150866       3.67793134       0.00000120       0.00000061      -0.00000073
Hg       6.37036176       4.50452616      11.03379145       0.00000062       0.00000068       0.00000020
Sr      -0.00000118       0.00000037      -0.00000100       0.00000517      -0.00000186      -0.00000391
Se       2.62595169       1.85682755       7.35586035      -0.00237255      -0.00168446      -0.00000154
Se       5.86786455       4.14920849       7.35586416       0.00236547       0.00168720       0.00002542
Se       5.05738445       1.85682646       5.95207230       0.00117101      -0.00169275      -0.00204585
Se       3.43642831       4.14921366       8.75965107      -0.00119451       0.00170634       0.00204960
Se       3.43643095       4.14920803       5.95206949      -0.00118575       0.00168044      -0.00205921
Se       5.05739198       1.85682429       8.75964864       0.00120937      -0.00169618       0.00203604
