9
Lattice="4.602920181579785 -3.1040545797140626e-07 2.6574983950997857 1.534306230669408 4.339678306403566 2.657498748214439 -9.8470844027029e-07 -2.638186740318626e-07 5.314998495764657" Properties=species:S:1:pos:R:3:forces:R:3 energy=-36.17390441894531 free_energy=-36.17390441894531 stress="-1.3253401448309887e-05 9.38356521373862e-08 -1.3785150088096998e-07 9.38356521373862e-08 -1.2420005987223703e-05 -3.085778388367544e-08 -1.3785150088096998e-07 -3.085778388367544e-08 -1.264850016013952e-05" pbc="T T T"
Hg       1.53430719       1.08491888       2.65749871      -0.00000571       0.00000341       0.00000013
Hg       4.60291929       3.25475866       7.97249627       0.00000127      -0.00000179      -0.00000316
S       -0.00000053       0.00000005      -0.00000124       0.00001089       0.00000169       0.00001915
O        1.34599318       0.95176372       5.31499879       0.00012994       0.00008273      -0.00000011
O        4.79123188       3.38791459       5.31499783      -0.00014234      -0.00009537      -0.00000091
O        3.92992282       0.95176225       3.82316566      -0.00006425       0.00008571       0.00010991
O        2.20730329       3.38791531       6.80683084       0.00007415      -0.00008714      -0.00011373
O        2.20730348       3.38791523       3.82316519       0.00006866      -0.00008190       0.00010538
O        3.92992091       0.95176189       6.80683070      -0.00007224       0.00009263      -0.00011635
