9
Lattice="5.012748057998095 1.284418745097308e-07 2.89411160478966 1.6709161368742953 4.726064424212154 2.8941116109462905 5.757813595200211e-08 4.825422750848834e-08 5.788223109851093" Properties=species:S:1:pos:R:3:forces:R:3 energy=-28.056955337524414 free_energy=-28.056955337524414 stress="3.0331149901030585e-05 -1.7766939919283686e-08 -2.0086183383227763e-08 -1.7766939919283686e-08 3.0430199331021868e-05 -1.370480118279005e-10 -2.0086183383227763e-08 -1.370480118279005e-10 3.0302637242130004e-05" pbc="T T T"
Hg       1.67091559       1.18151668       2.89411138      -0.00000168       0.00000172      -0.00000133
Hg       5.01274817       3.54454801       8.68233505      -0.00000024      -0.00000146       0.00000042
Sr       0.00000011      -0.00000012      -0.00000073       0.00000043       0.00000380       0.00001138
O        1.98589747       1.40424154       5.78822279      -0.00093788      -0.00066231      -0.00000041
O        4.69776718       3.32182305       5.78822283       0.00093564       0.00066120      -0.00000077
O        4.01979972       1.40424191       4.61394933       0.00047269      -0.00066497      -0.00081545
O        2.66386438       3.32182299       6.96249796      -0.00046681       0.00065687       0.00080816
O        2.66386478       3.32182292       4.61394899      -0.00046934       0.00066392      -0.00081166
O        4.01979973       1.40424144       6.96249770       0.00046737      -0.00065879       0.00080978
