9
Lattice="5.767747883465032 -5.751538599006211e-09 3.3300105484615723 1.9225826336399763 5.437884571977634 3.3300105289917132 5.350884991293297e-08 1.3990949112011163e-08 6.660021004243061" Properties=species:S:1:pos:R:3:forces:R:3 energy=-25.19709014892578 free_energy=-25.19709014892578 stress="3.740756437764503e-05 -6.018999521018031e-09 4.463601932513939e-09 -6.018999521018031e-09 3.739026578841731e-05 1.0960959251349323e-08 4.463601932513939e-09 1.0960959251349323e-08 3.737080987775698e-05" pbc="T T T"
Hg       1.92258255       1.35947099       3.33001055      -0.00000043      -0.00000031       0.00000011
Hg       5.76774790       4.07841343       9.99003139       0.00000006       0.00000015       0.00000037
Si      -0.00000013       0.00000009      -0.00000021       0.00000191      -0.00000251      -0.00000120
Se       1.96282613       1.38792763       6.66002135       0.00396525       0.00280405      -0.00000034
Se       5.72750446       4.04995731       6.66002122      -0.00396454      -0.00280432      -0.00000043
Se       4.78633499       1.38792727       5.02986777      -0.00198398       0.00280526       0.00343690
Se       2.90399559       4.04995697       8.29017429       0.00198195      -0.00280273      -0.00343294
Se       2.90399568       4.04995679       5.02986748       0.00198251      -0.00280246       0.00343313
Se       4.78633512       1.38792787       8.29017449      -0.00198270       0.00280284      -0.00343562
