9
Lattice="4.638277159420818 -8.345999099998857e-08 2.677910655220782 1.5460923894841045 4.3730091990147715 2.677910513716858 1.3844105351268524e-07 -7.541356392653213e-08 5.355821070654666" Properties=species:S:1:pos:R:3:forces:R:3 energy=-32.695167541503906 free_energy=-32.695167541503906 stress="4.026931037515169e-06 -2.9013438318514773e-09 3.552182903376888e-08 -2.9013438318514773e-09 3.913140517397551e-06 1.0404072048331159e-10 3.552182903376888e-08 1.0404072048331159e-10 3.920867129636463e-06" pbc="T T T"
Hg       1.54609239       1.09325240       2.67791023      -0.00000098       0.00000036       0.00000030
Hg       4.63827722       3.27975691       8.03373125      -0.00000050       0.00000074      -0.00000036
Se      -0.00000044       0.00000031      -0.00000001      -0.00000381       0.00000410      -0.00000309
O        1.50307684       1.06283550       5.35582109      -0.00074470      -0.00052822       0.00000019
O        4.68129313       3.31017315       5.35582131       0.00074697       0.00052702       0.00000080
O        3.88673869       1.06283546       3.97961354       0.00037366      -0.00053048      -0.00064504
O        2.29763105       3.31017337       6.73202924      -0.00037223       0.00052702       0.00064683
O        2.29763124       3.31017307       3.97961368      -0.00037193       0.00052798      -0.00064528
O        3.88673865       1.06283595       6.73202903       0.00037289      -0.00052834       0.00064492
