9
Lattice="6.540198400888362 -4.5537876797124707e-07 3.7759848979737134 2.180065701592493 6.166158146051849 3.775984902653306 5.127761571161106e-08 4.198999461008609e-08 7.551969707132008" Properties=species:S:1:pos:R:3:forces:R:3 energy=-21.300331115722656 free_energy=-21.300331115722656 stress="7.53226486267522e-05 1.791253367855461e-08 -5.585851781120255e-09 1.791253367855461e-08 7.533644384238869e-05 5.088203192116225e-10 -5.585851781120255e-09 5.088203192116225e-10 7.537881174357608e-05" pbc="T T T"
Hg       2.18006622       1.54153931       3.77598510       0.00000001      -0.00000021      -0.00000003
Hg       6.54019802       4.62461817      11.32795456      -0.00000028      -0.00000036      -0.00000005
Sn      -0.00000010      -0.00000128       0.00000059      -0.00000169       0.00000357      -0.00000392
Te       2.43749945       1.72357293       7.55196920      -0.00365698      -0.00258578       0.00000059
Te       6.28276690       4.44258648       7.55196968       0.00365578       0.00258398       0.00000106
Te       5.32144875       1.72357110       5.88692109       0.00182936      -0.00258665      -0.00316510
Te       3.39881435       4.44258631       9.21701906      -0.00182696       0.00258477       0.00316632
Te       3.39881425       4.44258645       5.88692066      -0.00182793       0.00258580      -0.00316525
Te       5.32144876       1.72357141       9.21701811       0.00182873      -0.00258510       0.00316632
