9
Lattice="5.762763871493213 -8.535244730203656e-08 3.3271331805774564 1.9209213909829173 5.433185954693411 3.327132867152049 2.997172270700684e-07 -1.7193413423990257e-07 6.654265842029435" Properties=species:S:1:pos:R:3:forces:R:3 energy=-27.05527687072754 free_energy=-27.05527687072754 stress="6.0504269640659913e-05 3.361639500099045e-08 -3.919944902008865e-08 3.361639500099045e-08 6.039503568899818e-05 -5.143906633975348e-08 -3.919944902008865e-08 -5.143906633975348e-08 6.0600250435527414e-05" pbc="T T T"
Hg       1.92092120       1.35829634       3.32713327       0.00000200       0.00000115       0.00000049
Hg       5.76276425       4.07488905       9.98139897      -0.00000029       0.00000007       0.00000350
Sc      -0.00000121      -0.00000106      -0.00000252       0.00000692       0.00000639       0.00001404
Se       2.18236834       1.54316651       6.65426681      -0.00000969      -0.00001071      -0.00000121
Se       5.50131754       3.89001794       6.65426717       0.00000905       0.00000171       0.00000090
Se       4.67158055       1.54316612       5.21711935       0.00000192      -0.00001033      -0.00000966
Se       3.01210635       3.89001813       8.09141302      -0.00000434       0.00000059      -0.00000032
Se       3.01210499       3.89002061       5.21711934      -0.00000799       0.00001267      -0.00001023
Se       4.67158026       1.54316919       8.09141208       0.00000244      -0.00000160       0.00000241
