9
Lattice="4.770692167390304 -2.886465374362898e-07 2.7543603806671717 1.5902305781954198 4.497851028634404 2.7543601591888067 1.255924582884049e-07 -1.8244714949608198e-07 5.508720543801793" Properties=species:S:1:pos:R:3:forces:R:3 energy=-32.81598663330078 free_energy=-32.81598663330078 stress="4.077422090631444e-06 2.2244838859819538e-08 2.032266799290028e-09 2.2244838859819538e-08 3.86181545763975e-06 -7.218825714971899e-08 2.032266799290028e-09 -7.218825714971899e-08 3.9912683860166e-06" pbc="T T T"
Hg       1.59023060       1.12446263       2.75436019      -0.00000010      -0.00000153      -0.00000008
Hg       4.77069153       3.37338792       8.26308088      -0.00000371      -0.00000048      -0.00000137
Sn      -0.00000041      -0.00000033      -0.00000006       0.00000705       0.00000553       0.00000346
O        1.69160271       1.19614336       5.50872057       0.00025570       0.00018227       0.00000007
O        4.66932043       3.30170704       5.50872076      -0.00025994      -0.00018865       0.00000037
O        3.92489070       1.19614298       4.21933054      -0.00013113       0.00018597       0.00022602
O        2.43603265       3.30170776       6.79811077       0.00013235      -0.00018603      -0.00022686
O        2.43603217       3.30170787       4.21933109       0.00012955      -0.00018120       0.00022566
O        3.92489096       1.19614299       6.79811046      -0.00013012       0.00018442      -0.00022745
