9
Lattice="5.937855623621322 -1.0846768262420088e-07 3.4282226039862302 1.9792851565258014 5.598264456510775 3.4282225157965365 -7.661442165692733e-08 -1.6218437419243196e-07 6.856445340672472" Properties=species:S:1:pos:R:3:forces:R:3 energy=-24.098730087280273 free_energy=-24.098730087280273 stress="-0.00011041109246434644 -5.4377782277015285e-09 1.3521888497791679e-08 -5.4377782277015285e-09 -0.00011042822006857023 7.81979458963633e-09 1.3521888497791679e-08 7.81979458963633e-09 -0.00011041352991014719" pbc="T T T"
Hg       1.97928578       1.39956622       3.42822285      -0.00000072       0.00000010       0.00000010
Hg       5.93785570       4.19869799      10.28466794       0.00000031      -0.00000002      -0.00000016
Sn      -0.00000026       0.00000011       0.00000004       0.00000015      -0.00000109      -0.00000051
Se       2.37853299       1.68187657       6.85644484      -0.00325352      -0.00229980      -0.00000092
Se       5.53860736       3.91638751       6.85644457       0.00325282       0.00230111      -0.00000124
Se       4.74858933       1.68187621       5.48809294       0.00162721      -0.00229990      -0.00281744
Se       3.16855180       3.91638731       8.22479834      -0.00162627       0.00230081       0.00281714
Se       3.16855142       3.91638819       5.48809268      -0.00162708       0.00230053      -0.00281650
Se       4.74858871       1.68187666       8.22479765       0.00162708      -0.00230174       0.00281951
