9
Lattice="5.6514833130871365 4.7818873887630206e-08 3.2628849458464138 1.8838277835767994 5.328269340376268 3.262885002200937 -5.3927365222188095e-08 3.088751832966327e-08 6.5257699850976865" Properties=species:S:1:pos:R:3:forces:R:3 energy=-23.653884887695312 free_energy=-23.653884887695312 stress="-4.2640429455786943e-05 -2.4408814525145317e-08 2.2283970224634686e-09 -2.4408814525145317e-08 -4.255329258739948e-05 6.88261536652135e-09 2.2283970224634686e-09 6.88261536652135e-09 -4.256465399521403e-05" pbc="T T T"
Hg       1.88382753       1.33206725       3.26288500      -0.00000033       0.00000068      -0.00000029
Hg       5.65148376       3.99620186       9.78865478      -0.00000111       0.00000046       0.00000005
Se       0.00000090      -0.00000062       0.00000015      -0.00003036       0.00001749      -0.00001277
S        1.80924814       1.27933195       6.52577041       0.00056452       0.00040007      -0.00000068
S        5.72606209       4.04893768       6.52577066      -0.00055188      -0.00038412      -0.00000069
S        4.74685981       1.27933236       4.82974037      -0.00027591       0.00038847       0.00047237
S        2.78845179       4.04893743       8.22179947       0.00027919      -0.00039667      -0.00048739
S        2.78845116       4.04893780       4.82973990       0.00028583      -0.00040507       0.00049418
S        4.74685897       1.27933223       8.22179913      -0.00026998       0.00037846      -0.00046504
