9
Lattice="6.993449424151184 4.8589343839234744e-08 4.037669932096097 2.3311498311397156 6.593487089117307 4.037669971450331 4.408921135029737e-09 5.131648520225701e-08 8.075339856555589" Properties=species:S:1:pos:R:3:forces:R:3 energy=-21.105478286743164 free_energy=-21.105478286743164 stress="-0.00013276663958095014 -4.277254994633495e-09 -3.933343872830619e-09 -4.277254994633495e-09 -0.00013275413948576897 -3.6172140283063925e-10 -3.933343872830619e-09 -3.6172140283063925e-10 -0.0001327620993833989" pbc="T T T"
Hg       2.33114969       1.64837166       4.03766995      -0.00000001       0.00000007      -0.00000017
Hg       6.99344951       4.94511533      12.11300976      -0.00000003      -0.00000027       0.00000021
Sr      -0.00000011      -0.00000004      -0.00000044      -0.00000009      -0.00000007      -0.00000045
Te       2.77044965       1.95900386       8.07533996      -0.00799581      -0.00565341       0.00000050
Te       6.55414972       4.63448349       8.07534005       0.00799517       0.00565336       0.00000049
Te       5.60822462       1.95900376       6.43694981       0.00399780      -0.00565341      -0.00692493
Te       3.71637472       4.63448324       9.71373005      -0.00399777       0.00565366       0.00692421
Te       3.71637453       4.63448333       6.43694981      -0.00399754       0.00565356      -0.00692448
Te       5.60822470       1.95900409       9.71373008       0.00399828      -0.00565349       0.00692463
