9
Lattice="6.305516611283968 -2.062943368575743e-07 3.6404918233363275 2.1018386386241588 5.944897931602516 3.6404918879551342 -3.724807304764641e-08 5.280325513012915e-08 7.280983711188007" Properties=species:S:1:pos:R:3:forces:R:3 energy=-21.856630325317383 free_energy=-21.856630325317383 stress="4.188935781712644e-05 5.425502713762853e-09 -7.859767059414935e-09 5.425502713762853e-09 4.187373997410759e-05 2.5447038254355903e-08 -7.859767059414935e-09 2.5447038254355903e-08 4.18724594055675e-05" pbc="T T T"
Hg       2.10183914       1.48622488       3.64049189       0.00000088       0.00000087       0.00000024
Hg       6.30551694       4.45867338      10.92147593       0.00000060       0.00000029      -0.00000013
Si       0.00000308       0.00000177       0.00000024      -0.00000900      -0.00000717       0.00000068
Te       2.19627549       1.55300198       7.28098336      -0.00036141      -0.00025470      -0.00000081
Te       6.21107503       4.39189417       7.28098311       0.00036883       0.00026174      -0.00000073
Te       5.20737762       1.55300222       5.54252483       0.00018229      -0.00025943      -0.00031505
Te       3.19997792       4.39189483       9.01944233      -0.00018221       0.00025710       0.00031659
Te       3.19997774       4.39189658       5.54252372      -0.00018232       0.00025951      -0.00031703
Te       5.20737792       1.55300132       9.01944416       0.00018236      -0.00025824       0.00031615
