9
Lattice="4.718073671761 1.3731226583466898e-07 2.7239811295614613 1.5726912736839873 4.4482428707835835 2.723981267598326 8.203113761375445e-09 1.7486035545274693e-07 5.447962244914724" Properties=species:S:1:pos:R:3:forces:R:3 energy=-37.620391845703125 free_energy=-37.620391845703125 stress="0.0007816278957761824 -1.8775008214788613e-08 -1.1938418253976124e-08 -1.8775008214788613e-08 0.0007816529832780361 -2.16410960263147e-08 -1.1938418253976124e-08 -2.16410960263147e-08 0.0007816782454028726" pbc="T T T"
Hg       1.57269137       1.11206071       2.72398106      -0.00000040      -0.00000025      -0.00000082
Hg       4.71807404       3.33618239       8.17194418      -0.00000011       0.00000042       0.00000155
Sc      -0.00000038       0.00000030      -0.00000038       0.00000194      -0.00000132       0.00000327
O        1.70373131       1.20471998       5.44796228      -0.00838369      -0.00592855      -0.00000109
O        4.58703368       3.24352307       5.44796191       0.00838399       0.00592858      -0.00000107
O        3.86620822       1.20472010       4.19945555       0.00419220      -0.00592828      -0.00726157
O        2.42455669       3.24352294       6.69646891      -0.00419211       0.00592765       0.00726116
O        2.42455699       3.24352289       4.19945607      -0.00419343       0.00592920      -0.00726217
O        3.86620782       1.20472025       6.69646904       0.00419155      -0.00592735       0.00726080
