9
Lattice="5.6267984678086815 6.359613004874801e-08 3.248633765281021 1.8755994886114387 5.304996874695476 3.2486338702728936 -8.654847581484275e-08 6.738928765133834e-08 6.497267680468387" Properties=species:S:1:pos:R:3:forces:R:3 energy=-28.39198112487793 free_energy=-28.39198112487793 stress="0.0001141238390118815 4.173431022991281e-08 -2.0019099267187812e-08 4.173431022991281e-08 0.00011405515397200361 2.0334475436811772e-08 -2.0019099267187812e-08 2.0334475436811772e-08 0.00011402990639908239" pbc="T T T"
Hg       1.87559989       1.32624940       3.24863393       0.00000007       0.00000032       0.00000039
Hg       5.62679853       3.97874868       9.74590232      -0.00000013       0.00000204       0.00000069
Sc      -0.00000082      -0.00000036      -0.00000065       0.00000652       0.00000264       0.00000501
S        2.02603813       1.43262532       6.49726763      -0.00367860      -0.00260357       0.00000011
S        5.47635967       3.87237158       6.49726736       0.00367644       0.00259985       0.00000080
S        4.61377966       1.43262502       5.00323410       0.00183657      -0.00260109      -0.00318517
S        2.88861803       3.87237192       7.99130121      -0.00184044       0.00259787       0.00318276
S        2.88861884       3.87237197       5.00323410      -0.00183705       0.00259974      -0.00318532
S        4.61377951       1.43262448       7.99130131       0.00183674      -0.00259779       0.00318073
