9
Lattice="5.9378865499660245 -8.822512311222601e-08 3.4282402829839884 1.9792954377237728 5.598292882955828 3.4282402756264596 -1.3669898272495002e-08 -1.8677253695838278e-08 6.856480589644915" Properties=species:S:1:pos:R:3:forces:R:3 energy=-24.098731994628906 free_energy=-24.098731994628906 stress="-7.583782280562446e-05 -2.1215964096654716e-08 9.487599150759252e-09 -2.1215964096654716e-08 -7.578319491585717e-05 -5.0269930440549615e-09 9.487599150759252e-09 -5.0269930440549615e-09 -7.577323412988335e-05" pbc="T T T"
Hg       1.97929554       1.39957313       3.42824026       0.00000044      -0.00000032      -0.00000035
Hg       5.93788643       4.19871955      10.28472096      -0.00000121      -0.00000014      -0.00000030
Sn      -0.00000003       0.00000012      -0.00000010      -0.00000044       0.00000008      -0.00000053
Se       2.37849366       1.68185004       6.85648004      -0.00196944      -0.00139132       0.00000005
Se       5.53868798       3.91644371       6.85648037       0.00196685       0.00139269      -0.00000104
Se       4.74864001       1.68184885       5.48807694       0.00098624      -0.00139162      -0.00170398
Se       3.16854296       3.91644346       8.22488488      -0.00098254       0.00139123       0.00170445
Se       3.16854217       3.91644330       5.48807681      -0.00098518       0.00139123      -0.00170361
Se       4.74863917       1.68184898       8.22488442       0.00098523      -0.00139193       0.00170521
