9
Lattice="6.211223713008229 4.586087164138116e-07 3.586051757724868 2.070408282696091 5.855998149722196 3.586051851291038 1.2070236984375708e-07 1.9994421448541554e-07 7.172103306387052" Properties=species:S:1:pos:R:3:forces:R:3 energy=-21.136127471923828 free_energy=-21.136127471923828 stress="2.582276465545874e-05 -2.993321146504968e-08 -3.054994834883473e-08 -2.993321146504968e-08 2.577195300546009e-05 3.885075816612016e-09 -3.054994834883473e-08 3.885075816612016e-09 2.574812424427364e-05" pbc="T T T"
Hg       2.07040921       1.46399954       3.58605184       0.00000352      -0.00000046       0.00000033
Hg       6.21122457       4.39199916      10.75815484      -0.00000023       0.00000093      -0.00000175
Sr      -0.00000077      -0.00000000       0.00000024       0.00000313      -0.00000025       0.00000012
S        2.45111050       1.73319626       7.17210399      -0.00047109      -0.00033489       0.00000005
S        5.83052200       4.12280219       7.17210431       0.00046872       0.00033430       0.00000245
S        4.98566717       1.73319646       5.70877481       0.00022846      -0.00033504      -0.00041084
S        3.29596331       4.12280151       8.63543207      -0.00023745       0.00033253       0.00040865
S        3.29596341       4.12280255       5.70877473      -0.00023134       0.00033340      -0.00040766
S        4.98566909       1.73319758       8.63543084       0.00023630      -0.00033049       0.00040857
