9
Lattice="4.769528853372331 -1.911077843348237e-07 2.7536888621486297 1.5898427446984875 4.496755157398237 2.753688907610403 -1.1927854801920686e-07 -2.866349144162136e-08 5.507377930893766" Properties=species:S:1:pos:R:3:forces:R:3 energy=-41.28417205810547 free_energy=-41.28417205810547 stress="-0.00011063517740694806 -4.227051775274049e-08 1.4952988180993998e-08 -4.227051775274049e-08 -0.00011039417586289346 6.711828604011316e-08 1.4952988180993998e-08 6.711828604011316e-08 -0.0001102733367588371" pbc="T T T"
Hg       1.58984318       1.12418900       2.75368888      -0.00000022      -0.00000114      -0.00000159
Hg       4.76952864       3.37256588       8.26106585      -0.00000000      -0.00000108      -0.00000225
Ti      -0.00000058      -0.00000074      -0.00000007       0.00000754       0.00000978      -0.00000145
O        1.57304284       1.11230959       5.50737751       0.00261915       0.00185168      -0.00000080
O        4.78632921       3.38444641       5.50737791      -0.00263089      -0.00185812       0.00000322
O        3.98300746       1.11230954       4.11598472      -0.00130817       0.00185239       0.00226784
O        2.37636408       3.38444532       6.89877162       0.00131217      -0.00185496      -0.00226706
O        2.37636435       3.38444579       4.11598509       0.00131032      -0.00185084       0.00226879
O        3.98300661       1.11230913       6.89877128      -0.00130963       0.00185245      -0.00226623
