9
Lattice="4.820573328922064 -1.667926534094769e-07 2.7831591850911956 1.606857653812099 4.544879787642044 2.7831591248880105 -2.1924806528052814e-08 -8.923671227492213e-08 5.566318408157272" Properties=species:S:1:pos:R:3:forces:R:3 energy=-34.60369873046875 free_energy=-34.60369873046875 stress="-7.687201286898926e-05 -5.340027087186172e-08 1.7800116935973165e-08 -5.340027087186172e-08 -7.6916410762351e-05 -7.733267892717777e-08 1.7800116935973165e-08 -7.733267892717777e-08 -7.682743307668716e-05" pbc="T T T"
Hg       1.60685753       1.13622015       2.78315915      -0.00000015       0.00000032       0.00000036
Hg       4.82057309       3.40865966       8.34947754      -0.00000086       0.00000115       0.00000005
Te      -0.00000012       0.00000002       0.00000008      -0.00000224      -0.00000316      -0.00000067
O        1.57694293       1.11506657       5.56631835       0.00089532       0.00063473       0.00000041
O        4.85048833       3.42981278       5.56631836      -0.00089234      -0.00063157      -0.00000001
O        4.03210176       1.11506688       4.14883199      -0.00044718       0.00063336       0.00077397
O        2.39532917       3.42981288       6.98380508       0.00044712      -0.00063294      -0.00077474
O        2.39532935       3.42981268       4.14883174       0.00044441      -0.00062972       0.00077134
O        4.03210177       1.11506660       6.98380472      -0.00044414       0.00062841      -0.00077039
