9
Lattice="4.770591122673373 -1.4856571193177906e-07 2.754301510805529 1.590196846261029 4.497756772072306 2.7543016053079468 -1.1855070670626312e-07 3.191336569173967e-08 5.50860322694685" Properties=species:S:1:pos:R:3:forces:R:3 energy=-41.284156799316406 free_energy=-41.284156799316406 stress="-7.773805555189028e-05 2.037305364410713e-07 1.0282850837484148e-07 2.037305364410713e-07 -7.76331071392633e-05 2.0973281777969532e-08 1.0282850837484148e-07 2.0973281777969532e-08 -7.792253018124029e-05" pbc="T T T"
Hg       1.59019672       1.12443937       2.75430153      -0.00000058       0.00000427       0.00000156
Hg       4.77059106       3.37331757       8.26290481      -0.00000087       0.00000034       0.00000142
Ti      -0.00000075       0.00000140       0.00000085       0.00000678      -0.00000649      -0.00000825
O        1.57289782       1.11220784       5.50860296       0.00661224       0.00467193      -0.00000013
O        4.78789168       3.38554898       5.50860301      -0.00661933      -0.00467986      -0.00000031
O        3.98414243       1.11220623       4.11646953      -0.00331530       0.00468665       0.00574386
O        2.37664478       3.38554986       6.90073682       0.00331458      -0.00467813      -0.00573504
O        2.37664495       3.38554931       4.11646968       0.00331393      -0.00467837       0.00573599
O        3.98414260       1.11220595       6.90073642      -0.00331160       0.00467908      -0.00573939
