9
Lattice="6.302927682789991 -2.9102348258620477e-07 3.6389971505512775 2.1009754992480727 5.94245755442228 3.6389973594980756 -1.938163163246207e-07 1.188578065116676e-07 7.277994636802147" Properties=species:S:1:pos:R:3:forces:R:3 energy=-27.079069137573242 free_energy=-27.079069137573242 stress="-8.585486284573562e-06 -7.674788804479249e-08 -6.145449482630738e-09 -7.674788804479249e-08 -8.526326382707339e-06 1.3288627087604254e-08 -6.145449482630738e-09 1.3288627087604254e-08 -8.502950549882371e-06" pbc="T T T"
Hg       2.10097572       1.48561410       3.63899736      -0.00000008      -0.00000033       0.00000135
Hg       6.30292719       4.45684297      10.91699166       0.00000071       0.00000110       0.00000203
Ti       0.00000150       0.00000084       0.00000452      -0.00000660      -0.00000499      -0.00002102
Te       2.22431463       1.57282878       7.27799444      -0.00477146      -0.00337633      -0.00000053
Te       6.17958653       4.36962816       7.27799394       0.00477898       0.00338075      -0.00000251
Te       5.19076970       1.57282952       5.56531068       0.00238805      -0.00337834      -0.00413493
Te       3.21313495       4.36962593       8.99067640      -0.00239567       0.00338835       0.00414744
Te       3.21313303       4.36962762       5.56531096      -0.00238828       0.00337751      -0.00413623
Te       5.19076870       1.57283167       8.99067666       0.00239437      -0.00338776       0.00414447
