9
Lattice="5.839228673620587 -1.9316502728267652e-08 3.371280259505258 1.9464095272476414 5.505277610032285 3.371280281007264 -4.2864674824329456e-08 -3.9754406360439426e-09 6.7425605932543125" Properties=species:S:1:pos:R:3:forces:R:3 energy=-22.955989837646484 free_energy=-22.955989837646484 stress="-7.128415745683014e-05 6.15688762195532e-08 -2.888917105536848e-09 6.15688762195532e-08 -7.130360609153286e-05 -1.5118613916342838e-08 -2.888917105536848e-09 -1.5118613916342838e-08 -7.13268673280254e-05" pbc="T T T"
Hg       1.94640938       1.37631942       3.37128019      -0.00000057       0.00000026      -0.00000053
Hg       5.83922859       4.12895791      10.11384037      -0.00000016      -0.00000033      -0.00000160
Te       0.00000012       0.00000009      -0.00000086      -0.00000315      -0.00000049       0.00002365
S        1.92851932       1.36366919       6.74256102       0.00320727       0.00226879       0.00000108
S        5.85711906       4.14160839       6.74256116      -0.00320512      -0.00226688       0.00000067
S        4.87496910       1.36366857       5.04142696      -0.00160158       0.00226468       0.00277466
S        2.91066908       4.14160861       8.44369441       0.00161037      -0.00227749      -0.00278807
S        2.91066887       4.14160899       5.04142702       0.00160196      -0.00226411       0.00277460
S        4.87496910       1.36366922       8.44369425      -0.00160897       0.00227565      -0.00278479
