9
Lattice="5.927789906941055 2.034815254075433e-07 3.4224112449761135 1.975930109850656 5.588774016517274 3.4224113332655466 5.0380188143010573e-08 1.437562219146279e-07 6.844822402691182" Properties=species:S:1:pos:R:3:forces:R:3 energy=-23.561264038085938 free_energy=-23.561264038085938 stress="0.0003420943394303322 -2.9530156098189764e-10 2.2526823073576452e-08 -2.9530156098189764e-10 0.00034212067839689553 2.2704291779973573e-09 2.2526823073576452e-08 2.2704291779973573e-09 0.0003421036817599088" pbc="T T T"
Hg       1.97592961       1.39719350       3.42241132       0.00000281       0.00000007      -0.00000296
Hg       5.92778988       4.19158050      10.26723444       0.00000091       0.00000082      -0.00000542
Te       0.00000019       0.00000019      -0.00000186      -0.00000161      -0.00000302       0.00001442
Se       2.41357664       1.70665671       6.84482081       0.00827366       0.00584978       0.00000986
Se       5.49014195       3.88211687       6.84482081      -0.00826022      -0.00584075       0.00001122
Se       4.72100062       1.70665914       5.51263186      -0.00412844       0.00582963       0.00715333
Se       3.18271806       3.88211904       8.17701533       0.00414073      -0.00586137      -0.00716498
Se       3.18272020       3.88211606       5.51263168       0.00411999      -0.00583377       0.00715163
Se       4.72100309       1.70665547       8.17701556      -0.00414792       0.00585866      -0.00716707
