9
Lattice="6.387188937722946 -5.966810470805164e-07 3.6876455381123763 2.129062269474388 6.0218992052069735 3.6876457930879014 -8.387361275760695e-08 2.5297252620322044e-07 7.375291221498034" Properties=species:S:1:pos:R:3:forces:R:3 energy=-30.468650817871094 free_energy=-30.468650817871094 stress="4.564095434034243e-06 -6.000640695447146e-08 -3.824636607419052e-08 -6.000640695447146e-08 4.637582151190145e-06 5.6302265960539444e-08 -3.824636607419052e-08 5.6302265960539444e-08 4.67810059490148e-06" pbc="T T T"
Hg       2.12906256       1.50547463       3.68764540      -0.00000041       0.00000033       0.00000017
Hg       6.38718836       4.51642401      11.06293671      -0.00000036       0.00000021      -0.00000020
Ta      -0.00000122       0.00000069      -0.00000001       0.00000546      -0.00000189       0.00000041
Te       2.25237713       1.59267081       7.37529154       0.00024128       0.00016987      -0.00000120
Te       6.26387438       4.42922753       7.37529138      -0.00024158      -0.00017215      -0.00000033
Te       5.26100000       1.59267157       5.63826298      -0.00011668       0.00016437       0.00020099
Te       3.25525214       4.42922724       9.11231878       0.00011434      -0.00016141      -0.00019763
Te       3.25525118       4.42922825       5.63826263       0.00011755      -0.00016743       0.00020331
Te       5.26099989       1.59267071       9.11232062      -0.00011961       0.00016812      -0.00020550
