9
Lattice="5.493423990857747 -6.111658447049603e-08 3.1716306037283424 1.8311414143435423 5.179249935234072 3.171630358333595 2.438660730418402e-07 -1.2810672181456982e-07 6.343260785068309" Properties=species:S:1:pos:R:3:forces:R:3 energy=-36.56757354736328 free_energy=-36.56757354736328 stress="-5.7341116189491004e-05 -1.8688413661038794e-07 1.9779303528366654e-08 -1.8688413661038794e-07 -5.722908827010542e-05 7.339775009995719e-09 1.9779303528366654e-08 7.339775009995719e-09 -5.7151351938955486e-05" pbc="T T T"
Hg       1.83114165       1.29481300       3.17163037      -0.00000136      -0.00000249       0.00000070
Hg       5.49342415       3.88443729       9.51489193       0.00000101      -0.00000097       0.00000010
Ta      -0.00000068      -0.00000011       0.00000109       0.00000449       0.00000437      -0.00000857
S        1.94760872       1.37716554       6.34326033       0.00364149       0.00257666       0.00000027
S        5.37695741       3.80208294       6.34326032      -0.00364718      -0.00257768       0.00000146
S        4.51961962       1.37716818       4.85830942      -0.00181594       0.00256915       0.00314794
S        2.80494625       3.80208233       7.82821232       0.00181637      -0.00256822      -0.00315018
S        2.80494606       3.80208238       4.85830896       0.00181413      -0.00256848       0.00315140
S        4.51961944       1.37716730       7.82821215      -0.00181303       0.00256760      -0.00314324
