9
Lattice="5.509105087613471 -2.111479986374277e-07 3.180683617017243 1.83636823138161 5.1940341527494995 3.1806834993834237 -1.6456572917441355e-07 -2.604370432945406e-07 6.361367519070769" Properties=species:S:1:pos:R:3:forces:R:3 energy=-32.01169204711914 free_energy=-32.01169204711914 stress="-1.2137236808484886e-05 6.330898827400233e-08 1.9881401414068023e-08 6.330898827400233e-08 -1.213049836223945e-05 4.542068055002346e-08 1.9881401414068023e-08 4.542068055002346e-08 -1.2237403097969946e-05" pbc="T T T"
Hg       1.83636813       1.29850767       3.18068329      -0.00000010      -0.00000125      -0.00000009
Hg       5.50910459       3.89552565       9.54205056      -0.00000120       0.00000073      -0.00000017
Ti      -0.00000153      -0.00000149      -0.00000002       0.00000828       0.00001127      -0.00000489
S        1.91043518       1.35088270       6.36136806      -0.00153407      -0.00108364      -0.00000019
S        5.43503762       3.84315141       6.36136742       0.00152767       0.00107969      -0.00000188
S        4.55388779       1.35088182       4.83516927       0.00076112      -0.00108197      -0.00132161
S        2.79158695       3.84315180       7.88756523      -0.00076388       0.00108247       0.00132483
S        2.79158625       3.84315290       4.83516875      -0.00076161       0.00107673      -0.00132076
S        4.55388745       1.35088237       7.88756610       0.00076392      -0.00108391       0.00132477
