9
Lattice="6.303318338135998 6.618392865425108e-07 3.6392225765487343 2.1011069782292995 5.942825957546491 3.6392221582080526 3.300774314681408e-07 -2.7896072661700484e-07 7.278444581386632" Properties=species:S:1:pos:R:3:forces:R:3 energy=-27.079084396362305 free_energy=-27.079084396362305 stress="1.152756522060372e-05 2.6924985263576673e-07 2.2342739214309404e-08 2.6924985263576673e-07 1.134461308538448e-05 -3.787326008364289e-08 2.2342739214309404e-08 -3.787326008364289e-08 1.1146902579639573e-05" pbc="T T T"
Hg       2.10110609       1.48570702       3.63922248       0.00000154      -0.00000058       0.00000134
Hg       6.30331962       4.45711966      10.91766724       0.00000085       0.00000072       0.00000110
Ti       0.00000269       0.00000114       0.00000332      -0.00001286      -0.00000407      -0.00001576
Te       2.22388041       1.57252308       7.27844426      -0.00033438      -0.00023460      -0.00000150
Te       6.18054322       4.37030189       7.27844410       0.00034177       0.00024404      -0.00000147
Te       5.19138049       1.57251793       5.56515582       0.00015223      -0.00021892      -0.00026857
Te       3.21304606       4.37030663       8.99173341      -0.00015558       0.00022374       0.00027192
Te       3.21304466       4.37030793       5.56515493      -0.00015358       0.00022005      -0.00026755
Te       5.19137928       1.57252013       8.99173163       0.00016003      -0.00023036       0.00028055
