9
Lattice="5.826941277003599 3.6530781723271505e-08 3.364186469743627 1.9423138054949989 5.493692336597909 3.3641864488684976 1.7379986917120318e-07 9.732842605345394e-08 6.728372638457129" Properties=species:S:1:pos:R:3:forces:R:3 energy=-29.860767364501953 free_energy=-29.860767364501953 stress="-1.0923316949629225e-05 1.2637976887219793e-08 -3.317602548236209e-08 1.2637976887219793e-08 -1.0912914149230346e-05 2.0697370928246528e-08 -3.317602548236209e-08 2.0697370928246528e-08 -1.09486973087769e-05" pbc="T T T"
Hg       1.94231389       1.37342329       3.36418633      -0.00000059      -0.00000036      -0.00000023
Hg       5.82694146       4.12026939      10.09255925      -0.00000002       0.00000031      -0.00000017
Ti       0.00000069       0.00000023       0.00000238      -0.00000290      -0.00000074      -0.00000794
Se       2.01204353       1.42272922       6.72837139       0.00065581       0.00046336       0.00000160
Se       5.75721203       4.07096365       6.72837098      -0.00065447      -0.00046331      -0.00000045
Se       4.82091862       1.42272933       5.10666656      -0.00032701       0.00046154       0.00057090
Se       2.94833464       4.07096325       8.35007902       0.00032916      -0.00046413      -0.00056677
Se       2.94833556       4.07096239       5.10666726       0.00032718      -0.00046278       0.00056976
Se       4.82092061       1.42272909       8.35007906      -0.00032715       0.00046603      -0.00056688
