9
Lattice="5.761167917262036 1.031600017319204e-07 3.3262117454067903 1.9203893830366578 5.431681419446901 3.3262117800087987 -5.0882684808147635e-09 3.8780707785754035e-08 6.652423499626649" Properties=species:S:1:pos:R:3:forces:R:3 energy=-33.64394760131836 free_energy=-33.64394760131836 stress="0.00011078276293119416 -8.325979194978572e-08 -6.199495139469491e-09 -8.325979194978572e-08 0.00011086058657383546 -8.788931360470542e-09 -6.199495139469491e-09 -8.788931360470542e-09 0.00011091463238699362" pbc="T T T"
Hg       1.92038915       1.35792069       3.32621162       0.00000029      -0.00000065       0.00000009
Hg       5.76116798       4.07376113       9.97863486      -0.00000011       0.00000022      -0.00000033
Ta       0.00000028       0.00000006      -0.00000088      -0.00000288      -0.00000241       0.00001098
Se       2.05586302       1.45371530       6.65242373       0.00828590       0.00585933      -0.00000050
Se       5.62569414       3.97796645       6.65242396      -0.00828411      -0.00585703      -0.00000041
Se       4.73323561       1.45371541       5.10664231      -0.00413899       0.00585278       0.00716808
Se       2.94832163       3.97796564       8.19820508       0.00414090      -0.00585526      -0.00717256
Se       2.94832156       3.97796614       5.10664255       0.00413890      -0.00585252       0.00716788
Se       4.73323578       1.45371542       8.19820495      -0.00413993       0.00585549      -0.00717306
