9
Lattice="4.777374056120627 2.215233050070434e-07 2.7582179545050645 1.5924581112786793 4.504152057276761 2.758218155912089 4.829249229801206e-08 2.8082017714491575e-07 5.516435825365064" Properties=species:S:1:pos:R:3:forces:R:3 energy=-46.67514419555664 free_energy=-46.67514419555664 stress="-2.2601871023653075e-05 1.3412339683327446e-07 -2.5754380850173675e-09 1.3412339683327446e-07 -2.279895852552727e-05 -2.583987779303243e-08 -2.5754380850173675e-09 -2.583987779303243e-08 -2.2932734282221645e-05" pbc="T T T"
Hg       1.59245691       1.12603767       2.75821789      -0.00000415      -0.00000216       0.00000013
Hg       4.77737402       3.37811463       8.27465532      -0.00000202      -0.00000053       0.00000427
Ta      -0.00000011      -0.00000034       0.00000022       0.00000011       0.00000151       0.00000363
O        1.61983173       1.14539453       5.51643570       0.00029618       0.00021046      -0.00000019
O        4.75000098       3.35875864       5.51643541      -0.00029933      -0.00021064      -0.00000222
O        3.96745904       1.14539385       4.16103263      -0.00015083       0.00021571       0.00026250
O        2.40237336       3.35875892       6.87183935       0.00015500      -0.00021785      -0.00026685
O        2.40237388       3.35875902       4.16103247       0.00015536      -0.00021350       0.00026518
O        3.96745912       1.14539368       6.87183879      -0.00015026       0.00021619      -0.00026649
