9
Lattice="5.800315179331243 1.8005797626347976e-07 3.3488134169952763 1.9334385321389875 5.468590293767346 3.3488134702241434 -7.783281917484909e-08 1.0155713489245447e-08 6.697626968800867" Properties=species:S:1:pos:R:3:forces:R:3 energy=-30.181713104248047 free_energy=-30.181713104248047 stress="-5.3671585192205384e-05 2.6420609700039677e-08 -6.506102767644961e-09 2.6420609700039677e-08 -5.369188875192776e-05 -1.6506440658758947e-08 -6.506102767644961e-09 -1.6506440658758947e-08 -5.3712476073997095e-05" pbc="T T T"
Hg       1.93343845       1.36714761       3.34881346       0.00000020       0.00000022       0.00000018
Hg       5.80031530       4.10144286      10.04644031      -0.00000001       0.00000017       0.00000040
V        0.00000023       0.00000023       0.00000097      -0.00000038      -0.00000121      -0.00000194
Se       1.95649695       1.38345266       6.69762690       0.00486749       0.00344253       0.00000045
Se       5.77725661       4.08513788       6.69762696      -0.00486618      -0.00344183       0.00000100
Se       4.82206673       1.38345250       5.04318925      -0.00243555       0.00344379       0.00421728
Se       2.91168656       4.08513826       8.35206425       0.00243397      -0.00344284      -0.00421634
Se       2.91168708       4.08513790       5.04318935       0.00243461      -0.00344305       0.00421588
Se       4.82206662       1.38345213       8.35206404      -0.00243416       0.00344232      -0.00421683
