9
Lattice="5.5290981051457475 -1.1830981922949127e-07 3.1922262966322634 1.8430326364739371 5.21288385217511 3.1922262164344026 1.6501130458269097e-07 1.8458678628579252e-08 6.384452307456546" Properties=species:S:1:pos:R:3:forces:R:3 energy=-32.740699768066406 free_energy=-32.740699768066406 stress="9.877057891571894e-06 2.5750972909577285e-08 1.2450394493157546e-08 2.5750972909577285e-08 9.85122187557863e-06 -2.96613773542731e-08 1.2450394493157546e-08 -2.96613773542731e-08 9.85020051302854e-06" pbc="T T T"
Hg       1.84303277       1.30322097       3.19222601       0.00000010      -0.00000006       0.00000010
Hg       5.52909771       3.90966275       9.57667877       0.00000085      -0.00000083      -0.00000002
V       -0.00000018       0.00000004      -0.00000014       0.00000031      -0.00000035      -0.00000017
S        1.83399742       1.29683189       6.38445267       0.00057536       0.00040779       0.00000118
S        5.53813373       3.91605179       6.38445295      -0.00057554      -0.00040731       0.00000147
S        4.61209938       1.29683190       4.78051390      -0.00029030       0.00040945       0.00050116
S        2.76003121       3.91605233       7.98839068       0.00028804      -0.00040835      -0.00050184
S        2.76003166       3.91605184       4.78051371       0.00028828      -0.00040767       0.00049877
S        4.61209992       1.29683136       7.98839053      -0.00028700       0.00040722      -0.00050077
