9
Lattice="6.18368010237928 -9.102496452907478e-07 3.570149929051094 2.0612267552587973 5.830029986234246 3.570148348282092 1.0461452109509145e-06 -1.1963020555426938e-06 7.140298046125526" Properties=species:S:1:pos:R:3:forces:R:3 energy=-26.893720626831055 free_energy=-26.893720626831055 stress="-2.2308902771328576e-05 -8.3363715930318e-08 1.5448803480921924e-07 -8.3363715930318e-08 -2.225646676379256e-05 -2.1785480441849359e-07 1.5448803480921924e-07 -2.1785480441849359e-07 -2.2179741790750995e-05" pbc="T T T"
Hg       2.06122721       1.45750609       3.57014944      -0.00000039      -0.00000339       0.00000060
Hg       6.18368057       4.37252120      10.71044687       0.00000065      -0.00000121       0.00000027
V        0.00000279      -0.00000204      -0.00000192      -0.00000413       0.00000682       0.00000240
Te       2.18059075       1.54191038       7.14029990       0.00196104       0.00139061      -0.00000051
Te       6.06431973       4.28811951       7.14029971      -0.00197279      -0.00138934       0.00000045
Te       5.09338508       1.54190879       5.45859524      -0.00098308       0.00139287       0.00170242
Te       3.15152086       4.28811907       8.82200363       0.00098864      -0.00139032      -0.00171489
Te       3.15152314       4.28811607       5.45859559       0.00097969      -0.00137950       0.00169386
Te       5.09338161       1.54191239       8.82199684      -0.00096957       0.00137337      -0.00168456
