9
Lattice="5.52910024247369 -2.2809417307273072e-07 3.1922275864299547 1.8430333162109456 5.212885360544492 3.1922273836027375 2.5286331508757273e-07 -6.961021116972622e-08 6.384454734887824" Properties=species:S:1:pos:R:3:forces:R:3 energy=-32.740699768066406 free_energy=-32.740699768066406 stress="1.4904363524692599e-05 2.6665205155040894e-08 1.0057705779331627e-08 2.6665205155040894e-08 1.493361469329102e-05 -4.042079559951617e-09 1.0057705779331627e-08 -4.042079559951617e-09 1.4885176824463997e-05" pbc="T T T"
Hg       1.84303393       1.30322137       3.19222726      -0.00000020       0.00000019       0.00000014
Hg       5.52910021       3.90966396       9.57668256       0.00000033       0.00000016       0.00000000
V       -0.00000055      -0.00000002      -0.00000032       0.00000318      -0.00000165      -0.00000109
S        1.83401003       1.29684090       6.38445438       0.00039226       0.00027752      -0.00000244
S        5.53812383       3.91604401       6.38445495      -0.00039232      -0.00028101      -0.00000050
S        4.61209566       1.29684037       4.78052630      -0.00019750       0.00028142       0.00034502
S        2.76003903       3.91604434       7.98838351       0.00019756      -0.00027788      -0.00034040
S        2.76003845       3.91604487       4.78052687       0.00019521      -0.00027710       0.00034180
S        4.61209455       1.29684055       7.98838351      -0.00019854       0.00027844      -0.00034234
