9
Lattice="4.681325971360921 -2.437201171893008e-07 2.702764648342463 1.5604417018390555 4.413597032335849 2.7027647502444347 -1.1711785269394684e-07 4.1988990807719656e-08 5.405529499539066" Properties=species:S:1:pos:R:3:forces:R:3 energy=-39.12995147705078 free_energy=-39.12995147705078 stress="8.679793972987682e-05 2.297904444503729e-08 -2.671835730438943e-08 2.297904444503729e-08 8.676113793626428e-05 1.631782708955143e-08 -2.671835730438943e-08 1.631782708955143e-08 8.666467329021543e-05" pbc="T T T"
Hg       1.56044129       1.10339881       2.70276482       0.00000147      -0.00000291       0.00000084
Hg       4.68132537       3.31019772       8.10829493      -0.00000155      -0.00000413       0.00000164
V        0.00000077      -0.00000214       0.00000056       0.00000120      -0.00000499       0.00000271
O        1.54153005       1.09002572       5.40552932      -0.00002027      -0.00000989       0.00000069
O        4.70023776       3.32357194       5.40552943       0.00001109       0.00001806       0.00000160
O        3.91056057       1.09002768       4.03776781       0.00001562      -0.00001132      -0.00002038
O        2.33120630       3.32357081       6.77329184      -0.00000918       0.00001216       0.00000656
O        2.33120601       3.32357080       4.03776707      -0.00000983       0.00001329      -0.00000393
O        3.91056109       1.09002584       6.77329058       0.00001127      -0.00001013       0.00000989
