9
Lattice="4.680498339011408 1.8858940217652373e-08 2.702286753578339 1.560166003287289 4.412816675107266 2.7022869744095646 -1.8718605142016637e-07 1.381013272255423e-07 5.404573831372362" Properties=species:S:1:pos:R:3:forces:R:3 energy=-39.12995529174805 free_energy=-39.12995529174805 stress="-2.8761416615452617e-05 -7.217423814154245e-08 -1.2456936815397057e-08 -7.217423814154245e-08 -2.8501612177933566e-05 -6.977457189805136e-08 -1.2456936815397057e-08 -6.977457189805136e-08 -2.847870382538531e-05" pbc="T T T"
Hg       1.56016594       1.10320503       2.70228710      -0.00000036       0.00000322      -0.00000151
Hg       4.68049780       3.30961200       8.10685992       0.00000127       0.00000055      -0.00000358
V        0.00000040       0.00000120      -0.00000148       0.00000315       0.00000352      -0.00000316
O        1.54151992       1.09002031       5.40457422      -0.00065589      -0.00046551       0.00000504
O        4.69914412       3.32279647       5.40457417       0.00065458       0.00046206       0.00000036
O        3.90973724       1.09001928       4.03728354       0.00032848      -0.00046909      -0.00057006
O        2.33092606       3.32279680       6.77186449      -0.00032961       0.00046545       0.00057364
O        2.33092610       3.32279609       4.03728320      -0.00032991       0.00046867      -0.00057662
O        3.90973777       1.09002015       6.77186427       0.00032920      -0.00046897       0.00057554
