9
Lattice="6.183760894795085 2.5833485780490437e-05 3.5701786156159008 2.0612780718947614 5.830084673316652 3.5701784696866183 3.2009424135460687e-06 2.0846818865899723e-06 7.14035168703936" Properties=species:S:1:pos:R:3:forces:R:3 energy=-26.893722534179688 free_energy=-26.893722534179688 stress="-2.9664120120287407e-06 -8.026091791180079e-07 -4.09555447333787e-08 -8.026091791180079e-07 -3.092826318606967e-06 8.151478603224405e-09 -4.09555447333787e-08 8.151478603224405e-09 -3.4625118132680655e-06" pbc="T T T"
Hg       2.06126580       1.45753767       3.57017558      -0.00003707      -0.00000627      -0.00000036
Hg       6.18378057       4.37259331      10.71054170       0.00001692      -0.00002283      -0.00001219
V        0.00001016       0.00001495       0.00000468       0.00000972       0.00000918       0.00000708
Te       2.18099053       1.54216402       7.14035071      -0.00057645      -0.00035091       0.00000501
Te       6.06409110       4.28795549       7.14034164       0.00045889       0.00029010       0.00001533
Te       5.09324586       1.54217915       5.45893849       0.00028676      -0.00034180      -0.00041526
Te       3.15175531       4.28791652       8.82177944      -0.00021326       0.00034015       0.00037133
Te       3.15176852       4.28790950       5.45892585      -0.00023456       0.00036617      -0.00038251
Te       5.09325993       1.54218046       8.82177559       0.00028911      -0.00028374       0.00041158
