9
Lattice="5.799017747690327 -6.165213525748317e-08 3.3480643583002987 1.9330058241317687 5.467366143073841 3.3480644165643336 -7.167202395006695e-08 2.067883578997775e-08 6.696128840740212" Properties=species:S:1:pos:R:3:forces:R:3 energy=-30.18171501159668 free_energy=-30.18171501159668 stress="-0.00018858659313991666 -4.5544212845527454e-10 6.122288453980218e-09 -4.5544212845527454e-10 -0.000188592923223041 -3.907741685793553e-09 6.122288453980218e-09 -3.907741685793553e-09 -0.00018861475109588355" pbc="T T T"
Hg       1.93300589       1.36684155       3.34806453      -0.00000007       0.00000017      -0.00000024
Hg       5.79901779       4.10052458      10.04419295      -0.00000057      -0.00000015      -0.00000042
V       -0.00000016      -0.00000004       0.00000018       0.00000061      -0.00000021       0.00000101
Se       1.95659236       1.38352008       6.69612911       0.00311676       0.00220503       0.00000248
Se       5.77543116       4.08384638       6.69612927      -0.00311780      -0.00220418       0.00000250
Se       4.82072106       1.38351975       5.04252279      -0.00155888       0.00220457       0.00269854
Se       2.91130153       4.08384712       8.34973449       0.00155967      -0.00220519      -0.00270037
Se       2.91130225       4.08384624       5.04252274       0.00155964      -0.00220497       0.00269811
Se       4.82072212       1.38351877       8.34973448      -0.00155933       0.00220518      -0.00270174
