9
Lattice="6.304823253086789 1.5974881820546695e-06 3.640090408256849 2.101609454580394 5.94424017117864 3.640090066304256 -1.1033832671948457e-07 -4.968233332959189e-07 7.280181007623917" Properties=species:S:1:pos:R:3:forces:R:3 energy=-29.96880340576172 free_energy=-29.96880340576172 stress="0.00031550900894217193 6.505807732537505e-07 1.490650802793425e-08 6.505807732537505e-07 0.00031509154359810054 -6.184242096196613e-08 1.490650802793425e-08 -6.184242096196613e-08 0.00031473205308429897" pbc="T T T"
Hg       2.10160680       1.48606021       3.64009059       0.00000100       0.00000189      -0.00000195
Hg       6.30482498       4.45818049      10.92027105      -0.00000177      -0.00000121       0.00000007
W        0.00000262       0.00000102      -0.00000762      -0.00000295      -0.00000701       0.00002912
Te       2.20094534       1.55630249       7.28018350       0.00335311       0.00237216       0.00000546
Te       6.20548886       4.38794137       7.28018676      -0.00335236      -0.00237794       0.00000057
Te       5.20435381       1.55629385       5.54615513      -0.00170508       0.00242075       0.00294768
Te       3.20207454       4.38794731       9.01420298       0.00171019      -0.00242282      -0.00295662
Te       3.20207626       4.38794605       5.54615929       0.00170665      -0.00240709       0.00293698
Te       5.20435744       1.55629234       9.01420438      -0.00170878       0.00242128      -0.00296143
