9
Lattice="5.627879115215965 1.764719665051992e-07 3.249257262569381 1.8759598170115077 5.306014390120602 3.2492573568619365 -1.2160741662529456e-07 2.9494885083652574e-08 6.498514735769001" Properties=species:S:1:pos:R:3:forces:R:3 energy=-37.23125076293945 free_energy=-37.23125076293945 stress="0.00034051580587401986 -5.024120675045651e-09 4.82881503671706e-08 -5.024120675045651e-09 0.0003404759045224637 -8.513212890193245e-08 4.82881503671706e-08 -8.513212890193245e-08 0.00034048123052343726" pbc="T T T"
Hg       1.87595952       1.32650406       3.24925695      -0.00000103      -0.00000012      -0.00000031
Hg       5.62787927       3.97951114       9.74777177      -0.00000021       0.00000034       0.00000019
W       -0.00000011      -0.00000006      -0.00000022      -0.00000168       0.00000453       0.00000321
S        1.86628057       1.31965830       6.49851468      -0.00472177      -0.00333806       0.00000099
S        5.63755892       3.98635563       6.49851499       0.00472078       0.00333780       0.00000037
S        4.69473908       1.31965948       4.86550269       0.00236124      -0.00333616      -0.00408801
S        2.80909940       3.98635547       8.13152688      -0.00235806       0.00333301       0.00408146
S        2.80909983       3.98635501       4.86550310      -0.00236277       0.00333959      -0.00408870
S        4.69473886       1.31965937       8.13152638       0.00236354      -0.00334102       0.00409100
