9
Lattice="5.880670175879601 2.528917871732634e-07 3.395206180328646 1.9602235421383427 5.544349467735643 3.3952063331826055 -1.4559547697769438e-07 8.42554912718357e-08 6.790412612836323" Properties=species:S:1:pos:R:3:forces:R:3 energy=-34.27229309082031 free_energy=-34.27229309082031 stress="2.8327445761533454e-05 4.943630571574431e-08 1.331011478811206e-08 4.943630571574431e-08 2.8289567126194015e-05 -6.213882741690213e-09 1.331011478811206e-08 -6.213882741690213e-09 2.822684655257035e-05" pbc="T T T"
Hg       1.96022343       1.38608762       3.39520623       0.00000027      -0.00000033      -0.00000008
Hg       5.88067026       4.15826226      10.18561892      -0.00000063       0.00000037      -0.00000067
W        0.00000009       0.00000012      -0.00000007       0.00000008      -0.00000833       0.00000435
Se       1.96401012       1.38876469       6.79041229       0.00043627       0.00030687       0.00000024
Se       5.87688352       4.15558485       6.79041244      -0.00043219      -0.00030457       0.00000022
Se       4.89866586       1.38876460       5.09608876      -0.00022132       0.00031295       0.00038063
Se       2.94222765       4.15558551       8.48473625       0.00022088      -0.00031186      -0.00037955
Se       2.94222795       4.15558502       5.09608923       0.00021873      -0.00030907       0.00037673
Se       4.89866536       1.38876473       8.48473638      -0.00022212       0.00031395      -0.00038184
