9
Lattice="6.072266934152187 9.410057681941237e-08 3.505824629795774 2.02408907844703 5.724987888062397 3.5058246095697716 8.128520855873987e-08 3.270562599968235e-08 7.011649118801516" Properties=species:S:1:pos:R:3:forces:R:3 energy=-26.396352767944336 free_energy=-26.396352767944336 stress="0.00028646414284594357 1.5567065858590468e-08 -1.376742275738252e-08 1.5567065858590468e-08 0.0002865225833375007 -1.204449517899775e-08 -1.376742275738252e-08 -1.204449517899775e-08 0.00028657785151153803" pbc="T T T"
Hg       2.02408891       1.43124663       3.50582399      -0.00000087      -0.00000015       0.00000023
Hg       6.07226643       4.29374090      10.51747312      -0.00000085      -0.00000029      -0.00000019
Y       -0.00000106      -0.00000095      -0.00000233      -0.00000516      -0.00001912      -0.00002318
Se       2.36839425       1.67470578       7.01164631       0.00210154       0.00147355      -0.00002520
Se       5.72797135       4.05028501       7.01164662      -0.00202508      -0.00144760      -0.00002273
Se       4.88806683       1.67470858       5.55691491      -0.00107582       0.00149572       0.00182671
Se       3.20827889       4.05028785       8.46639219       0.00098764      -0.00142322      -0.00175349
Se       3.20828518       4.05027887       5.55691056       0.00104036      -0.00150015       0.00178967
Se       4.88807358       1.67469937       8.46638809      -0.00102179       0.00142126      -0.00179181
