9
Lattice="4.8524098123781965 4.0653116724387636e-08 2.8015400576407883 1.6174699421727918 4.574895820882624 2.8015401158632063 -3.604520308704354e-08 4.581978865151712e-08 5.603080177713708" Properties=species:S:1:pos:R:3:forces:R:3 energy=-37.09510040283203 free_energy=-37.09510040283203 stress="-2.9577988243545406e-05 -1.2953848660401945e-08 1.0056147026205053e-08 -1.2953848660401945e-08 -2.9568822355940938e-05 4.445066981162427e-09 1.0056147026205053e-08 4.445066981162427e-09 -2.9581911803688854e-05" pbc="T T T"
Hg       1.61746965       1.14372381       2.80154005      -0.00000147      -0.00000120      -0.00000024
Hg       4.85240990       3.43117185       8.40461985       0.00000067       0.00000029      -0.00000147
Y       -0.00000006       0.00000014       0.00000006       0.00000106      -0.00000187       0.00000017
O        1.80909397       1.27922285       5.60308018      -0.00395438      -0.00279538       0.00000021
O        4.66078568       3.29567323       5.60308041       0.00395334       0.00279619       0.00000022
O        3.94786276       1.27922262       4.36826167       0.00197761      -0.00279661      -0.00342345
O        2.52201697       3.29567316       6.83789881      -0.00197721       0.00279635       0.00342539
O        2.52201693       3.29567319       4.36826160      -0.00197759       0.00279728      -0.00342551
O        3.94786311       1.27922279       6.83789884       0.00197792      -0.00279516       0.00342450
