9
Lattice="5.727620696190889 -1.349479168962443e-07 3.3068427341795177 1.9092067202676581 5.400052414410475 3.306842822916799 -2.2355569533490401e-07 -4.9397189074123065e-08 6.61368585556862" Properties=species:S:1:pos:R:3:forces:R:3 energy=-20.522258758544922 free_energy=-20.522258758544922 stress="0.0002772570005618036 2.300611257055607e-08 2.4371624718355633e-08 2.300611257055607e-08 0.0002773354353848845 7.189422390752043e-09 2.4371624718355633e-08 7.189422390752043e-09 0.0002773396554403007" pbc="T T T"
Hg       1.90920699       1.35001339       3.30684259      -0.00000003      -0.00000240       0.00000047
Hg       5.72762023       4.05003928       9.92052854      -0.00000087      -0.00000046      -0.00000020
Zn      -0.00000126      -0.00000017      -0.00000193       0.00000222      -0.00000017       0.00000397
Se       2.21731332       1.56787724       6.61368641       0.00535189       0.00378675      -0.00000025
Se       5.41951497       3.83217612       6.61368542      -0.00535350      -0.00378310      -0.00000147
Se       4.61896385       1.56787718       5.22709323      -0.00267757       0.00378627       0.00463875
Se       3.01786211       3.83217469       8.00027960       0.00267427      -0.00378536      -0.00463809
Se       3.01786379       3.83217359       5.22709264       0.00267865      -0.00378765       0.00463648
Se       4.61896471       1.56787744       8.00027902      -0.00267505       0.00378609      -0.00463960
