9
Lattice="4.817814252020397 -1.4375350743529152e-07 2.78156659104781 1.605937925550251 4.54227911936598 2.7815666307541154 -1.3536875709116276e-07 -4.709008865763435e-08 5.563133416561185" Properties=species:S:1:pos:R:3:forces:R:3 energy=-41.81419372558594 free_energy=-41.81419372558594 stress="1.1997292858723085e-05 -6.803844598834985e-08 6.980344746665423e-09 -6.803844598834985e-08 1.1928746971534565e-05 7.190100737020089e-10 6.980344746665423e-09 7.190100737020089e-10 1.2015912943752483e-05" pbc="T T T"
Hg       1.60593747       1.13556909       2.78156692      -0.00000150      -0.00000141       0.00000001
Hg       4.81781410       3.40670951       8.34469895      -0.00000070      -0.00000028      -0.00000500
Zr      -0.00000023       0.00000020      -0.00000026      -0.00000139      -0.00000149      -0.00000070
O        1.71484289       1.21257700       5.56313358       0.00010830       0.00007665       0.00000333
O        4.70890913       3.32970199       5.56313380      -0.00010544      -0.00007576      -0.00000022
O        3.96039233       1.21257711       4.26666456      -0.00005290       0.00007403       0.00009239
O        2.46335992       3.32970188       6.85960210       0.00005433      -0.00007463      -0.00009060
O        2.46335943       3.32970163       4.26666493       0.00005075      -0.00007248       0.00009120
O        3.96039300       1.21257741       6.85960187      -0.00005144       0.00007498      -0.00009078
