9
Lattice="5.64024112961139 -2.6690430838874883e-08 3.2563949094825806 1.880080307123076 5.317670601897965 3.2563949861259442 1.394382098764779e-08 1.0372831196917779e-07 6.512789794813738" Properties=species:S:1:pos:R:3:forces:R:3 energy=-32.05168151855469 free_energy=-32.05168151855469 stress="4.44736797362566e-05 -4.303504663738522e-09 -2.5899105082771712e-08 -4.303504663738522e-09 4.4474385504145175e-05 5.286590720743334e-08 -2.5899105082771712e-08 5.286590720743334e-08 4.444544538273476e-05" pbc="T T T"
Hg       1.88008025       1.32941798       3.25639497       0.00000049      -0.00000039      -0.00000050
Hg       5.64024110       3.98825313       9.76918512      -0.00000082       0.00000067      -0.00000055
Zr       0.00000126       0.00000144      -0.00000068      -0.00001019      -0.00001302       0.00000578
S        2.03132621       1.43636492       6.51278999      -0.00387540      -0.00274226      -0.00000219
S        5.48899411       3.88130460       6.51279008       0.00389038       0.00275022       0.00000169
S        4.62457742       1.43636523       5.01557538       0.00194104      -0.00274801      -0.00336480
S        2.89574390       3.88130530       8.01000400      -0.00194164       0.00274846       0.00336519
S        2.89574391       3.88130565       5.01557585      -0.00194249       0.00274692      -0.00336288
S        4.62457762       1.43636454       8.01000419       0.00193847      -0.00274260       0.00335819
