9
Lattice="5.793179614627759 3.0986686914749176e-07 3.344693744002147 1.9310600569792504 5.461862966507472 3.3446939288269193 -5.6627978056055696e-08 1.863210861644762e-07 6.689387586087019" Properties=species:S:1:pos:R:3:forces:R:3 energy=-29.952470779418945 free_energy=-29.952470779418945 stress="8.036597864702344e-05 7.760474929341399e-09 2.1700259367207764e-08 7.760474929341399e-09 8.02268332336098e-05 -2.501678508792793e-08 2.1700259367207764e-08 -2.501678508792793e-08 8.027275180211291e-05" pbc="T T T"
Hg       1.93105998       1.36546592       3.34469379       0.00000064       0.00000026       0.00000048
Hg       5.79317973       4.09639760      10.03408099       0.00000114      -0.00000088       0.00000025
Zr       0.00000064      -0.00000038      -0.00000142      -0.00000564       0.00000259       0.00000668
Se       2.15102928       1.52100773       6.68938819       0.00579725       0.00409909       0.00000076
Se       5.57320951       3.94085491       6.68938846      -0.00579700      -0.00409929      -0.00000128
Se       4.71766468       1.52100817       5.20754020      -0.00289660       0.00409739       0.00501803
Se       3.00657575       3.94085586       8.17123581       0.00290162      -0.00410018      -0.00502161
Se       3.00657471       3.94085579       5.20754014       0.00289821      -0.00409814       0.00501890
Se       4.71766421       1.52100822       8.17123490      -0.00289963       0.00409913      -0.00502221
