9
Lattice="5.496090044900412 1.2794903826425163e-07 3.1731686501518923 1.832030150844943 5.181762615864893 3.17316862374385 1.1385055592564061e-07 4.8161487567238546e-08 6.346337103108765" Properties=species:S:1:pos:R:3:forces:R:3 energy=-20.575557708740234 free_energy=-20.575557708740234 stress="1.7229796867468394e-05 4.923356655694988e-08 1.3284622291109827e-08 4.923356655694988e-08 1.7232476238859817e-05 -1.0427064545126541e-08 1.3284622291109827e-08 -1.0427064545126541e-08 1.7221640518982895e-05" pbc="T T T"
Hg       1.83203056       1.29544017       3.17316818       0.00000017      -0.00000095      -0.00000328
Hg       5.49608948       3.88632190       9.51950576      -0.00000058      -0.00000057      -0.00000268
Zn       0.00000031      -0.00000032      -0.00000352      -0.00000211       0.00000326       0.00003351
S        1.93448546       1.36788781       6.34633711       0.00055449       0.00039366       0.00000077
S        5.39363461       3.81387532       6.34633718      -0.00055468      -0.00039230       0.00000173
S        4.52884701       1.36788840       4.84848208      -0.00027160       0.00038508       0.00047414
S        2.79927231       3.81387647       7.84419436       0.00028416      -0.00040235      -0.00049046
S        2.79927344       3.81387460       4.84848207       0.00027301      -0.00038620       0.00047497
S        4.52884803       1.36788684       7.84419430      -0.00028293       0.00040039      -0.00048873
