9
Lattice="6.2975592580138136 3.1776853072555506e-07 3.6358978823251435 2.0991869286045914 5.937395116909293 3.635897519163209 6.8603820194605e-07 4.0321566801840486e-08 7.271794576397351" Properties=species:S:1:pos:R:3:forces:R:3 energy=-18.220767974853516 free_energy=-18.220767974853516 stress="-1.9247552700107917e-05 1.600200683071762e-08 -1.1819312639715918e-08 1.600200683071762e-08 -1.925903961819131e-05 -7.780895927567144e-09 -1.1819312639715918e-08 -7.780895927567144e-09 -1.9161016098223627e-05" pbc="T T T"
Hg       2.09918654       1.48434846       3.63589761       0.00000085       0.00000091      -0.00000073
Hg       6.29756045       4.45304685      10.90769255      -0.00000041      -0.00000031      -0.00000061
Zn       0.00000096      -0.00000011      -0.00000260      -0.00000249       0.00000072       0.00000921
Te       2.29953897       1.62601879       7.27179547       0.00136680       0.00096485       0.00000090
Te       6.09720664       4.31137609       7.27179585      -0.00136332      -0.00096556       0.00000188
Te       5.14779039       1.62602034       5.62735740      -0.00068135       0.00096456       0.00118037
Te       3.24895589       4.31137790       8.91623183       0.00068351      -0.00096595      -0.00118546
Te       3.24895643       4.31137568       5.62735838       0.00068010      -0.00096504       0.00117957
Te       5.14779123       1.62601792       8.91623344      -0.00068371       0.00096578      -0.00118519
