9
Lattice="4.645590912046115 -1.425122429671042e-07 2.6821330184246377 1.5485301607233655 4.379904727857584 2.6821330338921805 -9.215833422919808e-08 -4.622203154424179e-08 5.364266196472174" Properties=species:S:1:pos:R:3:forces:R:3 energy=-27.275527954101562 free_energy=-27.275527954101562 stress="0.00016323773888871074 3.0203409551177174e-08 2.0732651151433856e-08 3.0203409551177174e-08 0.0001632026833249256 1.9463101352812373e-08 2.0732651151433856e-08 1.9463101352812373e-08 0.00016319398127961904" pbc="T T T"
Hg       1.54853037       1.09497626       2.68213298      -0.00000053      -0.00000020      -0.00000082
Hg       4.64559078       3.28492839       8.04639906      -0.00000064       0.00000041      -0.00000124
Zn      -0.00000057      -0.00000007      -0.00000080       0.00001479       0.00000337       0.00002647
O        1.60370076       1.13398764       5.36426612      -0.00723821      -0.00511786       0.00000004
O        4.59042064       3.24591710       5.36426600       0.00722674       0.00510982       0.00000023
O        3.84374035       1.13398769       4.07097865       0.00361988      -0.00511813      -0.00626782
O        2.35038026       3.24591730       6.65755406      -0.00361300       0.00510895       0.00625834
O        2.35038086       3.24591675       4.07097871      -0.00362006       0.00512150      -0.00627160
O        3.84374050       1.13398704       6.65755419       0.00361101      -0.00510812       0.00625652
