9
Lattice="4.64462183412267 7.646234702549204e-08 2.6815736043706333 1.548207326554216 4.378991369454397 2.6815736452055536 -8.704606300422569e-08 -1.1538472972485631e-08 5.363147359509473" Properties=species:S:1:pos:R:3:forces:R:3 energy=-36.74641036987305 free_energy=-36.74641036987305 stress="-0.00016018298629205674 -1.842828112330608e-08 4.038705725406544e-08 -1.842828112330608e-08 -0.00015985350182745606 1.1423624357576045e-07 4.038705725406544e-08 1.1423624357576045e-07 -0.00016031945415306836" pbc="T T T"
In       1.54820719       1.09474702       2.68157427      -0.00000157      -0.00000614       0.00000603
In       4.64462285       3.28424442       8.04471978       0.00000906       0.00000687      -0.00001065
Ag       0.00000004      -0.00000008      -0.00000027       0.00000265      -0.00000199       0.00001885
O        1.61173241       1.13966737       5.36314707      -0.00432324      -0.00305414      -0.00000000
O        4.58109642       3.23932440       5.36314821       0.00432056       0.00305218       0.00000506
O        3.83875476       1.13966639       4.07737538       0.00215653      -0.00306410      -0.00374311
O        2.35407365       3.23932518       6.64891922      -0.00215557       0.00305814       0.00373566
O        2.35407321       3.23932453       4.07737547      -0.00216460       0.00306153      -0.00374407
O        3.83875584       1.13966659       6.64891941       0.00215629      -0.00305206       0.00373232
