9
Lattice="4.628612907986168 4.860307081937631e-08 2.6723308082205257 1.5428710064686033 4.363898113109896 2.672330823260891 6.818361895517141e-08 6.663367146782067e-08 5.3446614983435685" Properties=species:S:1:pos:R:3:forces:R:3 energy=-38.480709075927734 free_energy=-38.480709075927734 stress="-2.100724304909818e-05 -1.027984737334009e-07 5.856329199360744e-09 -1.027984737334009e-07 -2.0894325643894263e-05 -3.556975869400958e-08 5.856329199360744e-09 -3.556975869400958e-08 -2.059634425677359e-05" pbc="T T T"
In       1.54287183       1.09097434       2.67232978       0.00000570      -0.00000331      -0.00001167
In       4.62861260       3.27292343       8.01699199      -0.00000258       0.00000013      -0.00000727
Au       0.00000017      -0.00000019       0.00000024      -0.00001111       0.00001513      -0.00003677
O        1.59011907       1.12438340       5.34466174      -0.00283465      -0.00201201       0.00000433
O        4.58136492       3.23951489       5.34466121       0.00283423       0.00200969       0.00000102
O        3.83355416       1.12438371       4.04941452       0.00142303      -0.00200745      -0.00245604
O        2.33793094       3.23951406       6.63990918      -0.00141956       0.00201142       0.00247121
O        2.33792970       3.23951464       4.04941440      -0.00141850       0.00200200      -0.00244811
O        3.83355267       1.12438455       6.63990961       0.00142375      -0.00201541       0.00248316
