9
Lattice="5.7512420813305525 -5.952681387396478e-07 3.3204811557510747 1.9170801532444661 5.422322916525306 3.3204811199116744 -1.9133732361793814e-07 -1.7919003649290012e-07 6.640962642908114" Properties=species:S:1:pos:R:3:forces:R:3 energy=-27.806438446044922 free_energy=-27.806438446044922 stress="2.019482053583488e-05 1.0427122987266557e-07 1.714675512687336e-08 1.0427122987266557e-07 2.0143485016888008e-05 4.5109946000820855e-08 1.714675512687336e-08 4.5109946000820855e-08 2.0140114429523237e-05" pbc="T T T"
In       1.91708090       1.35558078       3.32048141      -0.00000003      -0.00000014      -0.00000145
In       5.75124172       4.06674215       9.96144361      -0.00000047      -0.00000036      -0.00000061
Ag      -0.00000064      -0.00000064       0.00000081       0.00000033       0.00000074      -0.00000439
Se       2.21661539       1.56738425       6.64096256      -0.00044680      -0.00031501       0.00000217
Se       5.45170444       3.85493652       6.64096152       0.00044377       0.00031354      -0.00000014
Se       4.64293488       1.56738404       5.24012626       0.00022370      -0.00031400      -0.00038606
Se       3.02538724       3.85493956       8.04179808      -0.00022584       0.00031680       0.00038616
Se       3.02538886       3.85493943       5.24012655      -0.00022054       0.00031647      -0.00038464
Se       4.64293537       1.56738251       8.04179889       0.00022589      -0.00031807       0.00038899
