9
Lattice="5.5723066088575575 -4.384589241814135e-08 3.2171726159396945 1.8574355004789447 5.253620913367796 3.2171726063590347 3.7463274962302614e-08 1.4756689887619516e-08 6.4343451669910285" Properties=species:S:1:pos:R:3:forces:R:3 energy=-29.280059814453125 free_energy=-29.280059814453125 stress="3.930106231564423e-06 -3.127468417574164e-08 1.6521230605803794e-08 -3.127468417574164e-08 3.923588337784167e-06 -1.6332887042835864e-08 1.6521230605803794e-08 -1.6332887042835864e-08 3.919862592738355e-06" pbc="T T T"
In       1.85743594       1.31340545       3.21717262       0.00000023       0.00000125      -0.00000026
In       5.57230624       3.94021524       9.65151745      -0.00000140      -0.00000113      -0.00000012
Au      -0.00000039       0.00000016      -0.00000016       0.00000710      -0.00000393       0.00000043
S        1.95927800       1.38541868       6.43434465      -0.00042850      -0.00030220      -0.00000195
S        5.47046416       3.86820211       6.43434520       0.00042748       0.00030196      -0.00000126
S        4.59266754       1.38541884       4.91395675       0.00021279      -0.00030145      -0.00037009
S        2.83707462       3.86820164       7.95473403      -0.00021625       0.00030008       0.00037339
S        2.83707473       3.86820186       4.91395723      -0.00021482       0.00030383      -0.00037247
S        4.59266772       1.38541946       7.95473382       0.00021353      -0.00029850       0.00037247
