9
Lattice="5.6831100219746915 2.6171260075138215e-08 3.2811450943247227 1.894370078382151 5.358087374898462 3.2811450139873797 1.2775013277136749e-07 -8.059757263229368e-09 6.562289967379703" Properties=species:S:1:pos:R:3:forces:R:3 energy=-27.887617111206055 free_energy=-27.887617111206055 stress="-0.00014921158435754478 1.6045911266360235e-08 -1.3562949874312835e-08 1.6045911266360235e-08 -0.00014918703527655452 -2.0230446651225975e-08 -1.3562949874312835e-08 -2.0230446651225975e-08 -0.00014916813233867288" pbc="T T T"
In       1.89437010       1.33952210       3.28114557       0.00000052       0.00000122       0.00000314
In       5.68311028       4.01856499       9.84343472       0.00000049      -0.00000050      -0.00000143
Ag       0.00000014       0.00000021       0.00000127      -0.00000354      -0.00000353      -0.00001964
S        2.02253528       1.43014835       6.56228985       0.00042796       0.00030309      -0.00000016
S        5.55494479       3.92793886       6.56229097      -0.00042483      -0.00030178       0.00000578
S        4.67184214       1.43014829       5.03271168      -0.00021712       0.00030479       0.00037318
S        2.90563792       3.92793929       8.09186719       0.00021142      -0.00029790      -0.00036711
S        2.90563778       3.92793899       5.03271154       0.00021531      -0.00030538       0.00037265
S        4.67184250       1.43014846       8.09186752      -0.00021023       0.00030011      -0.00036633
