9
Lattice="6.358225465479353 1.6584662368455053e-07 3.6709232805256184 2.1194085475183577 5.994592644636287 3.6709234491172933 -5.79611689348104e-09 2.0238323287903095e-07 7.341846571090401" Properties=species:S:1:pos:R:3:forces:R:3 energy=-26.43354606628418 free_energy=-26.43354606628418 stress="-0.00013076484901830554 -2.8895646764226512e-08 -9.534865341720433e-09 -2.8895646764226512e-08 -0.0001307543134316802 -1.1294633672775944e-08 -9.534865341720433e-09 -1.1294633672775944e-08 -0.0001307602651650086" pbc="T T T"
In       2.11940863       1.49864826       3.67092322      -0.00000025       0.00000002      -0.00000001
In       6.35822525       4.49594494      11.01276956       0.00000007       0.00000014      -0.00000004
Ag      -0.00000014       0.00000031       0.00000041       0.00000011      -0.00000206      -0.00000065
Te       2.33623579       1.65196870       7.34184654      -0.00198640      -0.00140414       0.00000003
Te       6.14139804       4.34262425       7.34184715       0.00198720       0.00140525       0.00000060
Te       5.19010661       1.65196906       5.69416334       0.00099290      -0.00140495      -0.00172065
Te       3.28752746       4.34262365       8.98952959      -0.00099352       0.00140531       0.00172123
Te       3.28752723       4.34262338       5.69416369      -0.00099361       0.00140490      -0.00172126
Te       5.19010715       1.65196956       8.98952975       0.00099348      -0.00140443       0.00172082
