9
Lattice="5.832416699849812 2.353755959927615e-07 3.367347569830602 1.9441390793583475 5.498855626752244 3.367347643452773 4.357643597547134e-08 1.2098158354324626e-07 6.734695064184608" Properties=species:S:1:pos:R:3:forces:R:3 energy=-28.61647605895996 free_energy=-28.61647605895996 stress="-0.00023425192921422422 4.469627334913184e-09 -1.037253927194115e-08 4.469627334913184e-09 -0.00023427909763995558 -1.366982615991219e-08 -1.037253927194115e-08 -1.366982615991219e-08 -0.00023425986000802368" pbc="T T T"
In       1.94413887       1.37471392       3.36734725       0.00000045      -0.00000011      -0.00000048
In       5.83241695       4.12414206      10.10204261      -0.00000092      -0.00000025       0.00000000
Au       0.00000047       0.00000045       0.00000008      -0.00000109      -0.00000194       0.00000045
Se       2.27604178       1.60940420       6.73469517      -0.00658371      -0.00465584       0.00000024
Se       5.50051433       3.88945176       6.73469526       0.00658455       0.00465711       0.00000076
Se       4.69439571       1.60940463       5.33845748       0.00329160      -0.00465539      -0.00570224
Se       3.08215968       3.88945121       8.13093328      -0.00329129       0.00465515       0.00570135
Se       3.08215964       3.88945107       5.33845708      -0.00329188       0.00465636      -0.00570254
Se       4.69439588       1.60940466       8.13093290       0.00329226      -0.00465507       0.00570248
