9
Lattice="6.358927040333201 1.337593183975321e-07 3.671328470759448 2.1196422475066217 5.9952538961174335 3.671328861130594 -2.41604377010189e-07 3.0726497668982915e-07 7.342657359990005" Properties=species:S:1:pos:R:3:forces:R:3 energy=-27.718000411987305 free_energy=-27.718000411987305 stress="8.747253741603345e-05 -9.977508597103224e-09 -1.6319233964168234e-08 -9.977508597103224e-09 8.753107977099717e-05 3.7016654630406265e-08 -1.6319233964168234e-08 3.7016654630406265e-08 8.748849359108135e-05" pbc="T T T"
In       2.11964245       1.49881351       3.67132879      -0.00000019       0.00000019      -0.00000021
In       6.35892660       4.49644086      11.01398614       0.00000019       0.00000005      -0.00000002
Be       0.00000040      -0.00000008       0.00000123      -0.00000421       0.00000605      -0.00002388
Te       1.91754337       1.35590765       7.34265790      -0.00204603      -0.00144860       0.00000019
Te       6.56102609       4.63934664       7.34265813       0.00204808       0.00144903       0.00000046
Te       5.40015492       1.35590764       5.33196986       0.00102079      -0.00144678      -0.00177063
Te       3.07841396       4.63934602       9.35334366      -0.00102834       0.00145477       0.00177948
Te       3.07841277       4.63934745       5.33196900      -0.00101806       0.00144023      -0.00176343
Te       5.40015564       1.35590771       9.35334400       0.00102782      -0.00145501       0.00177810
