9
Lattice="5.4353249560185235 3.420045861396212e-07 3.13808566714723 1.8117750282810818 5.12447521241402 3.138086151261454 -7.252763724602178e-08 5.416313969873029e-07 6.276171459916365" Properties=species:S:1:pos:R:3:forces:R:3 energy=-29.17058563232422 free_energy=-29.17058563232422 stress="3.079807720496319e-05 1.5805785835709685e-07 7.421876802027327e-08 1.5805785835709685e-07 3.074657797697e-05 7.37892946744978e-08 7.421876802027327e-08 7.37892946744978e-08 3.123156784567982e-05" pbc="T T T"
In       1.81177675       1.28111840       3.13808510      -0.00000331       0.00000134      -0.00000345
In       5.43532487       3.84335890       9.41425564       0.00000329       0.00000056       0.00000043
Be       0.00000035      -0.00000088       0.00000172       0.00001437      -0.00000537      -0.00000517
Se       1.64189264       1.16099267       6.27616055      -0.00046331      -0.00033510      -0.00007414
Se       5.60520881       3.96348092       6.27616056       0.00047207       0.00031769      -0.00007356
Se       4.61437713       1.16098945       4.56000813       0.00022480      -0.00034529      -0.00038236
Se       2.63272201       3.96347833       7.99234248      -0.00023663       0.00030446       0.00043261
Se       2.63271944       3.96348591       4.56001277      -0.00023827       0.00035238      -0.00035405
Se       4.61437758       1.16100068       7.99234620       0.00022674      -0.00029039       0.00045991
