9
Lattice="4.948700005006269 -5.059385434670486e-07 2.8571326918547664 1.6495663753643441 4.665676398480391 2.857132373101275 5.417169536330085e-07 -7.339960778341118e-09 5.7142644454283555" Properties=species:S:1:pos:R:3:forces:R:3 energy=-30.753578186035156 free_energy=-30.753578186035156 stress="-0.00022458039165940136 6.963855980757216e-08 -2.2099823127064155e-07 6.963855980757216e-08 -0.00022400965099222958 -1.819583239637268e-08 -2.2099823127064155e-07 -1.819583239637268e-08 -0.00022462826746050268" pbc="T T T"
In       1.64957148       1.16641729       2.85713539      -0.00000740      -0.00000040       0.00001554
In       4.94870660       3.49925889       8.57140625       0.00000118       0.00000106      -0.00002494
Be      -0.00000051      -0.00000030      -0.00000025      -0.00000362      -0.00000137       0.00000007
S        1.68469283       1.19125823       5.71426217      -0.00356042      -0.00252450      -0.00001518
S        4.91357181       3.47441403       5.71426259       0.00356436       0.00249247       0.00003041
S        4.10634917       1.19125924       4.31611692       0.00177090      -0.00253211      -0.00308198
S        2.49191101       3.47441558       7.11240767      -0.00176850       0.00251052       0.00308090
S        2.49191618       3.47442201       4.31611840      -0.00178309       0.00253657      -0.00307724
S        4.10634927       1.19125849       7.11240891       0.00178666      -0.00248215       0.00307250
