9
Lattice="4.563893183726708 -1.5783321509152427e-08 2.6349647440718376 1.5212977053127927 4.302879476871311 2.634964757435419 -5.678205346934482e-08 -2.3784019076506503e-08 5.269929586493078" Properties=species:S:1:pos:R:3:forces:R:3 energy=-48.5476188659668 free_energy=-48.5476188659668 stress="-8.885645365808159e-05 -5.12323350410071e-10 1.832422569236769e-08 -5.12323350410071e-10 -8.886126306606457e-05 2.998252313091143e-08 1.832422569236769e-08 2.998252313091143e-08 -8.877870277501643e-05" pbc="T T T"
In       1.52129751       1.07572078       2.63496382      -0.00000201       0.00000787      -0.00000908
In       4.56389251       3.22715924       7.90489396      -0.00000453      -0.00000075      -0.00000486
Cr       0.00000007       0.00000009      -0.00000006      -0.00000054      -0.00000111      -0.00000021
O        1.50204147       1.06210369       5.26992974      -0.00032669      -0.00023237       0.00000332
O        4.58314932       3.24077539       5.26992947       0.00033033       0.00023082      -0.00000100
O        3.81287319       1.06210357       3.93577146       0.00016576      -0.00023332      -0.00027895
O        2.27231880       3.24077533       6.60408839      -0.00016284       0.00023210       0.00028682
O        2.27231818       3.24077541       3.93577077      -0.00016192       0.00022614      -0.00028381
O        3.81287208       1.06210407       6.60408871       0.00016263      -0.00022951       0.00028726
