9
Lattice="4.564274752834557 -5.521939454137889e-08 2.6351850508296817 1.521424922319773 4.303239486687056 2.6351849525018203 1.4697748239832005e-08 -1.100336785628348e-07 5.270370076202083" Properties=species:S:1:pos:R:3:forces:R:3 energy=-48.54761505126953 free_energy=-48.54761505126953 stress="-0.0001664135343162343 7.424224013341529e-10 -6.748004377499228e-09 7.424224013341529e-10 -0.00016651641635689884 -6.61135075574748e-08 -6.748004377499228e-09 -6.61135075574748e-08 -0.0001665273739490658" pbc="T T T"
In       1.52142496       1.07581002       2.63518409       0.00000274       0.00000221      -0.00000223
In       4.56427521       3.22743009       7.90555872       0.00000242       0.00000439       0.00002605
Cr       0.00000008       0.00000055      -0.00000009      -0.00000261      -0.00000656       0.00000280
O        1.50189674       1.06200140       5.27037007       0.00610089       0.00431672      -0.00000014
O        4.58380234       3.24123752       5.27036822      -0.00609154      -0.00431040      -0.00001055
O        3.81332630       1.06200149       3.93586534      -0.00305229       0.00431433       0.00528067
O        2.27237321       3.24123729       6.60487470       0.00304830      -0.00431925      -0.00528482
O        2.27237387       3.24123840       3.93586588       0.00304595      -0.00431043       0.00527939
O        3.81332606       1.06200048       6.60487373      -0.00305361       0.00430873      -0.00529125
