9
Lattice="5.217224356421415 -6.520918977772756e-08 3.012166173960094 1.739074812310568 4.918846682393861 3.0121660209911805 -1.5760924444545365e-07 -2.987943985706258e-07 6.024332620907242" Properties=species:S:1:pos:R:3:forces:R:3 energy=-39.10901641845703 free_energy=-39.10901641845703 stress="0.0004458146577235311 -1.7879640878959435e-08 4.416014220964826e-09 -1.7879640878959435e-08 0.0004457566828932613 2.4761982686527517e-08 4.416014220964826e-09 2.4761982686527517e-08 0.0004457348841242492" pbc="T T T"
In       1.73907439       1.22971316       3.01216537      -0.00000119      -0.00000010       0.00000197
In       5.21722437       3.68913511       9.03649977       0.00000022       0.00000194      -0.00000131
Cr      -0.00000017       0.00000024      -0.00000037       0.00000094      -0.00000024       0.00000000
S        1.81591796       1.28404788       6.02433232       0.00873595       0.00617665      -0.00000314
S        5.14038049       3.63479852       6.02433174      -0.00873819      -0.00617567      -0.00000114
S        4.30926569       1.28404727       4.58479799      -0.00436890       0.00617564       0.00756860
S        2.64703370       3.63479718       7.46386789       0.00436874      -0.00617680      -0.00756472
S        2.64703405       3.63479803       4.58479679       0.00436795      -0.00617906       0.00756598
S        4.30926537       1.28404785       7.46386785      -0.00436524       0.00617740      -0.00756609
