9
Lattice="5.339820227699726 1.5430262599950922e-07 3.082946224739856 1.779940248275171 5.0344305715303275 3.082946178152482 1.636762473393734e-07 5.8678803700273947e-08 6.165892165984298" Properties=species:S:1:pos:R:3:forces:R:3 energy=-36.77212905883789 free_energy=-36.77212905883789 stress="-5.615625559585169e-05 -1.0670717642824457e-08 1.1913627417925454e-08 -1.0670717642824457e-08 -5.61590823053848e-05 -1.457573262086953e-08 1.1913627417925454e-08 -1.457573262086953e-08 -5.6105451221810654e-05" pbc="T T T"
In       1.77994050       1.25860878       3.08294677       0.00000067       0.00000102      -0.00000006
In       5.33982107       3.77582251       9.24883773       0.00000031       0.00000004      -0.00000000
Co      -0.00000010      -0.00000004      -0.00000003       0.00000052      -0.00000028       0.00000129
S        1.76304370       1.24666034       6.16589183       0.00121552       0.00085770      -0.00000067
S        5.35671671       3.78777043       6.16589228      -0.00121629      -0.00085965      -0.00000126
S        4.45829851       1.24666056       4.60978645      -0.00060685       0.00085996       0.00105473
S        2.66146183       3.78776996       7.72199811       0.00060794      -0.00086142      -0.00105190
S        2.66146170       3.78776973       4.60978683       0.00060607      -0.00085811       0.00105233
S        4.45829868       1.24666076       7.72199839      -0.00060795       0.00086072      -0.00105439
