9
Lattice="4.165761274290926 -3.1375056006930006e-08 2.405103256053572 1.3885870661158028 3.9275173033825626 2.405103248664307 -3.0869016908880026e-08 -3.0877659776127985e-08 4.810206565573825" Properties=species:S:1:pos:R:3:forces:R:3 energy=-47.004295349121094 free_energy=-47.004295349121094 stress="-3.108691089437343e-05 -5.2434142361335034e-08 -8.854468092067691e-08 -5.2434142361335034e-08 -3.101260881521739e-05 -1.9891770008939602e-08 -8.854468092067691e-08 -1.9891770008939602e-08 -3.1249186577042565e-05" pbc="T T T"
In       1.38858708       0.98187942       2.40510302      -0.00000161      -0.00000174       0.00000080
In       4.16576121       2.94563802       7.21530962       0.00000006       0.00000004      -0.00000064
C       -0.00000291      -0.00000081      -0.00000172      -0.00004567      -0.00001411      -0.00003167
O        1.27734851       0.90322171       4.81020678       0.00008082       0.00005794       0.00000058
O        4.27700119       3.02429661       4.81020684      -0.00005376      -0.00004041       0.00000207
O        3.52708755       0.90322120       3.51131890      -0.00003254       0.00005472       0.00006878
O        2.02726113       3.02429602       6.10909514       0.00003767      -0.00004661      -0.00006044
O        2.02726151       3.02429612       3.51131951       0.00004172      -0.00005198       0.00007594
O        3.52708792       0.90322070       6.10909465      -0.00002563       0.00004268      -0.00005531
