9
Lattice="5.709856095934499 -6.468917572139327e-08 3.2965872636691564 1.903285267922123 5.383304260751693 3.2965873267154486 7.223959538957122e-08 1.2829678943362534e-07 6.593174402215757" Properties=species:S:1:pos:R:3:forces:R:3 energy=-36.277137756347656 free_energy=-36.277137756347656 stress="-4.583101599564543e-06 -5.970184702164261e-08 -1.061484766751164e-08 -5.970184702164261e-08 -4.515909949986963e-06 1.5692469546024768e-08 -1.061484766751164e-08 1.5692469546024768e-08 -4.532867478701519e-06" pbc="T T T"
In       1.90328572       1.34582595       3.29658755       0.00000158      -0.00000086       0.00000133
In       5.70985595       4.03747867       9.88976205      -0.00000114      -0.00000006       0.00000163
Cr      -0.00000044       0.00000004       0.00000023       0.00000273       0.00000037       0.00000020
Se       1.97848927       1.39900311       6.59317418       0.00054245       0.00038390      -0.00000049
Se       5.63465194       3.98430110       6.59317452      -0.00054537      -0.00038534      -0.00000141
Se       4.72061092       1.39900315       5.01000956      -0.00027111       0.00038293       0.00046832
Se       2.89253031       3.98430081       8.17633920       0.00026947      -0.00038309      -0.00046785
Se       2.89253042       3.98430091       5.01000956       0.00027159      -0.00038163       0.00046690
Se       4.72061164       1.39900357       8.17633903      -0.00027023       0.00038374      -0.00046864
