9
Lattice="4.457850488766964 -2.2282416108994755e-10 2.5737413193236236 1.485950101338451 4.20290211231745 2.5737414256261797 -1.8858723351402485e-07 -3.157859857220594e-09 5.147482965289922" Properties=species:S:1:pos:R:3:forces:R:3 energy=-41.52796936035156 free_energy=-41.52796936035156 stress="-0.0007074197055771947 -6.474720315452487e-09 9.147669288722682e-08 -6.474720315452487e-09 -0.0007075038156472147 -3.372434775883448e-08 9.147669288722682e-08 -3.372434775883448e-08 -0.0007076273905113339" pbc="T T T"
In       1.48595041       1.05072507       2.57374131       0.00000213      -0.00000353       0.00000049
In       4.45785070       3.15217640       7.72122381       0.00000174      -0.00000486      -0.00000304
Cu      -0.00000032      -0.00000079       0.00000106       0.00001410       0.00003204      -0.00004024
O        1.52172297       1.07602107       5.14748299      -0.00344241      -0.00242722      -0.00000036
O        4.42207752       3.12688186       5.14748311       0.00341713       0.00241643       0.00000109
O        3.69698854       1.07602020       3.89159210       0.00170845      -0.00241911      -0.00296313
O        2.24681156       3.12688136       6.40337353      -0.00171793       0.00242701       0.00297314
O        2.24681145       3.12688220       3.89159198      -0.00170544       0.00241518      -0.00295269
O        3.69698859       1.07602116       6.40337330       0.00172204      -0.00243589       0.00298405
