9
Lattice="5.697252632259461 5.497657551741771e-07 3.2893095618700405 1.899084691597694 5.371421948531381 3.289309626786554 -7.298823962309586e-09 7.434509174477518e-08 6.578619136381948" Properties=species:S:1:pos:R:3:forces:R:3 energy=-33.90435028076172 free_energy=-33.90435028076172 stress="6.028677034919383e-06 -6.775263905467455e-09 -5.6394435787865405e-09 -6.775263905467455e-09 6.023109108355129e-06 8.988547683941306e-10 -5.6394435787865405e-09 8.988547683941306e-10 6.0357201618899126e-06" pbc="T T T"
In       1.89908548       1.34285556       3.28930877       0.00000167       0.00000045       0.00000092
In       5.69725306       4.02856703       9.86792899       0.00000033       0.00000067       0.00000015
Co       0.00000088      -0.00000057       0.00000141      -0.00000807       0.00000536      -0.00000392
Se       1.88509055       1.33296086       6.57861814       0.00003976       0.00002725       0.00000081
Se       5.71124560       4.03846260       6.57861843      -0.00003835      -0.00002590       0.00000138
Se       4.75470693       1.33296226       4.92184606      -0.00001751       0.00002526       0.00003293
Se       2.84162901       4.03846160       8.23539330       0.00002163      -0.00003134      -0.00003403
Se       2.84162952       4.03846096       4.92184591       0.00001951      -0.00002895       0.00003633
Se       4.75470796       1.33295993       8.23539217      -0.00001897       0.00002726      -0.00003463
