9
Lattice="4.728592131734388 1.3142373420648952e-07 2.7300539875463854 1.576197510703825 4.4581593438034295 2.730053971002563 1.1350647114307235e-07 5.999921442690633e-08 5.460107778493746" Properties=species:S:1:pos:R:3:forces:R:3 energy=-38.50438690185547 free_energy=-38.50438690185547 stress="8.7274398538284e-05 3.94473822495911e-08 -1.406255449865057e-07 3.94473822495911e-08 8.725224324734882e-05 -1.1433053259679582e-07 -1.406255449865057e-07 -1.1433053259679582e-07 8.722565689822659e-05" pbc="T T T"
In       1.57619813       1.11453940       2.73005414       0.00000748      -0.00000441       0.00000221
In       4.72859303       3.34361967       8.19016418       0.00000893      -0.00000101       0.00002568
Ca       0.00000068      -0.00000005       0.00000007      -0.00000711      -0.00000063       0.00000333
O        1.76202717       1.24594201       5.46010853      -0.00663875      -0.00469035       0.00000562
O        4.54276153       3.21221851       5.46010667       0.00663787       0.00470296      -0.00001481
O        3.84757811       1.24594167       4.25601401       0.00331724      -0.00469057      -0.00575414
O        2.45721049       3.21221828       6.66420092      -0.00332720       0.00469463       0.00574036
O        2.45721120       3.21221768       4.25601389      -0.00331606       0.00469078      -0.00575282
O        3.84757862       1.24594106       6.66420057       0.00331765      -0.00470151       0.00574452
