9
Lattice="6.221894545404455 -2.011578032878856e-07 3.592212543591447 2.073964716739734 5.8660584899612935 3.592212443262483 7.780238298813063e-08 -6.786280307935005e-08 7.184424952425232" Properties=species:S:1:pos:R:3:forces:R:3 energy=-28.260311126708984 free_energy=-28.260311126708984 stress="-1.1861738130392041e-05 5.61586190883645e-08 -2.1904886793322476e-09 5.61586190883645e-08 -1.1932595043617766e-05 1.979465302781591e-08 -2.1904886793322476e-09 1.979465302781591e-08 -1.1819501196441706e-05" pbc="T T T"
In       2.07396465       1.46651445       3.59221256      -0.00000071       0.00000082       0.00000051
In       6.22189431       4.39954380      10.77663783      -0.00000133      -0.00000209       0.00000038
Ca       0.00000014       0.00000005       0.00000004      -0.00000031       0.00000057      -0.00000108
Se       2.45181379       1.73369413       7.18442444      -0.00594774      -0.00420587      -0.00000186
Se       5.84404553       4.13236370       7.18442440       0.00594755       0.00420507      -0.00000232
Se       4.99598743       1.73369435       5.71554499       0.00297311      -0.00420389      -0.00515049
Se       3.29987081       4.13236563       8.65330440      -0.00297783       0.00421187       0.00514867
Se       3.29987214       4.13236419       5.71554573      -0.00297120       0.00420422      -0.00514730
Se       4.99598861       1.73369259       8.65330531       0.00297844      -0.00421072       0.00515345
