9
Lattice="6.723034384652569 5.131630431861076e-09 3.8815457215105216 2.2410114866669857 6.33853750881036 3.8815456863880407 -1.3072521094361234e-08 -5.225977088000719e-08 7.763091465663287" Properties=species:S:1:pos:R:3:forces:R:3 energy=-27.621564865112305 free_energy=-27.621564865112305 stress="2.5595536499167792e-05 -9.962310087985315e-09 5.490647936312598e-09 -9.962310087985315e-09 2.5605238988646306e-05 2.1841599640026743e-09 5.490647936312598e-09 2.1841599640026743e-09 2.561691690061707e-05" pbc="T T T"
In       2.24101171       1.58463460       3.88154546       0.00000016      -0.00000009      -0.00000022
In       6.72303429       4.75390282      11.64463743       0.00000006       0.00000033       0.00000005
Ca      -0.00000002      -0.00000002      -0.00000015       0.00000012       0.00000042      -0.00000076
Te       2.56150466       1.81125760       7.76309139       0.00323290       0.00228642       0.00000021
Te       6.40254099       4.52727994       7.76309131      -0.00323247      -0.00228597      -0.00000106
Te       5.44228201       1.81125749       6.09987398      -0.00161652       0.00228589       0.00279977
Te       3.52176394       4.52727983       9.42630904       0.00161551      -0.00228542      -0.00279887
Te       3.52176398       4.52728013       6.09987396       0.00161655      -0.00228618       0.00279983
Te       5.44228187       1.81125745       9.42630907      -0.00161631       0.00228459      -0.00279897
