9
Lattice="4.468342837020459 4.45271731486576e-08 2.579798626969318 1.489447662326952 4.212793849194311 2.579798613102222 -5.187762533486467e-08 -5.3666676175763224e-08 5.15959734379333" Properties=species:S:1:pos:R:3:forces:R:3 energy=-44.94513702392578 free_energy=-44.94513702392578 stress="-6.42368286207784e-06 3.673976678442159e-08 -7.187161088495486e-08 3.673976678442159e-08 -6.300858785834862e-06 8.363296166713496e-10 -7.187161088495486e-08 8.363296166713496e-10 -6.411591130017769e-06" pbc="T T T"
In       1.48944690       1.05319886       2.57979901      -0.00000296       0.00000147       0.00000291
In       4.46834373       3.15959497       7.73939742       0.00000309      -0.00000211       0.00000484
Co      -0.00000026      -0.00000012      -0.00000073       0.00001407       0.00000605       0.00002375
O        1.45184038       1.02660643       5.15959699       0.00201368       0.00141990       0.00000250
O        4.50595043       3.18618788       5.15959658      -0.00202769      -0.00143000      -0.00000486
O        3.74242282       1.02660615       3.83712901      -0.00100398       0.00142169       0.00174463
O        2.21536718       3.18618799       6.48206517       0.00101149      -0.00143212      -0.00175601
O        2.21536736       3.18618704       3.83712904       0.00100413      -0.00142103       0.00173879
O        3.74242359       1.02660626       6.48206555      -0.00101259       0.00143611      -0.00175667
