9
Lattice="6.25019691737549 1.3104687473536228e-07 3.6085531826626003 2.083399040084169 5.892743086415812 3.6085532795301476 -4.674369710873799e-08 8.558521008096903e-08 7.2171064462874925" Properties=species:S:1:pos:R:3:forces:R:3 energy=-33.985469818115234 free_energy=-33.985469818115234 stress="-0.0003060806484427303 4.231660799547399e-09 -8.821463559627318e-09 4.231660799547399e-09 -0.00030608009546995163 1.3733589376840882e-08 -8.821463559627318e-09 1.3733589376840882e-08 -0.0003060877788811922" pbc="T T T"
In       2.08339900       1.47318601       3.60855323       0.00000014      -0.00000010       0.00000005
In       6.25019689       4.41955739      10.82565970       0.00000021       0.00000008       0.00000015
Cr       0.00000014      -0.00000010       0.00000004      -0.00000275       0.00000024      -0.00000177
Te       2.17147960       1.53546862       7.21710630       0.00222969       0.00157599      -0.00000016
Te       6.16211612       4.35727423       7.21710633      -0.00222790      -0.00157394      -0.00000007
Te       5.16445752       1.53546895       5.48911012      -0.00111446       0.00157510       0.00192982
Te       3.16913837       4.35727449       8.94510317       0.00111383      -0.00157527      -0.00193015
Te       3.16913870       4.35727460       5.48910966       0.00111542      -0.00157702       0.00193185
Te       5.16445734       1.53546899       8.94510306      -0.00111422       0.00157493      -0.00192972
