9
Lattice="6.202479708982928 7.063655944902972e-08 3.581003275626507 2.067493205846061 5.8477539716010725 3.5810034437712974 -6.082120130747373e-08 1.6292731985797987e-07 7.162006656598399" Properties=species:S:1:pos:R:3:forces:R:3 energy=-27.762065887451172 free_energy=-27.762065887451172 stress="-0.00013258872786536813 1.0314589182769396e-08 8.494187575536216e-09 1.0314589182769396e-08 -0.00013259783736430109 9.895544827998037e-09 8.494187575536216e-09 9.895544827998037e-09 -0.00013257097452878952" pbc="T T T"
In       2.06749295       1.46193831       3.58100323       0.00000002       0.00000016       0.00000041
In       6.20247974       4.38581584      10.74301016      -0.00000022      -0.00000026      -0.00000000
Cu      -0.00000089      -0.00000060       0.00000125       0.00000420       0.00000247      -0.00000461
Te       2.19888157       1.55484394       7.16200723      -0.00347003      -0.00245386       0.00000039
Te       6.07109212       4.29291066       7.16200661       0.00346723       0.00245158       0.00000006
Te       5.10303963       1.55484341       5.48529033       0.00173352      -0.00245219      -0.00300293
Te       3.16693340       4.29291034       8.83872214      -0.00173575       0.00245368       0.00300476
Te       3.16693372       4.29291118       5.48529037      -0.00173381       0.00245214      -0.00300277
Te       5.10303921       1.55484374       8.83872215       0.00173486      -0.00245369       0.00300453
