9
Lattice="5.90097709274045 -2.760546025280717e-07 3.4069306908203187 1.9669920340626328 5.563495447756502 3.406930811920884 -1.5379955957535348e-07 3.9564504607748725e-08 6.813861648029383" Properties=species:S:1:pos:R:3:forces:R:3 energy=-26.119131088256836 free_energy=-26.119131088256836 stress="-5.766271715401672e-05 4.195424452291263e-08 2.923703767976349e-08 4.195424452291263e-08 -5.7786848628893495e-05 -3.329427045173361e-08 2.923703767976349e-08 -3.329427045173361e-08 -5.769188646809198e-05" pbc="T T T"
In       1.96699270       1.39087427       3.40693013      -0.00000033      -0.00000204      -0.00000159
In       5.90097633       4.17262094      10.22079180      -0.00000019       0.00000144       0.00000167
Cd      -0.00000007      -0.00000018       0.00000004       0.00000055      -0.00000013      -0.00000031
Se       2.33036895       1.64782037       6.81386140      -0.00471878      -0.00333777      -0.00000013
Se       5.53759857       3.91567563       6.81386121       0.00471729       0.00333942      -0.00000154
Se       4.73579291       1.64781905       5.42508856       0.00236146      -0.00333983      -0.00408792
Se       3.13217637       3.91567670       8.20263298      -0.00236207       0.00334251       0.00408664
Se       3.13217725       3.91567567       5.42509148      -0.00235869       0.00333920      -0.00408530
Se       4.73579281       1.64781835       8.20263493       0.00236082      -0.00334284       0.00408842
