9
Lattice="5.197860172271804 2.3911536687679447e-07 3.0009855552087408 1.7326205485736164 4.900589063742442 3.000985094986398 1.841040853871544e-07 -4.334738608292068e-07 6.001970791539832" Properties=species:S:1:pos:R:3:forces:R:3 energy=-32.989768981933594 free_energy=-32.989768981933594 stress="0.0002040264953393489 -1.2830967399679594e-08 -4.127406327825156e-08 -1.2830967399679594e-08 0.00020401923393364996 -6.012739106608933e-08 -4.127406327825156e-08 -6.012739106608933e-08 0.00020374551240820438" pbc="T T T"
In       1.73261904       1.22514784       3.00098629      -0.00000778      -0.00000165       0.00000866
In       5.19786234       3.67544150       9.00295617      -0.00000190      -0.00000215       0.00001215
C        0.00000499       0.00000200      -0.00000605      -0.00005667      -0.00002120       0.00006458
S        1.57883175       1.11640164       6.00197017      -0.00740260      -0.00524032      -0.00002102
S        5.35164152       3.78418193       6.00196829       0.00739920       0.00522661      -0.00002878
S        4.40844303       1.11640524       4.36829968       0.00370288      -0.00521362      -0.00639737
S        2.52203377       3.78418886       7.63564661      -0.00369990       0.00524449       0.00638300
S        2.52204107       3.78418521       4.36829877      -0.00366294       0.00523943      -0.00640714
S        4.40844642       1.11640104       7.63564626       0.00372943      -0.00523180       0.00638562
