9
Lattice="4.1651391273922265 -9.086528980574384e-09 2.404743734825975 1.3883797659513841 3.926930693368605 2.40474362157145 -9.8848384059171e-08 -2.0860420507683026e-07 4.8094876408623985" Properties=species:S:1:pos:R:3:forces:R:3 energy=-47.004268646240234 free_energy=-47.004268646240234 stress="-0.0007588863372802734 7.23917708000954e-08 -1.1811319922117036e-07 7.23917708000954e-08 -0.0007588358712382615 -8.204197143868441e-08 -1.1811319922117036e-07 -8.204197143868441e-08 -0.0007586377905681729" pbc="T T T"
In       1.38838037       0.98173238       2.40474300      -0.00000007      -0.00000070       0.00000038
In       4.16513996       2.94519819       7.21423098      -0.00000248      -0.00000516      -0.00000555
C        0.00000121      -0.00000393      -0.00000633       0.00002626      -0.00005280      -0.00009041
O        1.27699964       0.90297517       4.80948798       0.00915515       0.00647783       0.00000617
O        4.27651884       3.02395661       4.80948919      -0.00914681      -0.00646377      -0.00000413
O        3.52663887       0.90297628       3.51065935      -0.00459397       0.00650692       0.00795603
O        2.02687835       3.02395620       6.10831892       0.00455117      -0.00644946      -0.00788689
O        2.02687933       3.02395581       3.51065890       0.00458503      -0.00647569       0.00793111
O        3.52663897       0.90297517       6.10831788      -0.00457472       0.00646102      -0.00790799
