9
Lattice="5.5670149438211345 -1.0359488579458623e-07 3.214117115033562 1.8556715030225925 5.248631486237988 3.2141171968687146 -8.371499811904994e-08 4.1031875752647764e-08 6.428234375065555" Properties=species:S:1:pos:R:3:forces:R:3 energy=-29.21642303466797 free_energy=-29.21642303466797 stress="-6.926069181645289e-05 -2.1502604141687698e-08 7.997619455579752e-09 -2.1502604141687698e-08 -6.921296153450385e-05 4.776741224787884e-09 7.997619455579752e-09 4.776741224787884e-09 -6.919413135619834e-05" pbc="T T T"
In       1.85567166       1.31215765       3.21411719      -0.00000118       0.00000003       0.00000148
In       5.56701455       3.93647358       9.64235197      -0.00000130      -0.00000055       0.00000077
Cu      -0.00000011       0.00000031      -0.00000055      -0.00000060      -0.00000172       0.00000137
Se       2.08511041       1.47439601       6.42823459      -0.00498435      -0.00352390      -0.00000120
Se       5.33757755       3.77423627       6.42823423       0.00498487       0.00352304      -0.00000093
Se       4.52445993       1.47439463       5.01987564       0.00249263      -0.00352271      -0.00431569
Se       2.89822689       3.77423511       7.83659285      -0.00249031       0.00352392       0.00431509
Se       2.89822587       3.77423612       5.01987587      -0.00249173       0.00352415      -0.00431576
Se       4.52445854       1.47439600       7.83659292       0.00249196      -0.00352226       0.00431487
