9
Lattice="6.510411485113422 5.1470175945344e-08 3.7587878198877642 2.1701371874363664 6.138074848882642 3.758787859369351 -6.357017127352632e-08 3.4039543823779727e-09 7.517575749882316" Properties=species:S:1:pos:R:3:forces:R:3 energy=-24.60566520690918 free_energy=-24.60566520690918 stress="-3.5680714063346386e-05 1.5923056206901265e-09 -1.6931728241686983e-09 1.5923056206901265e-09 -3.567754538380541e-05 1.125097237597572e-09 -1.6931728241686983e-09 1.125097237597572e-09 -3.569720502127893e-05" pbc="T T T"
In       2.17013714       1.53451868       3.75878791      -0.00000006       0.00000005       0.00000017
In       6.51041154       4.60355618      11.27636355       0.00000035      -0.00000000      -0.00000042
Cd      -0.00000000       0.00000003      -0.00000013      -0.00000025      -0.00000029       0.00000015
Te       2.42622384       1.71559952       7.51757594       0.00129588       0.00091614       0.00000001
Te       6.25432454       4.42247549       7.51757589      -0.00129519      -0.00091571       0.00000022
Te       5.29729948       1.71559950       5.85995922      -0.00064834       0.00091629       0.00112222
Te       3.38324928       4.42247549       9.17519199       0.00064778      -0.00091587      -0.00112191
Te       3.38324913       4.42247536       5.85995936       0.00064772      -0.00091635       0.00112161
Te       5.29729948       1.71559937       9.17519199      -0.00064786       0.00091571      -0.00112200
