9
Lattice="6.084363671871029 -9.473992204227697e-08 3.5128093471527526 2.0281212457936966 5.736392707688196 3.51280915462084 2.0970884981104053e-07 -8.751597508571172e-08 7.025618331079217" Properties=species:S:1:pos:R:3:forces:R:3 energy=-29.21657943725586 free_energy=-29.21657943725586 stress="5.3005143854534253e-05 1.1601034799468835e-08 -2.3250443348388217e-08 1.1601034799468835e-08 5.298354881233536e-05 1.0525316618270608e-08 -2.3250443348388217e-08 1.0525316618270608e-08 5.298461837810464e-05" pbc="T T T"
In       2.02812126       1.43409757       3.51280946      -0.00000143      -0.00000197       0.00000133
In       6.08436355       4.30229478      10.53842701       0.00000010       0.00000120      -0.00000080
Ca       0.00000008      -0.00000030       0.00000091       0.00000025       0.00000156      -0.00000299
S        2.30834447       1.63224536       7.02561893      -0.00240666      -0.00170189       0.00000304
S        5.80414068       4.10414685       7.02561933       0.00240674       0.00170281       0.00000281
S        4.93019141       1.63224566       5.51189369       0.00120268      -0.00170168      -0.00208569
S        3.18229368       4.10414764       8.53934236      -0.00120411       0.00170344       0.00208331
S        3.18229313       4.10414739       5.51189335      -0.00120258       0.00170086      -0.00208455
S        4.93019234       1.63224516       8.53934231       0.00120496      -0.00170431       0.00208367
