9
Lattice="5.198726262327435 1.2589525329218663e-07 3.0014856765765288 1.732908927887525 4.901405519542527 3.0014855811697085 3.617482387284098e-07 1.389455778458865e-07 6.00297072658674" Properties=species:S:1:pos:R:3:forces:R:3 energy=-32.989776611328125 free_energy=-32.989776611328125 stress="0.00016377885185647756 -1.5537395370301965e-07 -1.4313403084997844e-07 -1.5537395370301965e-07 0.00016404176130890846 -5.5214055549868135e-08 -1.4313403084997844e-07 -5.5214055549868135e-08 0.0001640479313209653" pbc="T T T"
In       1.73290719       1.22534909       3.00148647      -0.00000485      -0.00001036       0.00000850
In       5.19872624       3.67605202       9.00445967      -0.00000365      -0.00000822       0.00001512
C        0.00000181       0.00000221      -0.00000305      -0.00000940      -0.00000735      -0.00000021
S        1.57847569       1.11614990       6.00297022      -0.00006723      -0.00004840       0.00000250
S        5.35315708       3.78525455       6.00296732       0.00005984       0.00004983      -0.00001203
S        4.40948577       1.11615735       4.36848968       0.00004500      -0.00004584      -0.00007635
S        2.52214645       3.78525742       7.63745332      -0.00004858       0.00007910       0.00006658
S        2.52215257       3.78525220       4.36848930      -0.00002179       0.00006008      -0.00006837
S        4.40949008       1.11614836       7.63745430       0.00005034      -0.00006831       0.00006336
