9
Lattice="6.252614707444121 3.0030248099932614e-08 3.609948856725077 2.0842049236425026 5.89502173969892 3.6099488691119843 -4.507237274243872e-09 1.1983913335878637e-08 7.219897721256801" Properties=species:S:1:pos:R:3:forces:R:3 energy=-33.98552322387695 free_energy=-33.98552322387695 stress="-2.9067743525956757e-05 1.5631936634008525e-08 -1.3801404463720246e-08 1.5631936634008525e-08 -2.908422720793169e-05 2.4351278327117143e-08 -1.3801404463720246e-08 2.4351278327117143e-08 -2.908620808739215e-05" pbc="T T T"
In       2.08420481       1.47375560       3.60994896       0.00000030       0.00000018       0.00000002
In       6.25261478       4.42126613      10.82984663      -0.00000010       0.00000001      -0.00000026
Cr       0.00000037      -0.00000010       0.00000015      -0.00000248       0.00000024       0.00000078
Te       2.17248073       1.53617612       7.21989787       0.00038499       0.00027184      -0.00000009
Te       6.16433895       4.35884549       7.21989776      -0.00038403      -0.00027155       0.00000020
Te       5.16637435       1.53617587       5.49137250      -0.00019241       0.00027183       0.00033293
Te       3.17044507       4.35884617       8.94842283       0.00019319      -0.00027211      -0.00033344
Te       3.17044481       4.35884601       5.49137215       0.00019389      -0.00027418       0.00033468
Te       5.16637469       1.53617583       8.94842299      -0.00019345       0.00027368      -0.00033484
