9
Lattice="5.289423757361095 4.5931006902656347e-07 3.0538499687690726 1.7631415856713522 4.9869171722535155 3.053850141669483 3.9772117188923e-08 2.3988184890693976e-07 6.107699868650735" Properties=species:S:1:pos:R:3:forces:R:3 energy=-30.29558753967285 free_energy=-30.29558753967285 stress="8.816994522931054e-05 -2.9411390656264302e-08 5.72525005182456e-09 -2.9411390656264302e-08 8.815000910544768e-05 -3.481720867171134e-08 5.72525005182456e-09 -3.481720867171134e-08 8.821552182780579e-05" pbc="T T T"
In       1.76314143       1.24672912       3.05385004      -0.00000055      -0.00000045       0.00000044
In       5.28942375       3.74018865       9.16154999       0.00000024       0.00000036       0.00000062
Cu      -0.00000048      -0.00000021       0.00000044       0.00000594       0.00000176      -0.00000888
S        1.83916079       1.30048367       6.10770011       0.00477690       0.00337893       0.00000179
S        5.21340443       3.68643474       6.10770000      -0.00477982      -0.00338084      -0.00000266
S        4.36984301       1.30048324       4.64660984      -0.00239235       0.00338057       0.00414383
S        2.68272342       3.68643457       7.56879005       0.00238922      -0.00337449      -0.00413668
S        2.68272246       3.68643356       4.64660965       0.00239113      -0.00338307       0.00413972
S        4.36984252       1.30048437       7.56878995      -0.00239068       0.00337750      -0.00413823
