9
Lattice="5.8645058942516926 -1.5294311836999384e-07 3.3858739185821642 1.9548351519479317 5.529109121947798 3.3858739219420055 4.8608850165816414e-08 3.848659645936898e-08 6.771747752971345" Properties=species:S:1:pos:R:3:forces:R:3 energy=-25.757064819335938 free_energy=-25.757064819335938 stress="1.1046096005884465e-05 6.683376341243275e-08 -1.350532574662111e-09 6.683376341243275e-08 1.1118255315523129e-05 -1.709393870896747e-08 -1.350532574662111e-09 -1.709393870896747e-08 1.1190718396392185e-05" pbc="T T T"
In       1.95483414       1.38227747       3.38587370      -0.00000461       0.00000041      -0.00000063
In       5.86450631       4.14683181      10.15762130       0.00000336       0.00000030      -0.00000166
Cd       0.00000003       0.00000012       0.00000001      -0.00000016       0.00000040       0.00000136
S        2.20330815       1.55797720       6.77174640      -0.00123978      -0.00086471      -0.00000871
S        5.61603069       3.97113362       6.77174642       0.00123337       0.00087643      -0.00000700
S        4.76285357       1.55797484       5.29399614       0.00062749      -0.00087544      -0.00106227
S        3.05649284       3.97113264       8.24950217      -0.00060886       0.00087041       0.00107825
S        3.05648738       3.97113512       5.29399887      -0.00062829       0.00087361      -0.00106177
S        4.76285130       1.55797312       8.24949735       0.00061741      -0.00088158       0.00106251
