9
Lattice="5.697060108535748 -1.7284973547518947e-08 3.2891992408682045 1.8990200656103373 5.371239726674718 3.289199161664643 4.896422243480215e-08 -6.238119925772893e-08 6.578398396927942" Properties=species:S:1:pos:R:3:forces:R:3 energy=-33.90435028076172 free_energy=-33.90435028076172 stress="-3.992356505477801e-05 9.88354020847737e-09 -1.895539014640235e-08 9.88354020847737e-09 -3.992358688265085e-05 1.6236796351876137e-09 -1.895539014640235e-08 1.6236796351876137e-09 -3.992590427515097e-05" pbc="T T T"
In       1.89902004       1.34280960       3.28919917       0.00000069      -0.00000034       0.00000041
In       5.69706032       4.02842984       9.86759770       0.00000013       0.00000040      -0.00000009
Co       0.00000038       0.00000022       0.00000028      -0.00000301       0.00000000      -0.00000331
Se       1.88500948       1.33290324       6.57839843       0.00093216       0.00065944      -0.00000007
Se       5.71107058       4.03833672       6.57839842      -0.00093118      -0.00065855       0.00000064
Se       4.75455517       1.33290297       4.92166507      -0.00046669       0.00065954       0.00080852
Se       2.84152479       4.03833656       8.23513141       0.00046670      -0.00065937      -0.00080719
Se       2.84152488       4.03833657       4.92166523       0.00046708      -0.00065998       0.00080866
Se       4.75455523       1.33290288       8.23513146      -0.00046580       0.00065871      -0.00080743
