9
Lattice="4.69356143604613 7.437793102365872e-09 2.7098289706145726 1.5645204768255465 4.425132225224918 2.709828985975957 9.755599409152637e-09 2.5712050378633804e-08 5.41965792433191" Properties=species:S:1:pos:R:3:forces:R:3 energy=-34.78117370605469 free_energy=-34.78117370605469 stress="-0.00022396793065126985 6.186906098548661e-09 -4.064859382424402e-08 6.186906098548661e-09 -0.00022405543131753802 -1.7633361437674466e-08 -4.064859382424402e-08 -1.7633361437674466e-08 -0.00022394473489839584" pbc="T T T"
In       1.56451991       1.10628330       2.70982909      -0.00000368       0.00000248       0.00000211
In       4.69356105       3.31884886       8.12948764      -0.00000464      -0.00000256       0.00000807
Cd       0.00000018      -0.00000020      -0.00000007      -0.00000490       0.00000905       0.00000791
O        1.70608707       1.20638582       5.41965789       0.00548732       0.00388089       0.00000062
O        4.55199509       3.21874608       5.41965767      -0.00548738      -0.00388443      -0.00000491
O        3.84051789       1.20638599       4.18734374      -0.00273949       0.00388023       0.00474608
O        2.41756403       3.21874679       6.65197214       0.00274637      -0.00388351      -0.00475782
O        2.41756444       3.21874650       4.18734343       0.00274855      -0.00388184       0.00475085
O        3.84051804       1.20638592       6.65197195      -0.00274277       0.00387955      -0.00475323
