9
Lattice="6.200160371330395 4.039760277380065e-08 3.5796641277284023 2.0667202930497606 5.845567501605785 3.5796639005080997 5.707215193414049e-08 -2.3793090147618355e-07 7.1593281566051115" Properties=species:S:1:pos:R:3:forces:R:3 energy=-32.06269454956055 free_energy=-32.06269454956055 stress="-1.3463150935422163e-05 -3.7216906889625534e-08 6.215493675298944e-10 -3.7216906889625534e-08 -1.3434912943921518e-05 -1.519146586304032e-08 6.215493675298944e-10 -1.519146586304032e-08 -1.3439893336908426e-05" pbc="T T T"
In       2.06672058       1.46139163       3.57966404       0.00000019       0.00000031       0.00000067
In       6.20016112       4.38417565      10.73899231      -0.00000055      -0.00000017       0.00000036
Co      -0.00000129      -0.00000015       0.00000145       0.00000570      -0.00000208      -0.00001460
Te       1.99935407       1.41375662       7.15932997       0.00072335       0.00051189       0.00000128
Te       6.26752585       4.43181039       7.15932747      -0.00072642      -0.00051288       0.00000041
Te       5.20048319       1.41375774       5.31115681      -0.00036321       0.00051355       0.00062890
Te       3.06639753       4.43181051       9.00749829       0.00035923      -0.00050754      -0.00062106
Te       3.06639813       4.43180962       5.31115585       0.00036146      -0.00051226       0.00062591
Te       5.20048366       1.41375749       9.00749870      -0.00035974       0.00050916      -0.00062187
