9
Lattice="5.709207233659684 3.4660284286293275e-09 3.2962124268785122 1.9030690381133706 5.382692120923659 3.296212501427723 -4.9957314962611105e-08 5.597862941734157e-08 6.592424940285541" Properties=species:S:1:pos:R:3:forces:R:3 energy=-36.27713394165039 free_energy=-36.27713394165039 stress="-7.787994400132447e-05 -2.374674856753245e-08 8.810088658606219e-09 -2.374674856753245e-08 -7.782245666021481e-05 -7.2553651975226785e-09 8.810088658606219e-09 -7.2553651975226785e-09 -7.788468792568892e-05" pbc="T T T"
In       1.90306911       1.34567323       3.29621294       0.00000214       0.00000122      -0.00000059
In       5.70920686       4.03701886       9.88863688       0.00000065      -0.00000055       0.00000082
Cr      -0.00000006      -0.00000047      -0.00000051      -0.00000031       0.00000211       0.00000437
Se       1.97833892       1.39889721       6.59242504       0.00151530       0.00107107       0.00000098
Se       5.63393718       3.98379506       6.59242534      -0.00151546      -0.00107130       0.00000050
Se       4.72003768       1.39889737       5.00950441      -0.00075741       0.00106969       0.00130977
Se       2.89223857       3.98379541       8.17534548       0.00075729      -0.00107260      -0.00131365
Se       2.89223883       3.98379498       5.00950438       0.00075687      -0.00107008       0.00131102
Se       4.72003778       1.39889715       8.17534551      -0.00075916       0.00107041      -0.00131336
