9
Lattice="6.407048342303298 4.032246500971384e-07 3.699110677113973 2.135683165637709 6.040623008007631 3.6991106689626463 -7.624296724879604e-08 -6.389511520964806e-08 7.3982214862846405" Properties=species:S:1:pos:R:3:forces:R:3 energy=-33.7011833190918 free_energy=-33.7011833190918 stress="-0.00013968284474685788 2.565080023941846e-07 -1.1852794301603353e-08 2.565080023941846e-07 -0.0001398695894749835 3.485764565880345e-08 -1.1852794301603353e-08 3.485764565880345e-08 -0.0001400374312652275" pbc="T T T"
In       2.13568281       1.51015583       3.69911055      -0.00000029       0.00000006       0.00000022
In       6.40704877       4.53046750      11.09733230       0.00000013      -0.00000003       0.00000008
Fe       0.00000077       0.00000048      -0.00000266      -0.00002200      -0.00001206       0.00006739
Te       1.94855832       1.37783878       7.39822131       0.00457622       0.00323576      -0.00000107
Te       6.59417250       4.66278385       7.39822161      -0.00455642      -0.00322272      -0.00000122
Te       5.43276951       1.37783836       5.38661056      -0.00228664       0.00323430       0.00395941
Te       3.10996094       4.66278621       9.40983372       0.00230539      -0.00326028      -0.00399321
Te       3.10996162       4.66278516       5.38661021       0.00228962      -0.00323731       0.00396384
Te       5.43277050       1.37783719       9.40983372      -0.00230605       0.00326230      -0.00399545
