9
Lattice="4.555257061753469 -1.7404075357744655e-08 2.629978808344137 1.5184190332456298 4.29473745072583 2.62997875799368 -1.3084799481569334e-08 -7.091876643439224e-08 5.2599576393517955" Properties=species:S:1:pos:R:3:forces:R:3 energy=-45.31138610839844 free_energy=-45.31138610839844 stress="-4.802076546184253e-06 7.270841706485953e-08 4.925163388236342e-09 7.270841706485953e-08 -4.792619165527867e-06 2.805331078548079e-08 4.925163388236342e-09 2.805331078548079e-08 -4.8199740376730915e-06" pbc="T T T"
In       1.51841933       1.07368465       2.62997915      -0.00000114       0.00000069       0.00000373
In       4.55525650       3.22105320       7.88993661      -0.00000173       0.00000298      -0.00000006
Fe       0.00000009      -0.00000022       0.00000019       0.00000050       0.00000175      -0.00000131
O        1.48443213       1.04965210       5.25995746       0.00111313       0.00078683      -0.00000242
O        4.58924393       3.24508521       5.25995733      -0.00111078      -0.00078866       0.00000008
O        3.81304102       1.04965186       3.91553492      -0.00055928       0.00078635       0.00096089
O        2.26063529       3.24508550       6.60438013       0.00055783      -0.00078789      -0.00096150
O        2.26063515       3.24508547       3.91553465       0.00055908      -0.00078864       0.00096158
O        3.81304080       1.04965189       6.60438033      -0.00055760       0.00078651      -0.00096096
