9
Lattice="5.843228847081517 9.174652417263798e-08 3.373589709296932 1.9477430799806572 5.509048644856097 3.373589632300481 5.1554939387070066e-08 -5.7846150948225514e-08 6.747179329298096" Properties=species:S:1:pos:R:3:forces:R:3 energy=-36.027408599853516 free_energy=-36.027408599853516 stress="-0.00015886210894677788 8.05203370646268e-08 3.157765249284239e-08 8.05203370646268e-08 -0.0001589104940649122 -4.120726870837643e-08 3.157765249284239e-08 -4.120726870837643e-08 -0.0001589575840625912" pbc="T T T"
In       1.94774302       1.37726234       3.37358961       0.00000005       0.00000023       0.00000019
In       5.84322880       4.13178660      10.12076894       0.00000006      -0.00000029      -0.00000005
Fe      -0.00000006       0.00000007      -0.00000029       0.00000270      -0.00000341       0.00000769
Se       1.85953161       1.31488692       6.74717936       0.00473905       0.00335112       0.00000020
Se       5.93144046       4.19416157       6.74717955      -0.00473884      -0.00335127      -0.00000020
Se       4.91346352       1.31488673       4.98399060      -0.00237326       0.00335649       0.00411081
Se       2.87750839       4.19416229       8.51036819       0.00237386      -0.00335783      -0.00411227
Se       2.87750870       4.19416158       4.98399077       0.00236996      -0.00335166       0.00410444
Se       4.91346352       1.31488677       8.51036800      -0.00237367       0.00335664      -0.00411078
