9
Lattice="5.535753812371808 4.634775845465997e-07 3.1960683289270095 1.8452516728701016 5.21915907569184 3.1960683893607276 2.1253350967398103e-07 2.2429970172251322e-07 6.3921362897354355" Properties=species:S:1:pos:R:3:forces:R:3 energy=-38.20408630371094 free_energy=-38.20408630371094 stress="2.2371927116182633e-05 5.164781313737876e-08 1.0540092132416135e-09 5.164781313737876e-08 2.2300186174106784e-05 4.493979588460206e-08 1.0540092132416135e-09 4.493979588460206e-08 2.2302305296761915e-05" pbc="T T T"
In       1.84525077       1.30479009       3.19606790      -0.00000157       0.00000099      -0.00000085
In       5.53575458       3.91437030       9.58820422      -0.00000069       0.00000069       0.00000009
Fe       0.00000019       0.00000015       0.00000032       0.00000350      -0.00000269       0.00000325
S        1.77456005       1.25480286       6.39213613       0.00577539       0.00408384      -0.00000049
S        5.60644654       3.96435648       6.39213643      -0.00577682      -0.00408563       0.00000031
S        4.64847404       1.25480247       4.73288226      -0.00289005       0.00408790       0.00500602
S        2.73253078       3.96435651       8.05139145       0.00289223      -0.00408971      -0.00500673
S        2.73253143       3.96435721       4.73288203       0.00289109      -0.00408724       0.00500685
S        4.64847453       1.25480279       8.05139146      -0.00289282       0.00409141      -0.00500876
