9
Lattice="5.532067637108786 -3.746641840108527e-07 3.1939405676262385 1.8440223237756812 5.215683797628628 3.1939403401915327 -1.3284606633862344e-07 -3.724858853487187e-07 6.387881365348548" Properties=species:S:1:pos:R:3:forces:R:3 energy=-38.204097747802734 free_energy=-38.204097747802734 stress="-0.0001837207528296858 5.224096355505026e-08 -3.097136769270037e-09 5.224096355505026e-08 -0.0001837455201894045 -8.508833221343437e-11 -3.097136769270037e-09 -8.508833221343437e-11 -0.00018379972607363015" pbc="T T T"
In       1.84402203       1.30392106       3.19394132      -0.00000001       0.00000016       0.00000113
In       5.53206630       3.91176090       9.58182178      -0.00000131      -0.00000232       0.00000045
Fe       0.00000010      -0.00000099      -0.00000046      -0.00000361       0.00001523       0.00000276
S        1.77445618       1.25473049       6.38788143       0.00328475       0.00232276      -0.00000036
S        5.60163279       3.96095388       6.38788128      -0.00328875      -0.00232312      -0.00000067
S        4.64484020       1.25472987       4.73066451      -0.00164279       0.00232381       0.00284654
S        2.73125038       3.96095358       8.04509741       0.00164714      -0.00233024      -0.00285298
S        2.73125039       3.96095356       4.73066379       0.00164771      -0.00233069       0.00285077
S        4.64484041       1.25472948       8.04509782      -0.00164363       0.00232461      -0.00284791
