9
Lattice="5.843771837196117 -4.957303507827309e-08 3.373903243515704 1.947923880901824 5.509561483189868 3.3739032748524282 -1.1574318137038022e-07 -4.346326561697926e-08 6.747806687504361" Properties=species:S:1:pos:R:3:forces:R:3 energy=-36.02741622924805 free_energy=-36.02741622924805 stress="-2.2134368919068947e-05 2.530869913641709e-08 -2.096111550997648e-08 2.530869913641709e-08 -2.214399864897132e-05 1.3490379480174397e-08 -2.096111550997648e-08 1.3490379480174397e-08 -2.2150275981402956e-05" pbc="T T T"
In       1.94792367       1.37739023       3.37390318      -0.00000037      -0.00000008      -0.00000021
In       5.84377166       4.13217110      10.12170982      -0.00000023       0.00000038       0.00000003
Fe      -0.00000018      -0.00000011      -0.00000049       0.00000207       0.00000081       0.00002416
Se       1.85975961       1.31504880       6.74780653       0.00059733       0.00042203       0.00000006
Se       5.93193619       4.19451260       6.74780661      -0.00059861      -0.00042310      -0.00000025
Se       4.91389203       1.31504898       4.98450273      -0.00029637       0.00041831       0.00051329
Se       2.87780368       4.19451261       8.51111091       0.00030285      -0.00042859      -0.00052473
Se       2.87780366       4.19451269       4.98450259       0.00029676      -0.00041917       0.00051439
Se       4.91389210       1.31504855       8.51111109      -0.00030360       0.00042951      -0.00052646
