9
Lattice="6.40618524982728 5.7781265490177624e-08 3.6986130371010253 2.135395130456349 6.039809597169472 3.698613049738112 7.382556289861395e-08 6.76798642076797e-08 7.397225946332485" Properties=species:S:1:pos:R:3:forces:R:3 energy=-33.701171875 free_energy=-33.701171875 stress="9.810374467633665e-05 -2.788670983022712e-08 -2.5227326005961004e-08 -2.788670983022712e-08 9.813238284550607e-05 1.3912308638452942e-08 -2.5227326005961004e-08 1.3912308638452942e-08 9.81438352027908e-05" pbc="T T T"
In       2.13539509       1.50995241       3.69861307       0.00000024      -0.00000011       0.00000008
In       6.40618556       4.52985743      11.09583916      -0.00000012      -0.00000002      -0.00000008
Fe       0.00000005       0.00000001       0.00000084      -0.00000218      -0.00000146      -0.00001591
Te       1.94936405       1.37840886       7.39722591      -0.00673757      -0.00476412       0.00000001
Te       6.59221609       4.66140081       7.39722583       0.00673906       0.00476531      -0.00000014
Te       5.43150325       1.37840899       5.38681223       0.00336964      -0.00476496      -0.00583492
Te       3.11007728       4.66140055       9.40763934      -0.00337384       0.00477077       0.00584343
Te       3.11007736       4.66140067       5.38681238      -0.00336832       0.00476360      -0.00583437
Te       5.43150311       1.37840918       9.40763938       0.00337309      -0.00476897       0.00584209
