9
Lattice="4.450052470986161 -3.88593310512895e-07 2.5692395284375364 1.483350665674257 4.195548409882372 2.5692391675101494 -1.5390890920761804e-07 -5.508739249945536e-07 5.138479323453171" Properties=species:S:1:pos:R:3:forces:R:3 energy=-45.235374450683594 free_energy=-45.235374450683594 stress="-4.67023673991207e-05 -5.049352580499544e-08 1.7560464016241895e-07 -5.049352580499544e-08 -4.660950435209088e-05 1.641429037135822e-07 1.7560464016241895e-07 1.641429037135822e-07 -4.6830158680677414e-05" pbc="T T T"
In       1.48335059       1.04888561       2.56923839       0.00000148      -0.00000888      -0.00000870
In       4.45005489       3.14665965       7.70771353       0.00001368      -0.00000479      -0.00002624
Ge      -0.00000007      -0.00000023       0.00000004       0.00000353       0.00000055      -0.00000264
O        1.52494495       1.07829749       5.13847955      -0.00523949      -0.00371116       0.00000459
O        4.40845794       3.11724979       5.13848054       0.00523973       0.00371379       0.00000649
O        3.68758021       1.07829829       3.88988109       0.00261903      -0.00370330      -0.00453901
O        2.24582279       3.11724944       6.38707804      -0.00262606       0.00370592       0.00454783
O        2.24582048       3.11725045       3.88988265      -0.00263566       0.00371063      -0.00452960
O        3.68758028       1.07829867       6.38707871       0.00262409      -0.00370318       0.00454581
