9
Lattice="5.751100933359378 3.221773725490841e-07 3.320399641252015 1.917033781349103 5.422190852968404 3.3203999302545455 -4.132381958673212e-08 3.247340558614618e-07 6.640799354078975" Properties=species:S:1:pos:R:3:forces:R:3 energy=-32.24522018432617 free_energy=-32.24522018432617 stress="0.0002430396998533979 2.1380131443038408e-08 1.514600356244955e-08 2.1380131443038408e-08 0.00024304045655298978 -1.6465511620822326e-08 1.514600356244955e-08 -1.6465511620822326e-08 0.00024303008103743196" pbc="T T T"
In       1.91703274       1.35554755       3.32040000      -0.00000377      -0.00000224       0.00000308
In       5.75110150       4.06664324       9.96119940       0.00000190      -0.00000253       0.00000279
Ge      -0.00000018      -0.00000040      -0.00000080       0.00000467       0.00000714       0.00001498
S        1.90713740       1.34855123       6.64079975      -0.00754142      -0.00533181       0.00000101
S        5.76099817       4.07364042       6.64080023       0.00753361       0.00532472       0.00000205
S        4.79753215       1.34855107       4.97202879       0.00377172      -0.00533110      -0.00653380
S        2.87060168       4.07364204       8.30956917      -0.00376406       0.00532687       0.00651842
S        2.87060236       4.07364076       4.97202946      -0.00376964       0.00533491      -0.00653017
S        4.79753282       1.34855034       8.30956956       0.00376678      -0.00532591       0.00652200
