9
Lattice="5.8595080591606195 -1.4502512141356722e-08 3.3829884384771147 1.9531693129113534 5.5243970555050135 3.3829884843229188 -1.024289181031189e-07 -1.627877484674853e-08 6.765977054366354" Properties=species:S:1:pos:R:3:forces:R:3 energy=-30.277509689331055 free_energy=-30.277509689331055 stress="-9.046422064784565e-07 1.730361454121976e-08 -2.445542213180829e-09 1.730361454121976e-08 -8.680554515194672e-07 1.3390073050345563e-08 -2.445542213180829e-09 1.3390073050345563e-08 -9.020228048939316e-07" pbc="T T T"
In       1.95316937       1.38109920       3.38298876      -0.00000032       0.00000030       0.00000006
In       5.85950808       4.14329790      10.14896596       0.00000006      -0.00000019       0.00000081
Ge       0.00000013       0.00000050       0.00000096      -0.00000167      -0.00000379      -0.00001438
Se       2.02269308       1.43026018       6.76597702       0.00195861       0.00138441      -0.00000021
Se       5.78998436       4.09413654       6.76597696      -0.00195447      -0.00138347      -0.00000023
Se       4.84816144       1.43025990       5.13469148      -0.00098215       0.00138776       0.00169818
Se       2.96451566       4.09413673       8.39726140       0.00097506      -0.00137947      -0.00169007
Se       2.96451574       4.09413706       5.13469185       0.00098076      -0.00138672       0.00169761
Se       4.84816122       1.43026019       8.39726135      -0.00097587       0.00138120      -0.00169189
