9
Lattice="6.409779364723038 5.2154790460615814e-08 3.7006880734523993 2.136593091024025 6.043197775105985 3.700688211535536 5.76804567448576e-08 2.0990282798768261e-07 7.4013760469994185" Properties=species:S:1:pos:R:3:forces:R:3 energy=-28.334774017333984 free_energy=-28.334774017333984 stress="0.00013886074884794652 9.273408707599629e-09 -2.369177076744222e-09 9.273408707599629e-09 0.00013884248619433492 -6.366791538425787e-09 -2.369177076744222e-09 -6.366791538425787e-09 0.00013882479106541723" pbc="T T T"
In       2.13659295       1.51079951       3.70068831       0.00000000       0.00000013       0.00000011
In       6.40977933       4.53239888      11.10206401      -0.00000000      -0.00000024      -0.00000007
Ge      -0.00000013      -0.00000008       0.00000047      -0.00000066       0.00000050      -0.00000012
Te       2.33332158       1.64990699       7.40137576       0.00173184       0.00122410      -0.00000063
Te       6.21305119       4.39329100       7.40137634      -0.00173098      -0.00122489       0.00000007
Te       5.24311885       1.64990672       5.72140297      -0.00086614       0.00122443       0.00149959
Te       3.30325384       4.39329095       9.08134894       0.00086556      -0.00122385      -0.00149873
Te       3.30325358       4.39329097       5.72140345       0.00086553      -0.00122443       0.00149921
Te       5.24311885       1.64990719       9.08134904      -0.00086513       0.00122435      -0.00149935
