9
Lattice="5.857911739015382 -9.672091197887211e-08 3.382066936267527 1.9526371762036436 5.522892088271739 3.3820668997999888 -1.8189823715764214e-08 -5.7525585543151e-08 6.764133904040707" Properties=species:S:1:pos:R:3:forces:R:3 energy=-30.277496337890625 free_energy=-30.277496337890625 stress="-0.0001915583125082776 -8.08147238018364e-09 -1.0461462807143107e-08 -8.08147238018364e-09 -0.00019153782341163605 -1.2426951023769561e-08 -1.0461462807143107e-08 -1.2426951023769561e-08 -0.00019153156608808786" pbc="T T T"
In       1.95263748       1.38072296       3.38206693       0.00000047      -0.00000093       0.00000023
In       5.85791145       4.14216874      10.14620111       0.00000041      -0.00000247       0.00000115
Ge      -0.00000005      -0.00000009       0.00000022      -0.00000091       0.00000128       0.00000025
Se       2.02245875       1.43009423       6.76413379       0.00205806       0.00145607       0.00000001
Se       5.78809030       4.09279770       6.76413364      -0.00205815      -0.00145492      -0.00000116
Se       4.84668224       1.43009439       5.13356767      -0.00102856       0.00145474       0.00178091
Se       2.96386659       4.09279770       8.39469986       0.00102913      -0.00145473      -0.00178197
Se       2.96386677       4.09279769       5.13356763       0.00102849      -0.00145409       0.00178166
Se       4.84668204       1.43009436       8.39470015      -0.00102898       0.00145502      -0.00178109
