9
Lattice="4.450641139535728 1.912798600541862e-08 2.5695788310989447 1.4835471290479756 4.196104025720468 2.569578719378178 1.715375276419252e-07 -1.5534092027977394e-08 5.139157365086176" Properties=species:S:1:pos:R:3:forces:R:3 energy=-45.23537826538086 free_energy=-45.23537826538086 stress="0.00022181111853569746 -1.7756285330960964e-08 -1.9520856042731793e-08 -1.7756285330960964e-08 0.0002217283908976242 -8.523610972588358e-08 -1.9520856042731793e-08 -8.523610972588358e-08 0.00022164142865221947" pbc="T T T"
In       1.48354736       1.04902588       2.56957769       0.00000109       0.00000003      -0.00000327
In       4.45064210       3.14707840       7.70873639       0.00000249       0.00000097       0.00000025
Ge      -0.00000006      -0.00000021      -0.00000037       0.00000223       0.00000509       0.00001151
O        1.52485393       1.07823382       5.13915694       0.00024521       0.00016987      -0.00000184
O        4.40933446       3.11787008       5.13915742      -0.00024951      -0.00017142       0.00000302
O        3.68821484       1.07823457       3.89014106      -0.00011766       0.00017309       0.00020754
O        2.24597318       3.11786932       6.38817438       0.00012302      -0.00018406      -0.00021493
O        2.24597365       3.11787027       3.89014115       0.00011909      -0.00016958       0.00021267
O        3.68821430       1.07823387       6.38817464      -0.00012612       0.00017494      -0.00021529
