9
Lattice="5.750862299780049 1.889635174932026e-07 3.3202620163230683 1.9169542536081887 5.421965279592228 3.320262058714935 -1.1436820306831325e-07 -2.895122554871307e-08 6.640524230737606" Properties=species:S:1:pos:R:3:forces:R:3 energy=-32.24523162841797 free_energy=-32.24523162841797 stress="0.00012761930702254176 -1.5590945423582525e-08 -6.067225832850909e-09 -1.5590945423582525e-08 0.0001277137198485434 2.1699788632645323e-08 -6.067225832850909e-09 2.1699788632645323e-08 0.00012758647790178657" pbc="T T T"
In       1.91695489       1.35549277       3.32026193       0.00000225       0.00000052      -0.00000053
In       5.75086157       4.06647236       9.96078670      -0.00000147      -0.00000317       0.00000040
Ge       0.00000015       0.00000030      -0.00000021      -0.00000091      -0.00000293       0.00000058
S        1.90690055       1.34838246       6.64052446      -0.00325733      -0.00230259       0.00000068
S        5.76091533       4.07358310       6.64052442       0.00325906       0.00230563       0.00000207
S        4.79741213       1.34838281       4.97168681       0.00162971      -0.00230330      -0.00282419
S        2.87040411       4.07358298       8.30936115      -0.00163120       0.00230461       0.00282395
S        2.87040461       4.07358266       4.97168685      -0.00162974       0.00230509      -0.00282580
S        4.79741203       1.34838243       8.30936107       0.00162938      -0.00230384       0.00282270
