9
Lattice="5.757482768158657 -1.5085176000490356e-07 3.3240843865610836 1.9191608387401362 5.428206483827934 3.3240842856776647 3.631268399907668e-08 -9.787952037888331e-08 6.648168710226782" Properties=species:S:1:pos:R:3:forces:R:3 energy=-40.85807418823242 free_energy=-40.85807418823242 stress="6.57614873489365e-05 -1.8983245198000986e-08 1.664420046232351e-09 -1.8983245198000986e-08 6.575181032530963e-05 -5.072134934280825e-10 1.664420046232351e-09 -5.072134934280825e-10 6.575149745913222e-05" pbc="T T T"
In       1.91916036       1.35705137       3.32408418      -0.00000049      -0.00000153      -0.00000046
In       5.75748310       4.07115483       9.97225148       0.00000120       0.00000062      -0.00000268
Hf       0.00000064      -0.00000017       0.00000061      -0.00000452       0.00000060      -0.00000281
S        2.02596685       1.43257472       6.64816847      -0.00245245      -0.00173464      -0.00000032
S        5.65067669       3.99563141       6.64816952       0.00245363       0.00173558       0.00000007
S        4.74449961       1.43257433       5.07862373       0.00122739      -0.00173517      -0.00212429
S        2.93214456       3.99563147       8.21771411      -0.00122725       0.00173683       0.00212647
S        2.93214374       3.99563179       5.07862378      -0.00122667       0.00173582      -0.00212455
S        4.74449896       1.43257511       8.21771384       0.00122944      -0.00173821       0.00212832
