9
Lattice="5.8946042458975105 6.161465054319782e-08 3.4032515722928207 1.9648681995006374 5.557486491946297 3.4032514693328726 1.208697423752084e-07 -4.063186524332593e-08 6.806502935233064" Properties=species:S:1:pos:R:3:forces:R:3 energy=-25.589641571044922 free_energy=-25.589641571044922 stress="-9.725573909236118e-05 6.02774186120314e-09 -2.1232557045891554e-08 6.02774186120314e-09 -9.732411854201928e-05 -1.152782935776031e-08 -2.1232557045891554e-08 -1.152782935776031e-08 -9.72897614701651e-05" pbc="T T T"
In       1.96486769       1.38937131       3.40325157       0.00000011       0.00000015      -0.00000028
In       5.89460436       4.16811476      10.20975463      -0.00000034       0.00000100       0.00000038
Hg       0.00000067       0.00000009       0.00000000      -0.00000085       0.00000223      -0.00000041
Se       2.32752788       1.64580956       6.80650257      -0.00429568      -0.00304013      -0.00000135
Se       5.53194648       3.91167725       6.80650275       0.00429517       0.00303724      -0.00000012
Se       4.73084052       1.64580940       5.41894889       0.00214796      -0.00303918      -0.00372136
Se       3.12863156       3.91167707       8.19405721      -0.00214641       0.00303864       0.00371951
Se       3.12863059       3.91167749       5.41894851      -0.00214836       0.00303908      -0.00371927
Se       4.73084052       1.64580913       8.19405782       0.00214851      -0.00303899       0.00372291
