9
Lattice="6.492301439733621 -1.134311047861849e-07 3.7483321142635573 2.164100341709285 6.121000388568207 3.748332168404088 -2.4748099950250023e-08 4.8808763648321775e-08 7.4966642713920795" Properties=species:S:1:pos:R:3:forces:R:3 energy=-23.723976135253906 free_energy=-23.723976135253906 stress="-0.00017197780834976584 -1.488652090486653e-09 4.5930506620273093e-10 -1.488652090486653e-09 -0.00017196062253788114 -5.5650954955410725e-09 4.5930506620273093e-10 -5.5650954955410725e-09 -0.0001719794818200171" pbc="T T T"
In       2.16410021       1.53024998       3.74833236       0.00000021      -0.00000034      -0.00000023
In       6.49230140       4.59075024      11.24499642      -0.00000020      -0.00000006       0.00000010
Hg      -0.00000002       0.00000002       0.00000036      -0.00000035       0.00000094       0.00000056
Te       2.42752228       1.71651784       7.49666392      -0.00598758      -0.00423342       0.00000032
Te       6.22887967       4.40448255       7.49666415       0.00598758       0.00423373       0.00000018
Te       5.27853977       1.71651816       5.85062872       0.00299376      -0.00423411      -0.00518520
Te       3.37786177       4.40448217       9.14269980      -0.00299299       0.00423214       0.00518395
Te       3.37786190       4.40448201       5.85062863      -0.00299351       0.00423357      -0.00518447
Te       5.27854000       1.71651829       9.14269988       0.00299314      -0.00423247       0.00518486
