9
Lattice="4.643882948420513 -3.337444293368482e-07 2.6811467360074817 1.5479606691764474 4.378294935468684 2.681146734228789 -2.5327454699711524e-07 -1.8127050329309122e-07 5.362293910699399" Properties=species:S:1:pos:R:3:forces:R:3 energy=-53.58454895019531 free_energy=-53.58454895019531 stress="-1.3708270671486389e-05 3.270977515512641e-07 2.3784267000337422e-08 3.270977515512641e-07 -1.4172028386383317e-05 2.1319168297395663e-07 2.3784267000337422e-08 2.1319168297395663e-07 -1.333137697656639e-05" pbc="T T T"
In       1.54797021       1.09457349       2.68114816       0.00010472      -0.00000406       0.00001572
In       4.64388566       3.28371490       8.04343980       0.00004302      -0.00006758      -0.00000629
Hf       0.00000051      -0.00000028      -0.00000016       0.00001154      -0.00000293       0.00000293
O        1.63523147       1.15628745       5.36229380      -0.00067466      -0.00042951      -0.00000040
O        4.55660914       3.22201077       5.36229379       0.00062859       0.00047350       0.00000099
O        3.82626188       1.15628654       4.09729681       0.00027862      -0.00043643      -0.00059399
O        2.36557666       3.22200982       6.62728652      -0.00033477       0.00045657       0.00055656
O        2.36557481       3.22200938       4.09730060      -0.00034383       0.00044572      -0.00054935
O        3.82626331       1.15628535       6.62728941       0.00028670      -0.00043502       0.00057384
