9
Lattice="6.516005386751003 1.9426578805906932e-07 3.762017261363746 2.1720018939839325 6.143348512193151 3.7620174081641586 -6.965666606232983e-08 1.3053841891492228e-07 7.524034643376419" Properties=species:S:1:pos:R:3:forces:R:3 energy=-36.109615325927734 free_energy=-36.109615325927734 stress="8.555799468012992e-06 1.5850435630682114e-08 -2.001300458687183e-09 1.5850435630682114e-08 8.554012310924008e-06 -4.087310045974846e-09 -2.001300458687183e-09 -4.087310045974846e-09 8.531430466973688e-06" pbc="T T T"
In       2.17200181       1.53583684       3.76201740       0.00000070       0.00000026       0.00000032
In       6.51600524       4.60751193      11.28605245      -0.00000033       0.00000016       0.00000009
Hf       0.00000011       0.00000102       0.00000066      -0.00000121      -0.00000652      -0.00000468
Te       2.32576965       1.64456776       7.52403456      -0.00202723      -0.00143358      -0.00000081
Te       6.36223718       4.49878049       7.52403431       0.00203037       0.00143616      -0.00000074
Te       5.35312094       1.64456750       5.77619232       0.00101231      -0.00143161      -0.00175343
Te       3.33488704       4.49878045       9.27187644      -0.00101580       0.00143673       0.00175880
Te       3.33488660       4.49878113       5.77619276      -0.00101326       0.00143347      -0.00175549
Te       5.35312027       1.64456822       9.27187638       0.00101449      -0.00143505       0.00175606
