9
Lattice="6.0621225685711035 -1.980114079247567e-07 3.499968125633732 2.020707274640512 5.71542434954398 3.4999682322060575 -9.369713424688228e-08 6.427007832890858e-08 6.999936413555594" Properties=species:S:1:pos:R:3:forces:R:3 energy=-38.01403045654297 free_energy=-38.01403045654297 stress="1.2412475371093024e-05 -1.787950942855332e-08 -2.8052354883456587e-10 -1.787950942855332e-08 1.241050904354779e-05 6.599428115094952e-09 -2.8052354883456587e-10 6.599428115094952e-09 1.2436036740837153e-05" pbc="T T T"
In       2.02070754       1.42885580       3.49996813       0.00000015       0.00000063      -0.00000071
In       6.06212208       4.28656841      10.49990460      -0.00000079       0.00000033      -0.00000056
Hf       0.00000033       0.00000035      -0.00000049      -0.00000257      -0.00000429       0.00000707
Se       2.13973101       1.51301834       6.99993639      -0.00002955      -0.00002107      -0.00000028
Se       5.94309839       4.20240554       6.99993658       0.00003344       0.00002343      -0.00000029
Se       4.99225648       1.51301880       5.35303032       0.00001720      -0.00002470      -0.00003030
Se       3.09057322       4.20240530       8.64684259      -0.00001638       0.00002352       0.00002826
Se       3.09057340       4.20240564       5.35303029      -0.00001710       0.00002493      -0.00003070
Se       4.99225654       1.51301872       8.64684266       0.00001565      -0.00002285       0.00002754
