9
Lattice="5.791234711330148 1.22160439831903e-07 3.3435708960929222 1.9304117422875924 5.460028412375215 3.3435707979372324 1.765364993710305e-07 4.614432977574077e-09 6.687141486415685" Properties=species:S:1:pos:R:3:forces:R:3 energy=-25.07696533203125 free_energy=-25.07696533203125 stress="-0.00010133980686077848 -8.434204801233136e-08 -1.1878296568568203e-08 -8.434204801233136e-08 -0.00010132121678907424 1.938427196535031e-09 -1.1878296568568203e-08 1.938427196535031e-09 -0.00010122638923348859" pbc="T T T"
In       1.93041124       1.36500648       3.34357119      -0.00000005      -0.00000209       0.00000230
In       5.79123433       4.09502156      10.03071237      -0.00000111      -0.00000039       0.00000031
Hg       0.00000078      -0.00000032       0.00000018      -0.00000384       0.00000084       0.00000011
S        2.14209492       1.51468922       6.68714157       0.00417057       0.00294527      -0.00000036
S        5.57955216       3.94533890       6.68714191      -0.00416687      -0.00294894       0.00000137
S        4.72018573       1.51469119       5.19868005      -0.00209203       0.00295472       0.00361481
S        3.00146048       3.94533776       8.17560226       0.00208990      -0.00295168      -0.00361842
S        3.00146024       3.94533793       5.19868090       0.00209048      -0.00295168       0.00361952
S        4.72018676       1.51469135       8.17560219      -0.00208732       0.00295386      -0.00361961
