9
Lattice="5.732930670994038 1.9275895769916172e-08 3.3099091312092814 1.9109769583732445 5.405059009764491 3.3099090448345385 9.649936391567191e-08 -3.755158492791338e-08 6.619818095276723" Properties=species:S:1:pos:R:3:forces:R:3 energy=-41.610076904296875 free_energy=-41.610076904296875 stress="-2.1267142074066214e-05 3.132102932568159e-08 -1.2495041668003637e-09 3.132102932568159e-08 -2.1307692804839462e-05 7.088881481820408e-09 -1.2495041668003637e-09 7.088881481820408e-09 -2.131179098796565e-05" pbc="T T T"
In       1.91097730       1.35126452       3.30990911       0.00000092      -0.00000062       0.00000020
In       5.73293061       4.05379447       9.92972726       0.00000016       0.00000010       0.00000055
Mo       0.00000039      -0.00000025      -0.00000006      -0.00000109      -0.00000018      -0.00000126
S        1.89421105       1.33940927       6.61981826      -0.00065823      -0.00046568       0.00000020
S        5.74969667       4.06564958       6.61981843       0.00065918       0.00046583      -0.00000063
S        4.78582519       1.33940898       4.95034298       0.00032681      -0.00046326      -0.00056849
S        2.85808187       4.06565022       8.28929270      -0.00032888       0.00046399       0.00056788
S        2.85808201       4.06564977       4.95034346      -0.00032621       0.00046296      -0.00056702
S        4.78582574       1.33940929       8.28929302       0.00032725      -0.00046296       0.00056835
