9
Lattice="5.881309470616947 -1.0076531291713006e-08 3.395575766572283 1.9604364930356557 5.544951797235202 3.39557574521565 -2.739236920502691e-08 -4.552571379540035e-08 6.791151580589526" Properties=species:S:1:pos:R:3:forces:R:3 energy=-36.69418716430664 free_energy=-36.69418716430664 stress="-5.684440475306474e-05 -2.6728796953534584e-08 1.2146007810631687e-10 -2.6728796953534584e-08 -5.6853212299756706e-05 8.579601917801938e-09 1.2146007810631687e-10 8.579601917801938e-09 -5.678369052475318e-05" pbc="T T T"
In       1.96043644       1.38623768       3.39557593      -0.00000017       0.00000016       0.00000032
In       5.88130952       4.15871397      10.18672727      -0.00000012      -0.00000010      -0.00000004
Mn      -0.00000018      -0.00000003      -0.00000007       0.00000285       0.00000101       0.00000075
Se       1.91152802       1.35165433       6.79115152       0.00136590       0.00096533      -0.00000055
Se       5.93021805       4.19329736       6.79115145      -0.00136712      -0.00096816      -0.00000103
Se       4.92554544       1.35165434       5.05100756      -0.00068356       0.00096512       0.00118241
Se       2.91620051       4.19329753       8.53129558       0.00068223      -0.00096574      -0.00118211
Se       2.91620033       4.19329734       5.05100764       0.00068283      -0.00096506       0.00118306
Se       4.92554561       1.35165440       8.53129547      -0.00068265       0.00096771      -0.00118268
