9
Lattice="5.714956056285374 -6.105345548681084e-07 3.299531545161027 1.9049849579691527 5.388111672027125 3.299531230808002 -2.2508447540011538e-08 -4.0091828529692416e-07 6.599063129307995" Properties=species:S:1:pos:R:3:forces:R:3 energy=-39.42655944824219 free_energy=-39.42655944824219 stress="-9.764949027157854e-06 -4.034248490825121e-08 3.653063984643268e-08 -4.034248490825121e-08 -9.740211680764332e-06 -5.081689735675354e-08 3.653063984643268e-08 -5.081689735675354e-08 -9.756912731972989e-06" pbc="T T T"
In       1.90498618       1.34702805       3.29953137      -0.00000031       0.00000081      -0.00000004
In       5.71495505       4.04108262       9.89859335      -0.00000140      -0.00000006      -0.00000136
Mn      -0.00000132      -0.00000038       0.00000034       0.00001607       0.00000572       0.00000013
S        1.80861562       1.27888399       6.59906314       0.00027758       0.00019795      -0.00000128
S        5.81132538       4.10922736       6.59906354      -0.00029153      -0.00020587       0.00000100
S        4.81064833       1.27888331       4.86583927      -0.00014225       0.00020015       0.00024658
S        2.80929353       4.10922616       8.33228738       0.00014141      -0.00020009      -0.00024372
S        2.80929377       4.10922668       4.86583836       0.00013953      -0.00019646       0.00023991
S        4.81064763       1.27888379       8.33228682      -0.00013897       0.00019783      -0.00024116
