9
Lattice="4.583407534562591 -3.994212008688045e-08 2.6462315590207477 1.5278024953118412 4.321277907319298 2.6462315218704195 3.082229246660586e-08 -2.3705060238172098e-08 5.292463064655722" Properties=species:S:1:pos:R:3:forces:R:3 energy=-48.84046936035156 free_energy=-48.84046936035156 stress="-4.941496626997832e-06 1.8936900048061034e-08 -2.6351122173196018e-08 1.8936900048061034e-08 -4.78778292745119e-06 1.8462563033949664e-08 -2.6351122173196018e-08 1.8462563033949664e-08 -4.8737333600001875e-06" pbc="T T T"
In       1.52780249       1.08031968       2.64623130      -0.00000139       0.00000316       0.00000061
In       4.58340787       3.24095830       7.93869426       0.00000210      -0.00000127      -0.00000204
Mn       0.00000007       0.00000002       0.00000022      -0.00000051      -0.00000382      -0.00000294
O        1.50501587       1.06420720       5.29246296       0.00187731       0.00132672       0.00000021
O        4.60619412       3.25707065       5.29246334      -0.00187671      -0.00132440       0.00000070
O        3.83089958       1.06420698       3.94961371      -0.00093894       0.00132680       0.00162339
O        2.28031046       3.25707071       6.63531274       0.00093743      -0.00132459      -0.00162339
O        2.28031040       3.25707074       3.94961352       0.00094096      -0.00132586       0.00162596
O        3.83089951       1.06420709       6.63531272      -0.00094011       0.00132301      -0.00162230
