9
Lattice="6.213061638201477 -2.221029320366658e-05 3.587175268409879 2.0709683019145473 5.857901491653378 3.587229488863557 -7.78798533869001e-05 1.1336830454729641e-05 7.174485428705132" Properties=species:S:1:pos:R:3:forces:R:3 energy=-33.818206787109375 free_energy=-33.818206787109375 stress="-8.544042793801054e-05 5.66883215924463e-07 -6.221370796311021e-08 5.66883215924463e-07 -8.311424608109519e-05 3.478700705272786e-07 -6.221370796311021e-08 3.478700705272786e-07 -8.553126826882362e-05" pbc="T T T"
In       2.07105440       1.46434493       3.58720090      -0.00005181       0.00007695       0.00001123
In       6.21296969       4.39347644      10.76169972       0.00003266      -0.00004637      -0.00003980
Mn      -0.00003214       0.00005045      -0.00004983      -0.00005671      -0.00005128       0.00024780
Te       2.04600842       1.44676940       7.17458621       0.00437069       0.00330435       0.00004239
Te       6.23787559       4.41119513       7.17445004      -0.00437751      -0.00316837       0.00006841
Te       5.18983086       1.44663065       5.35919358      -0.00221516       0.00298136       0.00373340
Te       3.09398508       4.41118516       8.98976489       0.00217512      -0.00315839      -0.00385299
Te       3.09420327       4.41124392       5.35907478       0.00227518      -0.00312777       0.00373742
Te       5.18985636       1.44670482       8.98961037      -0.00215252       0.00318947      -0.00394784
