9
Lattice="5.714851132383756 2.7815280631032106e-08 3.2994708440636176 1.9049503901253741 5.388013345276336 3.2994708675508777 -2.6588695490441483e-09 2.6885797590653688e-08 6.5989416927325335" Properties=species:S:1:pos:R:3:forces:R:3 energy=-39.426551818847656 free_energy=-39.426551818847656 stress="5.741322092944756e-05 -2.5492457922382528e-08 -7.590100992160842e-09 -2.5492457922382528e-08 5.7401019148528576e-05 1.206196920122693e-08 -7.590100992160842e-09 1.206196920122693e-08 5.7376066251890734e-05" pbc="T T T"
In       1.90495036       1.34700331       3.29947085      -0.00000080       0.00000011       0.00000024
In       5.71485114       4.04101003       9.89841253       0.00000092      -0.00000025      -0.00000028
Mn       0.00000012       0.00000006       0.00000011      -0.00000238      -0.00000010      -0.00000359
S        1.80874942       1.27897902       6.59894169      -0.00267255      -0.00188929       0.00000023
S        5.81105199       4.10903434       6.59894174       0.00267470       0.00189108      -0.00000004
S        4.81047644       1.27897902       4.86589384       0.00133732      -0.00189096      -0.00231689
S        2.80932515       4.10903435       8.33198953      -0.00133833       0.00189281       0.00231767
S        2.80932507       4.10903440       4.86589381      -0.00133649       0.00188923      -0.00231504
S        4.81047639       1.27897907       8.33198953       0.00133777      -0.00189257       0.00231731
