9
Lattice="4.4786293282214436 -2.08861001658911e-08 2.5857377545159146 1.4928764254081 4.222492293914454 2.5857377504296064 -3.85005938366582e-09 -7.727068985144793e-09 5.171475515700321" Properties=species:S:1:pos:R:3:forces:R:3 energy=-40.15744400024414 free_energy=-40.15744400024414 stress="4.464423000172246e-06 4.0340417228890146e-08 -3.54213760545008e-08 4.0340417228890146e-08 4.650201844924595e-06 1.9372972559494883e-08 -3.54213760545008e-08 1.9372972559494883e-08 4.495577741181478e-06" pbc="T T T"
In       1.49287754       1.05562326       2.58573767       0.00000571      -0.00000035      -0.00000147
In       4.47862934       3.16686945       7.75721361       0.00000106       0.00000196       0.00000347
Mg       0.00000020       0.00000007       0.00000034      -0.00000150      -0.00000190      -0.00000657
O        1.57846676       1.11614449       5.17147536      -0.00179994      -0.00127323      -0.00000153
O        4.39303898       3.10634736       5.17147510       0.00180325       0.00127251      -0.00000230
O        3.68939543       1.11614453       3.95272978       0.00089574      -0.00127256      -0.00155906
O        2.28210968       3.10634754       6.39022077      -0.00090139       0.00127500       0.00156246
O        2.28210991       3.10634799       3.95273028      -0.00089929       0.00127316      -0.00155766
O        3.68939516       1.11614435       6.39022109       0.00089657      -0.00127469       0.00156265
