9
Lattice="5.757953399427103 -7.721823088395037e-08 3.324355934438811 1.9193177316492942 5.4286506267573875 3.3243559263981015 -4.243090091172119e-08 -3.9850982546857466e-08 6.6487119423700936" Properties=species:S:1:pos:R:3:forces:R:3 energy=-27.85495376586914 free_energy=-27.85495376586914 stress="-0.00033815251663327217 1.8300374549085063e-08 -5.2742024081453565e-08 1.8300374549085063e-08 -0.0003381813003215939 -1.8166527837593094e-08 -5.2742024081453565e-08 -1.8166527837593094e-08 -0.00033816599170677364" pbc="T T T"
In       1.91931780       1.35716257       3.32435591      -0.00000031      -0.00000026      -0.00000060
In       5.75795286       4.07148846       9.97306741      -0.00000209       0.00000369      -0.00000200
Mg       0.00000002      -0.00000016       0.00000034       0.00000083      -0.00000095      -0.00000323
S        2.07456740       1.46694061       6.64871201       0.00493759       0.00348965       0.00000115
S        5.60270358       3.96170980       6.64871200      -0.00493582      -0.00349108       0.00000148
S        4.72066977       1.46694044       5.12098408      -0.00246944       0.00349083       0.00427665
S        2.95660154       3.96170993       8.17643975       0.00246959      -0.00349128      -0.00427505
S        2.95660154       3.96170985       5.12098414       0.00246883      -0.00349195       0.00427668
S        4.72066980       1.46694050       8.17643962      -0.00246922       0.00349129      -0.00427498
