9
Lattice="6.497456248164442 8.57007059508401e-08 3.7513080683297804 2.1658188670512715 6.12586030755844 3.751308004479967 9.692301764897126e-08 -9.66482975768019e-09 7.502615968783961" Properties=species:S:1:pos:R:3:forces:R:3 energy=-26.021038055419922 free_energy=-26.021038055419922 stress="-0.00011931183689739555 1.200717480998037e-08 -7.988373518230674e-09 1.200717480998037e-08 -0.00011928824824281037 -8.749864027768339e-11 -7.988373518230674e-09 -8.749864027768339e-11 -0.00011929038009839132" pbc="T T T"
In       2.16581867       1.53146499       3.75130804       0.00000047      -0.00000004      -0.00000017
In       6.49745648       4.59439516      11.25392399      -0.00000017       0.00000017       0.00000037
Mg       0.00000022       0.00000147       0.00000070       0.00000020      -0.00000551      -0.00000131
Te       2.41340528       1.70653543       7.50261610      -0.00227538      -0.00160853       0.00000001
Te       6.24986935       4.41932438       7.50261590       0.00227856       0.00161130      -0.00000009
Te       5.29075395       1.70653517       5.84137857       0.00113721      -0.00160871      -0.00197060
Te       3.37252166       4.41932472       9.16385292      -0.00113966       0.00161086       0.00197275
Te       3.37252146       4.41932482       5.84137869      -0.00113890       0.00161006      -0.00197221
Te       5.29075378       1.70653532       9.16385329       0.00113766      -0.00160958       0.00197123
