9
Lattice="5.710285205417547 4.3736795792650885e-08 3.29683469608306 1.903428355684842 5.383708738821494 3.29683484738891 -1.3717925236679126e-07 8.831069333923748e-08 6.593669629767511" Properties=species:S:1:pos:R:3:forces:R:3 energy=-32.18266296386719 free_energy=-32.18266296386719 stress="-0.00010676492092898116 -5.1848823012790035e-09 -3.073663279451466e-08 -5.1848823012790035e-09 -0.00010677915997803211 4.490598470852092e-08 -3.073663279451466e-08 4.490598470852092e-08 -0.00010676072270143777" pbc="T T T"
In       1.90342849       1.34592710       3.29683484       0.00000005      -0.00000029       0.00000034
In       5.71028515       4.03778140       9.89050465       0.00000024      -0.00000072      -0.00000008
Ni      -0.00000033      -0.00000044      -0.00000025       0.00000800       0.00000878       0.00000741
Se       1.89663714       1.34112525       6.59366956       0.00454843       0.00321676      -0.00000026
Se       5.71707645       4.04258374       6.59366954      -0.00455728      -0.00322218      -0.00000062
Se       4.76196647       1.34112553       4.93937089      -0.00227346       0.00321512       0.00393842
Se       2.85174692       4.04258389       8.24796847       0.00227636      -0.00321910      -0.00394236
Se       2.85174690       4.04258401       4.93937050       0.00227574      -0.00321949       0.00394249
Se       4.76196653       1.34112498       8.24796853      -0.00227819       0.00322102      -0.00394526
