9
Lattice="4.412541298558833 3.230190273656913e-08 2.5475819089718716 1.4708471668029628 4.160183587867815 2.547581845182468 1.2276029712930311e-07 8.678900567210882e-09 5.0951636053166425" Properties=species:S:1:pos:R:3:forces:R:3 energy=-41.21204376220703 free_energy=-41.21204376220703 stress="-2.655008756846655e-05 4.80837307748061e-08 4.0279410029597784e-08 4.80837307748061e-08 -2.6653686290956102e-05 -4.160656885687786e-08 4.0279410029597784e-08 -4.160656885687786e-08 -2.667767694219947e-05" pbc="T T T"
In       1.47084692       1.04004577       2.54758206      -0.00000083      -0.00000000       0.00000084
In       4.41254164       3.12013806       7.64274562      -0.00000053       0.00000133       0.00000109
Ni      -0.00000006      -0.00000003      -0.00000007       0.00000162       0.00000473      -0.00000556
O        1.45755702       1.03064818       5.09516392      -0.00088054      -0.00062061       0.00000415
O        4.42583165       3.12953524       5.09516319       0.00087573       0.00061849      -0.00000410
O        3.68376266       1.03064791       3.80986304       0.00043741      -0.00061813      -0.00076012
O        2.19962594       3.12953578       6.38046441      -0.00043603       0.00061772       0.00075911
O        2.19962519       3.12953527       3.80986316      -0.00043732       0.00061749      -0.00075717
O        3.68376355       1.03064838       6.38046419       0.00044071      -0.00062098       0.00076173
