9
Lattice="5.454805667930897 4.552137092115497e-08 3.1493333497572555 1.8182684765503005 5.142839774242722 3.1493335616643785 -1.876822845199178e-07 1.2682072245334288e-07 6.29866702459008" Properties=species:S:1:pos:R:3:forces:R:3 energy=-34.37794494628906 free_energy=-34.37794494628906 stress="-0.0004407198866829276 6.836271637666869e-08 4.0570524717509215e-09 6.836271637666869e-08 -0.0004407790838740766 3.206498178087713e-08 4.0570524717509215e-09 3.206498178087713e-08 -0.0004408093518577516" pbc="T T T"
In       1.81826929       1.28571132       3.14933356       0.00000090       0.00000235      -0.00000083
In       5.45480466       3.85713006       9.44800018      -0.00000174       0.00000040      -0.00000050
Ni       0.00000006       0.00000019      -0.00000001       0.00000039      -0.00000662       0.00000482
S        1.76840931       1.25045513       6.29866675       0.00727656       0.00514780      -0.00000047
S        5.50466453       3.89238505       6.29866571      -0.00727549      -0.00514542      -0.00000243
S        4.57060064       1.25045387       4.68082146      -0.00364012       0.00514513       0.00630695
S        2.70247419       3.89238457       7.91651374       0.00364192      -0.00514749      -0.00630334
S        2.70247327       3.89238475       4.68082040       0.00364022      -0.00514810       0.00630438
S        4.57060003       1.25045491       7.91651369      -0.00364268       0.00515220      -0.00630879
