9
Lattice="4.412221155048168 -4.474170144603668e-08 2.5473969361409656 1.4707403452532013 4.159881930877339 2.547396931949303 -5.3365497500915934e-08 -4.286875767127603e-08 5.094793964713728" Properties=species:S:1:pos:R:3:forces:R:3 energy=-41.212032318115234 free_energy=-41.212032318115234 stress="-0.00041986029827967286 -1.6477121889124646e-08 -2.1579582565323108e-08 -1.6477121889124646e-08 -0.000419812451582402 -2.193333870081915e-08 -2.1579582565323108e-08 -2.193333870081915e-08 -0.00041984845302067697" pbc="T T T"
In       1.47073979       1.03997123       2.54739672      -0.00000156       0.00000203      -0.00000249
In       4.41222109       3.11991188       7.64218951      -0.00000081       0.00000112      -0.00000377
Ni       0.00000005      -0.00000014       0.00000010       0.00000064      -0.00000065       0.00000397
O        1.45718680       1.03038663       5.09479387       0.00726628       0.00514126       0.00000126
O        4.42577528       3.12949419       5.09479459      -0.00726367      -0.00514333       0.00000019
O        3.68362727       1.03038619       3.80935785      -0.00363494       0.00514000       0.00629563
O        2.19933415       3.12949541       6.38023024       0.00363474      -0.00513957      -0.00629653
O        2.19933401       3.12949543       3.80935807       0.00363650      -0.00513580       0.00629517
O        3.68362738       1.03038661       6.38023048      -0.00363730       0.00513509      -0.00629317
