9
Lattice="6.420394353114773 -3.625715951800605e-08 3.7068164055547568 2.1401314195644807 6.053205843240298 3.706816400861205 1.4372086452947529e-08 4.414200449282229e-09 7.413632786216355" Properties=species:S:1:pos:R:3:forces:R:3 energy=-35.563045501708984 free_energy=-35.563045501708984 stress="-0.00029533926863223314 1.4728749331283097e-09 5.111480572139726e-09 1.4728749331283097e-09 -0.00029534348868764937 -1.4791421421023188e-09 5.111480572139726e-09 -1.4791421421023188e-09 -0.00029533833730965853" pbc="T T T"
In       2.14013160       1.51330133       3.70681643      -0.00000027       0.00000010       0.00000017
In       6.42039411       4.53990450      11.12044916      -0.00000004      -0.00000008       0.00000003
Nb      -0.00000031      -0.00000002       0.00000030       0.00000195      -0.00000074      -0.00000109
Te       2.24774233       1.58939379       7.41363279       0.00494306       0.00349587      -0.00000016
Te       6.31278371       4.46381232       7.41363284      -0.00494450      -0.00349676      -0.00000005
Te       5.29652308       1.58939371       5.65341824      -0.00247248       0.00349699       0.00428277
Te       3.26400288       4.46381189       9.17384710       0.00247189      -0.00349575      -0.00428099
Te       3.26400266       4.46381193       5.65341833       0.00247175      -0.00349576       0.00428102
Te       5.29652308       1.58939378       9.17384720      -0.00247140       0.00349610      -0.00428175
