9
Lattice="5.669448925706645 1.9865414404235071e-07 3.2732574125996203 1.8898164757543818 5.3452073222062655 3.2732574474266327 -5.6648025788700975e-08 2.598002730058537e-09 6.546514923316505" Properties=species:S:1:pos:R:3:forces:R:3 energy=-41.910858154296875 free_energy=-41.910858154296875 stress="-3.4934728319058195e-05 1.2139665273025457e-07 4.6671658537889016e-08 1.2139665273025457e-07 -3.505346830934286e-05 -5.3976396685584405e-08 4.6671658537889016e-08 -5.3976396685584405e-08 -3.511778777465224e-05" pbc="T T T"
In       1.88981652       1.33630192       3.27325752       0.00000038       0.00000003       0.00000005
In       5.66944863       4.00890520       9.81977208      -0.00000046       0.00000017      -0.00000110
Nb       0.00000042      -0.00000012      -0.00000048      -0.00000414       0.00000302       0.00000665
S        1.93381189       1.36741093       6.54651480      -0.00038147      -0.00026795       0.00000050
S        5.62545345       3.97779653       6.54651508       0.00038302       0.00026968       0.00000126
S        4.70254327       1.36741055       4.94798669       0.00018784      -0.00026393      -0.00032350
S        2.85672188       3.97779766       8.14504368      -0.00018331       0.00025856       0.00031659
S        2.85672238       3.97779683       4.94798673      -0.00018942       0.00026435      -0.00032556
S        4.70254299       1.36741067       8.14504307       0.00018738      -0.00026390       0.00032511
