9
Lattice="4.686830601643643 -2.6981563828262612e-09 2.7059428969684753 1.5622768293584777 4.418786560456344 2.7059429581310446 -5.110853158986451e-08 3.8769324431351434e-08 5.41188588245953" Properties=species:S:1:pos:R:3:forces:R:3 energy=-53.51387023925781 free_energy=-53.51387023925781 stress="0.00023929309099912643 8.962011577295925e-08 -9.225139763202606e-08 8.962011577295925e-08 0.00023915643396321684 4.3281048078824824e-08 -9.225139763202606e-08 4.3281048078824824e-08 0.0002392015012446791" pbc="T T T"
In       1.56227808       1.10469843       2.70594314       0.00001239       0.00002065       0.00000122
In       4.68683083       3.31409058       8.11782966       0.00000809       0.00000600       0.00000730
Nb       0.00000014      -0.00000026      -0.00000005       0.00000433       0.00000426       0.00000145
O        1.60305091       1.13352899       5.41188560      -0.00517833      -0.00365663      -0.00000067
O        4.64605706       3.28525704       5.41188560       0.00517106       0.00364375      -0.00000037
O        3.88530421       1.13352826       4.09422543       0.00257772      -0.00365764      -0.00447983
O        2.36380193       3.28525787       6.72954625      -0.00258440       0.00364906       0.00447589
O        2.36380206       3.28525799       4.09422522      -0.00258261       0.00364959      -0.00447381
O        3.88530425       1.13352718       6.72954623       0.00257248      -0.00365865       0.00446981
