9
Lattice="5.457756175283561 -3.716444708674831e-08 3.151037766303576 1.819252126058262 5.145622740167667 3.151037588474922 5.469500301758024e-07 1.689574329010177e-07 6.302074585261887" Properties=species:S:1:pos:R:3:forces:R:3 energy=-34.37799835205078 free_energy=-34.37799835205078 stress="-6.375879456754774e-05 -8.340769142023419e-08 1.3604896764718433e-07 -8.340769142023419e-08 -6.372405186994001e-05 -2.508373313503398e-07 1.3604896764718433e-07 -2.508373313503398e-07 -6.367488822434098e-05" pbc="T T T"
In       1.81925172       1.28640465       3.15103693       0.00000026      -0.00000049       0.00000018
In       5.45775717       3.85921858       9.45311182       0.00000085       0.00000091      -0.00000007
Ni       0.00000033      -0.00000007       0.00000091      -0.00000382       0.00000464      -0.00000696
S        1.76891314       1.25081041       6.30207423       0.00027245       0.00019178       0.00000085
S        5.50809623       3.89481250       6.30207451      -0.00027439      -0.00019313      -0.00000002
S        4.57329972       1.25080972       4.68296114      -0.00013827       0.00019367       0.00024015
S        2.70370822       3.89481309       7.92118925       0.00014088      -0.00019717      -0.00023961
S        2.70370869       3.89481129       4.68296274       0.00012912      -0.00018299       0.00022635
S        4.57330011       1.25081150       7.92118849      -0.00012717       0.00018302      -0.00022089
