9
Lattice="6.422827658128645 1.819295480062114e-07 3.7082211656542703 2.1409426915886907 6.055500149140523 3.7082212221982123 -1.4399379490020108e-08 5.907000662136164e-08 7.41644235624903" Properties=species:S:1:pos:R:3:forces:R:3 energy=-35.563087463378906 free_energy=-35.563087463378906 stress="1.7748265236150473e-05 3.03983398453056e-08 -5.285104354157966e-09 3.03983398453056e-08 1.7721078620525077e-05 1.0268689898396133e-08 -5.285104354157966e-09 1.0268689898396133e-08 1.769965274434071e-05" pbc="T T T"
In       2.14094270       1.51387529       3.70822100      -0.00000016      -0.00000014      -0.00000066
In       6.42282763       4.54162510      11.12466379       0.00000014      -0.00000021      -0.00000029
Nb       0.00000051      -0.00000062      -0.00000112      -0.00000347       0.00000355       0.00000771
Te       2.24847470       1.58991210       7.41644246       0.00224735       0.00158862       0.00000041
Te       6.31529560       4.46558811       7.41644243      -0.00224607      -0.00158794       0.00000057
Te       5.29859046       1.58991214       5.65545734      -0.00112289       0.00158779       0.00194535
Te       3.26517919       4.46558913       9.17742826       0.00112664      -0.00159307      -0.00195142
Te       3.26517979       4.46558857       5.65545706       0.00112462      -0.00159014       0.00194836
Te       5.29859076       1.58991172       9.17742784      -0.00112610       0.00159155      -0.00195002
