9
Lattice="5.710303180704032 -2.7126967930778765e-07 3.2968446074673636 1.9034342608152763 5.3837242929694495 3.296844394420305 -9.451431763703346e-08 -3.277600118964264e-07 6.593689378638549" Properties=species:S:1:pos:R:3:forces:R:3 energy=-32.18265151977539 free_energy=-32.18265151977539 stress="-0.0001567095605423674 2.3174454355512353e-08 5.351839416078974e-09 2.3174454355512353e-08 -0.00015669023559894413 2.8653242001297485e-09 5.351839416078974e-09 2.8653242001297485e-09 -0.00015670650464016944" pbc="T T T"
In       1.90343382       1.34593042       3.29684463      -0.00000061      -0.00000107       0.00000046
In       5.71030300       4.03779314       9.89053342      -0.00000025       0.00000019      -0.00000022
Ni      -0.00000024       0.00000005       0.00000012       0.00000649       0.00000549      -0.00000107
Se       1.89641775       1.34096958       6.59368919       0.00704201       0.00497966      -0.00000058
Se       5.71731974       4.04275448       6.59368943      -0.00704877      -0.00498344       0.00000106
Se       4.76209469       1.34096941       4.93919031      -0.00352328       0.00498289       0.00610232
Se       2.85164289       4.04275438       8.24818839       0.00352353      -0.00498292      -0.00610261
Se       2.85164275       4.04275473       4.93918997       0.00352318      -0.00498225       0.00610270
Se       4.76209486       1.34096873       8.24818827      -0.00352246       0.00498131      -0.00610203
