9
Lattice="6.158546482054028 2.2305925086830477e-07 3.555638342944573 2.052848894168948 5.806334737628206 3.5556385914674418 -1.2593700991899822e-07 2.1532621193498652e-07 7.111276904018377" Properties=species:S:1:pos:R:3:forces:R:3 energy=-30.258705139160156 free_energy=-30.258705139160156 stress="-2.60710312431911e-05 -1.899532264815207e-08 -1.0575222475495138e-08 -1.899532264815207e-08 -2.6081999749294482e-05 2.0632013431054474e-08 -1.0575222475495138e-08 2.0632013431054474e-08 -2.6057710783788934e-05" pbc="T T T"
In       2.05284820       1.45158433       3.55563821       0.00000028      -0.00000086       0.00000068
In       6.15854682       4.35475141      10.66691525       0.00000016       0.00000079       0.00000099
Ni       0.00000092       0.00000024       0.00000298      -0.00001097      -0.00000164      -0.00003191
Te       2.09472292       1.48119438       7.11127784      -0.00004770      -0.00003371       0.00000133
Te       6.11667227       4.32513915       7.11127793       0.00005464       0.00003766       0.00000142
Te       5.11118465       1.48119487       5.36972178       0.00002398      -0.00003307      -0.00004081
Te       3.10021164       4.32513840       8.85283065      -0.00002922       0.00004236       0.00005233
Te       3.10020991       4.32514093       5.36972033      -0.00002151       0.00003025      -0.00003693
Te       5.11118369       1.48119699       8.85283047       0.00003035      -0.00004188       0.00005297
