9
Lattice="5.969024854456538 -1.1492068395738423e-07 3.44621824508679 1.989674836088595 5.627650642608966 3.4462182572956555 -2.3828725775260295e-08 -1.8968545542135674e-09 6.892436531446206" Properties=species:S:1:pos:R:3:forces:R:3 energy=-38.6377067565918 free_energy=-38.6377067565918 stress="-2.3401136786560528e-05 -8.188121825014605e-08 -3.791959524157562e-10 -8.188121825014605e-08 -2.332998155907262e-05 -1.2840342122899528e-09 -3.791959524157562e-10 -1.2840342122899528e-09 -2.3280381356016733e-05" pbc="T T T"
In       1.98967497       1.40691261       3.44621828       0.00000014      -0.00000014       0.00000008
In       5.96902483       4.22073789      10.33865471       0.00000024      -0.00000044      -0.00000037
Nb      -0.00000057      -0.00000065      -0.00000030       0.00000648       0.00000844       0.00000490
Se       2.04283953       1.44450554       6.89243646      -0.00019070      -0.00013453       0.00000034
Se       5.91586104       4.18314555       6.89243658       0.00018099       0.00012815       0.00000066
Se       4.94760472       1.44450606       5.21536954       0.00009857      -0.00013818      -0.00016947
Se       3.01109449       4.18314496       8.56950385      -0.00009499       0.00013528       0.00016494
Se       3.01109471       4.18314468       5.21536913      -0.00009699       0.00013746      -0.00016794
Se       4.94760489       1.44450547       8.56950383       0.00009630      -0.00013603       0.00016680
