9
Lattice="5.316438909163154 1.7640249293058325e-07 3.0694477089038252 1.7721465239716043 5.012386097561289 3.0694476143278964 1.9309954618763238e-07 2.0710813241959173e-08 6.138895083349635" Properties=species:S:1:pos:R:3:forces:R:3 energy=-40.2790412902832 free_energy=-40.2790412902832 stress="0.00045057936222292483 2.5909780987376507e-08 5.308733008746458e-08 2.5909780987376507e-08 0.0004505501128733158 -7.208009122905423e-08 5.308733008746458e-08 -7.208009122905423e-08 0.00045044184662401676" pbc="T T T"
In       1.77214566       1.25309405       3.06944740      -0.00000445      -0.00000615      -0.00000469
In       5.31643721       3.75928756       9.20834172      -0.00000100      -0.00000550      -0.00000345
Os      -0.00000270      -0.00000358      -0.00000369      -0.00000660      -0.00000983      -0.00000688
S        1.87969432       1.32914513       6.13889595       0.00001633       0.00001693       0.00000496
S        5.20889358       3.68324369       6.13889627      -0.00001776      -0.00001150       0.00000402
S        4.37659322       1.32914455       4.69730957      -0.00000709       0.00001901       0.00002044
S        2.71199369       3.68324469       7.58048300       0.00001553      -0.00001460      -0.00002170
S        2.71199425       3.68324397       4.69730985       0.00001183      -0.00000620       0.00002110
S        4.37659329       1.32914490       7.58048174      -0.00000718       0.00001746      -0.00001436
