9
Lattice="4.802226366995398 -5.148914267189895e-08 2.7725669535429533 1.600742092774163 4.527582597321988 2.7725669206567845 -3.4940267156966444e-08 -6.49836383695527e-08 5.545133967604138" Properties=species:S:1:pos:R:3:forces:R:3 energy=-52.90243148803711 free_energy=-52.90243148803711 stress="-0.0001392341364407912 -6.043850930836925e-08 -3.990401253872733e-08 -6.043850930836925e-08 -0.0001392867270624265 2.4498008954765282e-08 -3.990401253872733e-08 2.4498008954765282e-08 -0.0001390245888615027" pbc="T T T"
In       1.60074242       1.13189651       2.77256688       0.00000178       0.00000320      -0.00000137
In       4.80222590       3.39568675       8.31770030      -0.00000153       0.00000242      -0.00000314
Os       0.00000016      -0.00000017       0.00000012      -0.00000366       0.00000686      -0.00001291
O        1.52282134       1.07679679       5.54513396       0.00153443       0.00108440       0.00000007
O        4.88014717       3.45078576       5.54513411      -0.00153482      -0.00108536       0.00000041
O        4.04081579       1.07679700       4.09136897      -0.00076395       0.00108221       0.00132392
O        2.36215274       3.45078488       6.99889915       0.00076117      -0.00108132      -0.00131771
O        2.36215251       3.45078505       4.09136876       0.00076734      -0.00109087       0.00132853
O        4.04081566       1.07679732       6.99889900      -0.00076074       0.00107870      -0.00131802
