9
Lattice="5.784991069193378 1.9081940234784767e-07 3.339965884063814 1.9283306284230124 5.4541411072166355 3.3399657245092595 2.0006293567046796e-07 -5.394780511250831e-08 6.679931421608637" Properties=species:S:1:pos:R:3:forces:R:3 energy=-37.731895446777344 free_energy=-37.731895446777344 stress="-8.651869393361267e-06 7.866523077382226e-08 -2.568452339701821e-09 7.866523077382226e-08 -8.70474468683824e-06 -8.45824832396147e-09 -2.568452339701821e-09 -8.45824832396147e-09 -8.751428140385542e-06" pbc="T T T"
In       1.92833078       1.36353546       3.33996567      -0.00000015       0.00000028      -0.00000044
In       5.78499163       4.09060571      10.01989739      -0.00000005      -0.00000113      -0.00000050
Os       0.00000033      -0.00000034      -0.00000050      -0.00000208       0.00000359       0.00000283
Se       2.00389935       1.41697159       6.67993150       0.00154570       0.00109401      -0.00000097
Se       5.70942188       4.03717064       6.67993151      -0.00154623      -0.00109324      -0.00000078
Se       4.78304174       1.41697023       5.07539300      -0.00077535       0.00109631       0.00134403
Se       2.93028039       4.03716986       8.28447013       0.00077720      -0.00109857      -0.00134504
Se       2.93027984       4.03717084       5.07539324       0.00077625      -0.00109732       0.00134456
Se       4.78304162       1.41697097       8.28447023      -0.00077546       0.00109619      -0.00134364
