9
Lattice="5.8664513303091 2.196493780707451e-08 3.3869972098955365 1.955483717380162 5.530943398320651 3.3869973486297775 -1.6157550524610208e-07 5.566297735597794e-08 6.773994699647956" Properties=species:S:1:pos:R:3:forces:R:3 energy=-31.71908950805664 free_energy=-31.71908950805664 stress="7.45068391552195e-05 3.271099657808918e-08 -5.203139696874359e-09 3.271099657808918e-08 7.449215627275407e-05 2.319315051124704e-08 -5.203139696874359e-09 2.319315051124704e-08 7.448767428286374e-05" pbc="T T T"
In       1.95548361       1.38273579       3.38699740      -0.00000069       0.00000024      -0.00000070
In       5.86645137       4.14820790      10.16099165      -0.00000018       0.00000069      -0.00000113
Pd       0.00000019       0.00000024       0.00000015      -0.00000014      -0.00000331      -0.00000041
Se       2.04635043       1.44698816       6.77399475      -0.00336018      -0.00237578       0.00000010
Se       5.77558411       4.08395505       6.77399473       0.00336143       0.00237682       0.00000081
Se       4.84327587       1.44698828       5.15918883       0.00167993      -0.00237569      -0.00290927
Se       2.97865905       4.08395513       8.38880021      -0.00168012       0.00237665       0.00291085
Se       2.97865880       4.08395524       5.15918878      -0.00167926       0.00237468      -0.00290829
Se       4.84327609       1.44698817       8.38880060       0.00167915      -0.00237435       0.00290820
