9
Lattice="5.847971642776929 -2.5800847298884924e-08 3.3763281507961183 1.9493238899068488 5.513520481886551 3.3763280931076034 1.5904359270487954e-07 4.1807067774780756e-08 6.752656026120697" Properties=species:S:1:pos:R:3:forces:R:3 energy=-29.548934936523438 free_energy=-29.548934936523438 stress="-6.200691859703511e-05 -2.017092626260819e-08 -1.4602664855090097e-08 -2.017092626260819e-08 -6.203160592122003e-05 -2.0236837983134137e-08 -1.4602664855090097e-08 -2.0236837983134137e-08 -6.194900197442621e-05" pbc="T T T"
In       1.94932379       1.37838014       3.37632847      -0.00000085       0.00000042       0.00000162
In       5.84797211       4.13514065      10.12898424       0.00000064       0.00000058      -0.00000065
Pb       0.00000022       0.00000038       0.00000033      -0.00000086      -0.00000846      -0.00000610
S        2.12003095       1.49908827       6.75265582      -0.00799939      -0.00565697       0.00000013
S        5.67726452       4.01443235       6.75265628       0.00800239       0.00565939       0.00000064
S        4.78795576       1.49908762       5.21232875       0.00399877      -0.00565745      -0.00692706
S        3.00933950       4.01443197       8.29298315      -0.00400345       0.00566076       0.00693262
S        3.00933936       4.01443208       5.21232886      -0.00400098       0.00565916      -0.00693005
S        4.78795654       1.49908861       8.29298317       0.00400370      -0.00565744       0.00692900
