9
Lattice="6.706138540062702 3.255120386557109e-08 3.87179091027632 2.235379507234214 6.322608071649477 3.871790974032276 3.692528079163034e-08 1.0419504286402511e-07 7.743581756595965" Properties=species:S:1:pos:R:3:forces:R:3 energy=-27.4075927734375 free_energy=-27.4075927734375 stress="-1.1200608241779264e-05 -1.591350162755134e-09 -6.072728986339371e-09 -1.591350162755134e-09 -1.1207257557543926e-05 3.1347509032997323e-09 -6.072728986339371e-09 3.1347509032997323e-09 -1.1206877388758585e-05" pbc="T T T"
In       2.23537949       1.58065194       3.87179099      -0.00000021      -0.00000012      -0.00000006
In       6.70613870       4.74195638      11.61537273       0.00000022       0.00000012       0.00000019
Pb      -0.00000036       0.00000002      -0.00000074       0.00000059       0.00000040       0.00000127
Te       2.56857249       1.81625535       7.74358137      -0.00378716      -0.00267847      -0.00000015
Te       6.37294552       4.50635291       7.74358188       0.00378746       0.00267806       0.00000017
Te       5.42185189       1.81625522       6.09624008       0.00189397      -0.00267828      -0.00328000
Te       3.51966587       4.50635347       9.39092363      -0.00189347       0.00267788       0.00328030
Te       3.51966593       4.50635256       6.09624056      -0.00189448       0.00267805      -0.00328073
Te       5.42185278       1.81625498       9.39092399       0.00189307      -0.00267764       0.00327899
