9
Lattice="4.3201168454361225 -2.4931546578839034e-07 2.4942206788974173 1.440038820382708 4.073044276219889 2.494220493635772 -4.60240351847812e-08 -2.594421592403784e-07 4.988441437510893" Properties=species:S:1:pos:R:3:forces:R:3 energy=-50.946800231933594 free_energy=-50.946800231933594 stress="-3.306925282231532e-05 -1.1944536026931019e-07 -3.1276268686042386e-08 -1.1944536026931019e-07 -3.3383348636562005e-05 -1.1144845046828777e-07 -3.1276268686042386e-08 -1.1144845046828777e-07 -3.344029391882941e-05" pbc="T T T"
In       1.44003948       1.01825907       2.49422133      -0.00000019      -0.00000121       0.00000461
In       4.32011602       3.05478344       7.48266533       0.00000017      -0.00000162       0.00000084
P        0.00000005       0.00000002      -0.00000028       0.00000163       0.00000149       0.00000103
O        1.38103669       0.97653958       4.98844118       0.00044930       0.00032258      -0.00000286
O        4.37911926       3.09650408       4.98843969      -0.00045037      -0.00032425      -0.00000004
O        3.62959802       0.97654006       3.69023198      -0.00022882       0.00031972       0.00039530
O        2.13055712       3.09650438       6.28664877       0.00022984      -0.00032115      -0.00039577
O        2.13055742       3.09650484       3.69023267       0.00022322      -0.00031972       0.00039530
O        3.62959874       0.97653942       6.28664915      -0.00022346       0.00032485      -0.00039840
