9
Lattice="5.535299339477781 1.7759328320403958e-07 3.1958063489207618 1.8450997527629904 5.218731345932381 3.1958066858036425 -2.5417780313811083e-07 2.328648025811197e-07 6.391613138090342" Properties=species:S:1:pos:R:3:forces:R:3 energy=-33.175533294677734 free_energy=-33.175533294677734 stress="4.123513645026833e-05 2.5287244298510814e-08 -1.1589015302959638e-09 2.5287244298510814e-08 4.115099727641791e-05 -7.1726380390657596e-09 -1.1589015302959638e-09 -7.1726380390657596e-09 4.120351513847709e-05" pbc="T T T"
In       1.84509980       1.30468343       3.19580665       0.00000098       0.00000101       0.00000084
In       5.53529948       3.91404931       9.58741776       0.00000084       0.00000214      -0.00000469
Pd       0.00000091      -0.00000011       0.00000085      -0.00002794       0.00000262      -0.00002816
S        1.91522971       1.35427213       6.39161342      -0.00029200      -0.00020796       0.00000047
S        5.46516795       3.86445811       6.39161450       0.00030750       0.00021571       0.00000342
S        4.57768441       1.35427165       4.85444467       0.00014654      -0.00021070      -0.00025541
S        2.80271567       3.86445873       7.92878206      -0.00014848       0.00021374       0.00026155
S        2.80271352       3.86446010       4.85444377      -0.00014374       0.00020075      -0.00024641
S        4.57768387       1.35427387       7.92878079       0.00015643      -0.00021684       0.00026828
