9
Lattice="5.863506542449547 -3.852778991139643e-08 3.3852971262509226 1.9545021250402466 5.528166992378921 3.3852971599426858 -9.92402603511218e-09 3.4246474119716685e-08 6.770594269690723" Properties=species:S:1:pos:R:3:forces:R:3 energy=-31.71904182434082 free_energy=-31.71904182434082 stress="-0.00029751582769677043 -3.275061644103516e-08 -4.73211825280373e-09 -3.275061644103516e-08 -0.00029745447682216763 1.3013654598381663e-09 -4.73211825280373e-09 1.3013654598381663e-09 -0.00029746259679086506" pbc="T T T"
In       1.95450220       1.38204178       3.38529711       0.00000034       0.00000002       0.00000021
In       5.86350638       4.14612521      10.15589133       0.00000007      -0.00000036       0.00000005
Pd       0.00000015      -0.00000015       0.00000018      -0.00000002       0.00000009       0.00000041
Se       2.04587965       1.44665535       6.77059428      -0.00141516      -0.00100067      -0.00000038
Se       5.77212899       4.08151163       6.77059431       0.00141579       0.00100094      -0.00000045
Se       4.84056654       1.44665549       5.15708120       0.00070889      -0.00100276      -0.00122800
Se       2.97744219       4.08151145       8.38410742      -0.00070886       0.00100228       0.00122786
Se       2.97744199       4.08151165       5.15708094      -0.00070931       0.00100300      -0.00122771
Se       4.84056656       1.44665558       8.38410745       0.00070836      -0.00100234       0.00122806
