9
Lattice="5.738035079605539 2.9428709847534365e-07 3.312856015491029 1.9126785379663025 5.409871085091998 3.312856187585468 1.2168461907405245e-07 2.968157895943486e-07 6.625711820218123" Properties=species:S:1:pos:R:3:forces:R:3 energy=-34.47969055175781 free_energy=-34.47969055175781 stress="-4.5703109208261594e-05 -5.998613517022022e-08 -2.1911560565968102e-08 -5.998613517022022e-08 -4.574180275085382e-05 1.3120915909325959e-08 -2.1911560565968102e-08 1.3120915909325959e-08 -4.578354491968639e-05" pbc="T T T"
In       1.91267796       1.35246883       3.31285596      -0.00000090       0.00000094      -0.00000009
In       5.73803544       4.05740296       9.93856690       0.00000169      -0.00000021      -0.00000210
P        0.00000001      -0.00000013       0.00000032       0.00000171      -0.00000187      -0.00000375
S        1.77929699       1.25815277       6.62571200      -0.00324202      -0.00229180      -0.00000016
S        5.87141708       4.15171899       6.62571247       0.00324130       0.00228995      -0.00000012
S        4.84838669       1.25815303       4.85377257       0.00162220      -0.00229281      -0.00280786
S        2.80232734       4.15171864       8.39765199      -0.00162262       0.00229549       0.00281417
S        2.80232667       4.15171831       4.85377277      -0.00162166       0.00229168      -0.00280774
S        4.84838690       1.25815300       8.39765177       0.00162029      -0.00229144       0.00280797
