9
Lattice="5.4488460709970115 -5.500907737149578e-08 3.145893093493681 1.8162821002186715 5.13722064614323 3.145892871070556 1.0703665911396691e-07 -1.9672519139781687e-07 6.291786001594482" Properties=species:S:1:pos:R:3:forces:R:3 energy=-35.822818756103516 free_energy=-35.822818756103516 stress="-0.00023281993344426155 -6.961071363775773e-08 2.6896131988252137e-09 -6.961071363775773e-08 -0.0002327515830984339 1.4345909349344765e-08 2.6896131988252137e-09 1.4345909349344765e-08 -0.00023267939104698598" pbc="T T T"
In       1.81628367       1.28430628       3.14589293       0.00000282       0.00000049      -0.00000053
In       5.44884568       3.85291491       9.43767913       0.00000147       0.00000119      -0.00000051
Pt      -0.00000018      -0.00000014      -0.00000013       0.00000221      -0.00000082      -0.00000257
S        1.87057460       1.32269507       6.29178603       0.00205630       0.00145245       0.00000024
S        5.39455366       3.81452496       6.29178582      -0.00205708      -0.00145251      -0.00000019
S        4.51355886       1.32269565       4.76585851      -0.00102729       0.00145096       0.00177580
S        2.75156901       3.81452442       7.81771340       0.00102377      -0.00145105      -0.00177419
S        2.75156913       3.81452459       4.76585838       0.00102440      -0.00145176       0.00177622
S        4.51355873       1.32269573       7.81771360      -0.00102687       0.00145096      -0.00177407
