9
Lattice="4.608291193096719 2.1522968673499545e-07 2.660598060639289 1.5360971548428881 4.344739306015493 2.6605982553967182 -1.3286461394409249e-08 2.291331486964508e-07 5.3211961442913545" Properties=species:S:1:pos:R:3:forces:R:3 energy=-42.15084457397461 free_energy=-42.15084457397461 stress="-8.073713979683816e-05 1.4391056879503594e-07 7.089607567678513e-09 1.4391056879503594e-07 -8.083994180196896e-05 1.0712678033542034e-07 7.089607567678513e-09 1.0712678033542034e-07 -8.102390711428598e-05" pbc="T T T"
In       1.53609508       1.08618548       2.66059821      -0.00001424       0.00000428      -0.00000071
In       4.60829040       3.25855435       7.98179204      -0.00001128      -0.00000266      -0.00002151
Pd       0.00000001       0.00000002      -0.00000071       0.00000547      -0.00000238       0.00001944
O        1.56878438       1.10929773       5.32119603       0.00155669       0.00109647      -0.00000142
O        4.57560442       3.23544167       5.32119810      -0.00155407      -0.00110291       0.00001204
O        3.82389979       1.10929781       4.01920465      -0.00077347       0.00110309       0.00135374
O        2.32048930       3.23544139       6.62318872       0.00078562      -0.00111027      -0.00135064
O        2.32048911       3.23544208       4.01920471       0.00078033      -0.00110066       0.00135314
O        3.82390070       1.10929839       6.62318815      -0.00077528       0.00111488      -0.00136381
