9
Lattice="4.624353071825055 2.483091624727201e-08 2.669871569226341 1.541451037062869 4.35988197038916 2.6698715870485454 -4.070784586610759e-08 -6.957168627032001e-09 5.339743208960734" Properties=species:S:1:pos:R:3:forces:R:3 energy=-43.91162872314453 free_energy=-43.91162872314453 stress="-6.635191675741225e-05 9.103325204762314e-09 2.3243364566383207e-08 9.103325204762314e-09 -6.646852853009477e-05 -3.409597226777805e-08 2.3243364566383207e-08 -3.409597226777805e-08 -6.635933823417872e-05" pbc="T T T"
In       1.54145073       1.08997070       2.66987025      -0.00000347      -0.00000049      -0.00001440
In       4.62435239       3.26990913       8.00961082      -0.00000791      -0.00002079      -0.00003524
Pt       0.00000003      -0.00000010      -0.00000004      -0.00000597       0.00000675      -0.00002327
O        1.56188145       1.10441732       5.33974384       0.00039439       0.00028177       0.00000504
O        4.60392185       3.25546529       5.33974531      -0.00039355      -0.00027254       0.00001511
O        3.84341304       1.10441713       4.02250092      -0.00019474       0.00028796       0.00035214
O        2.32239272       3.25546405       6.65698677       0.00019690      -0.00028092      -0.00033145
O        2.32239119       3.25546522       4.02250103       0.00020086      -0.00028516       0.00035599
O        3.84341279       1.10441930       6.65698665      -0.00018641       0.00028369      -0.00032280
