9
Lattice="4.782480122312781 1.9077191977105876e-07 2.7611665559172436 1.5941601829017678 4.5089662588562645 2.7611666212686248 1.7142236415861198e-07 2.0125274327215833e-07 5.5223328149222155" Properties=species:S:1:pos:R:3:forces:R:3 energy=-39.72904586791992 free_energy=-39.72904586791992 stress="-1.8802462363964878e-05 4.2934633626146024e-08 -1.733558292471571e-07 4.2934633626146024e-08 -1.87634359463118e-05 -1.1369709085329305e-07 -1.733558292471571e-07 -1.1369709085329305e-07 -1.8573533452581614e-05" pbc="T T T"
In       1.59416313       1.12724170       2.76116620       0.00002172       0.00000241      -0.00000519
In       4.78248132       3.38172429       8.28350418       0.00000851      -0.00000345       0.00004015
Pb       0.00000027      -0.00000043       0.00000049      -0.00000659       0.00002423      -0.00000828
O        1.67162867       1.18201977       5.52233342       0.00420065       0.00297225       0.00000106
O        4.70501179       3.32694737       5.52233035      -0.00421545      -0.00296955      -0.00002228
O        3.94666602       1.18202144       4.20883876      -0.00210295       0.00298123       0.00362614
O        2.42997283       3.32694590       6.83582617       0.00209300      -0.00297961      -0.00365031
O        2.42997395       3.32694655       4.20883868       0.00210988      -0.00298714       0.00364847
O        3.94666389       1.18201987       6.83582602      -0.00210898       0.00295937      -0.00363001
