9
Lattice="4.607682716007842 -4.643070752751397e-08 2.660247033150618 1.5358942182498871 4.344164819426623 2.660246992696994 8.625121038596839e-10 -4.8935496040595484e-08 5.320494064807259" Properties=species:S:1:pos:R:3:forces:R:3 energy=-42.15083694458008 free_energy=-42.15083694458008 stress="-0.00010027130338130519 1.1420281387231057e-09 -2.4237028384277437e-08 1.1420281387231057e-09 -0.00010022651986218989 8.217658375997416e-08 -2.4237028384277437e-08 8.217658375997416e-08 -0.00010002935596276075" pbc="T T T"
In       1.53589542       1.08604256       2.66024677       0.00000904       0.00000982      -0.00000053
In       4.60768192       3.25812169       7.98074131      -0.00000700      -0.00001390       0.00000257
Pd       0.00000011       0.00000009      -0.00000018      -0.00000043      -0.00000786      -0.00001404
O        1.56897976       1.10943602       5.32049402      -0.00335482      -0.00237094       0.00000011
O        4.57459744       3.23472857       5.32049423       0.00335783       0.00237124       0.00000066
O        3.82319252       1.10943694       4.01902265       0.00167736      -0.00236261      -0.00291133
O        2.32038397       3.23472789       6.62196515      -0.00168382       0.00237551       0.00291902
O        2.32038399       3.23472867       4.01902308      -0.00167665       0.00236708      -0.00290769
O        3.82319269       1.10943648       6.62196526       0.00167806      -0.00236873       0.00291067
