9
Lattice="5.7803837568497904 8.080441331178554e-08 3.3373060564930923 1.9267946810867334 5.449797964641533 3.337306023086839 1.6655118086861356e-08 -2.9137062581236782e-08 6.674612084138607" Properties=species:S:1:pos:R:3:forces:R:3 energy=-33.46421432495117 free_energy=-33.46421432495117 stress="-2.3465678168577142e-05 8.729426959064313e-09 -1.880700262191226e-09 8.729426959064313e-09 -2.349076203245204e-05 2.542394961224659e-09 -1.880700262191226e-09 2.542394961224659e-09 -2.3489836166845635e-05" pbc="T T T"
In       1.92679483       1.36244921       3.33730615       0.00000033       0.00000083       0.00000006
In       5.78038409       4.08734853      10.01191819       0.00000128       0.00000012       0.00000040
Pt       0.00000004       0.00000114       0.00000085       0.00000331      -0.00001617      -0.00001457
Se       1.99567993       1.41115871       6.67461199       0.00099163       0.00070225       0.00000072
Se       5.71149840       4.03863910       6.67461193      -0.00098816      -0.00069831       0.00000021
Se       4.78254380       1.41115839       5.06561499      -0.00049905       0.00070614       0.00086381
Se       2.92463457       4.03863919       8.28360845       0.00049121      -0.00069514      -0.00085168
Se       2.92463438       4.03863931       5.06561537       0.00049514      -0.00070041       0.00085871
Se       4.78254378       1.41115849       8.28360878      -0.00049566       0.00070069      -0.00085753
