9
Lattice="6.078764351604217 7.71642156540624e-07 3.5095763214161737 2.0262555007000573 5.731113329499924 3.509576339913237 1.3029770597732973e-07 1.147884991388239e-07 7.0191524171502495" Properties=species:S:1:pos:R:3:forces:R:3 energy=-29.09160041809082 free_energy=-29.09160041809082 stress="-3.281831232015975e-05 -9.793860300533197e-08 1.8564765724704557e-08 -9.793860300533197e-08 -3.2661551813362166e-05 -2.448164160284705e-08 1.8564765724704557e-08 -2.448164160284705e-08 -3.284269405412488e-05" pbc="T T T"
In       2.02625366       1.43277806       3.50957639      -0.00000051      -0.00000039       0.00000119
In       6.07876489       4.29833532      10.52872901      -0.00000075       0.00000012       0.00000033
Pb       0.00000039       0.00000009       0.00000016      -0.00000207      -0.00000008       0.00000069
Se       2.46757788       1.74484187       7.01915221      -0.00195095      -0.00137857      -0.00000118
Se       5.63744469       3.98627462       7.01915268       0.00195543       0.00137953       0.00000014
Se       4.84497550       1.74484181       5.64655971       0.00097500      -0.00137708      -0.00169517
Se       3.26004427       3.98627120       8.39174385      -0.00097439       0.00137574       0.00169383
Se       3.26004390       3.98627128       5.64656149      -0.00097598       0.00137635      -0.00169332
Se       4.84497477       1.74484262       8.39174484       0.00097425      -0.00137565       0.00169353
