9
Lattice="5.784649602521762 -4.5401611556086954e-08 3.33976874587508 1.9282165425684668 5.453819086081922 3.3397686571947083 8.82080553127263e-08 -4.623832405249481e-08 6.679537338969275" Properties=species:S:1:pos:R:3:forces:R:3 energy=-36.41253662109375 free_energy=-36.41253662109375 stress="3.28302921843715e-05 -2.021287315301379e-08 -5.180944562255263e-09 -2.021287315301379e-08 3.2834075682330877e-05 7.308904148572992e-09 -5.180944562255263e-09 7.308904148572992e-09 3.2867326808627695e-05" pbc="T T T"
In       1.92821662       1.36345475       3.33976863      -0.00000069       0.00000142      -0.00000002
In       5.78464950       4.09036427      10.01930603      -0.00000019       0.00000166       0.00000043
Ru      -0.00000061       0.00000284      -0.00000001       0.00000168      -0.00001369      -0.00000056
Se       1.99863005       1.41324418       6.67953696      -0.00803728      -0.00568498      -0.00000066
Se       5.71423613       4.04057361       6.67953726       0.00804420       0.00568799      -0.00000042
Se       4.78533493       1.41324446       5.07063329       0.00401979      -0.00568520      -0.00696181
Se       2.92753201       4.04057366       8.28844180      -0.00402278       0.00568862       0.00696947
Se       2.92753156       4.04057400       5.07063339      -0.00402261       0.00568918      -0.00696766
Se       4.78533476       1.41324416       8.28844167       0.00401790      -0.00568506       0.00696120
