9
Lattice="5.845526112371097 2.887533695252813e-07 3.374915746023779 1.9485089858517515 5.5112146897691945 3.374915729588726 9.006773441309734e-09 -1.3759976692832056e-08 6.749831476447296" Properties=species:S:1:pos:R:3:forces:R:3 energy=-39.98353958129883 free_energy=-39.98353958129883 stress="6.786670837755082e-06 1.1451027859266105e-07 -2.1268573568988813e-09 1.1451027859266105e-07 6.704824500047835e-06 2.805843024589194e-08 -2.1268573568988813e-09 2.805843024589194e-08 6.623290573770646e-06" pbc="T T T"
In       1.94850886       1.37780384       3.37491558       0.00000034      -0.00000056      -0.00000024
In       5.84552625       4.13341163      10.12474721       0.00000002       0.00000069       0.00000018
Re       0.00000063       0.00000016      -0.00000036      -0.00000624      -0.00000165       0.00000072
Se       2.00111324       1.41500065       6.74983147      -0.00013858      -0.00009751      -0.00000034
Se       5.79292160       4.09621383       6.74983165       0.00014445       0.00010264      -0.00000069
Se       4.84496982       1.41499989       5.10792953       0.00006531      -0.00009412      -0.00011575
Se       2.94906494       4.09621496       8.39173364      -0.00006616       0.00009295       0.00011432
Se       2.94906504       4.09621506       5.10792953      -0.00006466       0.00009111      -0.00011235
Se       4.84497010       1.41499988       8.39173355       0.00006536      -0.00009349       0.00011420
