9
Lattice="5.75463040326088 -7.337691566544469e-08 3.3224374813637625 1.9182100649705485 5.425517598446297 3.3224374818303097 5.8736543243091734e-08 4.210439725572844e-08 6.644874860992832" Properties=species:S:1:pos:R:3:forces:R:3 energy=-34.7484016418457 free_energy=-34.7484016418457 stress="-2.1356183424359187e-05 -7.276773317244078e-08 -1.2260895410065586e-08 -7.276773317244078e-08 -2.127471088897437e-05 -1.844252572880123e-08 -1.2260895410065586e-08 -1.844252572880123e-08 -2.123668855347205e-05" pbc="T T T"
In       1.91821000       1.35637922       3.32243757       0.00000081       0.00000020       0.00000026
In       5.75463083       4.06913810       9.96731195       0.00000038      -0.00000035      -0.00000080
Rh       0.00000064       0.00000006       0.00000000      -0.00000501      -0.00000026      -0.00000330
Se       1.99250052       1.40891126       6.64487495       0.00028355       0.00020090       0.00000015
Se       5.68033973       4.01660702       6.64487527      -0.00028108      -0.00019836       0.00000066
Se       4.75837952       1.40891115       5.04799400      -0.00013899       0.00019616       0.00024058
Se       2.91446067       4.01660649       8.24175548       0.00013890      -0.00019553      -0.00024012
Se       2.91446059       4.01660594       5.04799434       0.00013937      -0.00019687       0.00024097
Se       4.75837961       1.40891109       8.24175559      -0.00013790       0.00019403      -0.00023851
