9
Lattice="4.788289124874077 1.231807728528575e-07 2.76451984968706 1.5960964428834665 4.514442148371096 2.76451993319009 7.962825892333578e-08 1.5857556887537266e-07 5.529039561453931" Properties=species:S:1:pos:R:3:forces:R:3 energy=-49.42710876464844 free_energy=-49.42710876464844 stress="-0.00015479720605071634 3.5855677538165764e-08 -8.903171533347631e-09 3.5855677538165764e-08 -0.00015490192163269967 -6.295933019373479e-08 -8.903171533347631e-09 -6.295933019373479e-08 -0.00015510545927099884" pbc="T T T"
In       1.59609671       1.12861036       2.76452030       0.00000515      -0.00000333       0.00000183
In       4.78828918       3.38583116       8.29356072      -0.00000375      -0.00000493       0.00001162
Ru      -0.00000023      -0.00000011      -0.00000021      -0.00000242       0.00000353       0.00000496
O        1.52922876       1.08132829       5.52903941       0.00262222       0.00185719      -0.00000368
O        4.85515663       3.43311443       5.52903943      -0.00262278      -0.00185412      -0.00000425
O        4.02367511       1.08132874       4.08887022      -0.00131379       0.00186330       0.00227436
O        2.36071079       3.43311459       6.96920856       0.00131375      -0.00185794      -0.00228414
O        2.36071139       3.43311418       4.08886998       0.00131628      -0.00185919       0.00227559
O        4.02367423       1.08132820       6.96920882      -0.00131470       0.00185534      -0.00227591
