9
Lattice="5.391041215092585 -7.550873424464045e-08 3.112519235066314 1.7970136516641937 5.082722521959683 3.1125192619299593 1.3389401255746316e-08 4.23688660668689e-08 6.225038446941412" Properties=species:S:1:pos:R:3:forces:R:3 energy=-37.147377014160156 free_energy=-37.147377014160156 stress="5.3918574849376455e-05 8.612853719114355e-08 4.7426926386151536e-08 8.612853719114355e-08 5.385467375162989e-05 -6.310239797358008e-08 4.7426926386151536e-08 -6.310239797358008e-08 5.3838204621570185e-05" pbc="T T T"
In       1.79701439       1.27068017       3.11251906      -0.00000002       0.00000056       0.00000154
In       5.39104113       3.81204168       9.33755811       0.00000067      -0.00000009       0.00000110
Rh       0.00000017      -0.00000015       0.00000015      -0.00000543      -0.00000228       0.00000189
S        1.87132962       1.32322991       6.22503771      -0.00480276      -0.00339586      -0.00000200
S        5.31672431       3.75949199       6.22503780       0.00481164       0.00340018      -0.00000184
S        4.45537650       1.32322964       4.73313824       0.00240049      -0.00339675      -0.00415838
S        2.73267866       3.75949334       7.71693895      -0.00240028       0.00339162       0.00415689
S        2.73267880       3.75949321       4.73313891      -0.00240445       0.00339851      -0.00416130
S        4.45537594       1.32323021       7.71693902       0.00239989      -0.00339600       0.00416195
