9
Lattice="5.525447434570605 6.385216212719636e-07 3.1901184212310647 1.8418161956318753 5.209442459057471 3.1901187986375166 1.9439063853014693e-07 5.996813065537315e-07 6.3802365057678205" Properties=species:S:1:pos:R:3:forces:R:3 energy=-43.26316452026367 free_energy=-43.26316452026367 stress="5.192876415094361e-05 3.901450273957607e-09 -4.36794174163424e-08 3.901450273957607e-09 5.1979113777633756e-05 5.330081620513738e-08 -4.36794174163424e-08 5.330081620513738e-08 5.1982180593768135e-05" pbc="T T T"
In       1.84181681       1.30236161       3.19011828       0.00000035       0.00000017      -0.00000067
In       5.52544790       3.90708258       9.57035564       0.00000026      -0.00000107      -0.00000076
Re      -0.00000001      -0.00000037      -0.00000001       0.00000015       0.00000132      -0.00000017
S        1.89502108       1.33998318       6.38023657      -0.00108129      -0.00076622      -0.00000033
S        5.47224234       3.86946065       6.38023693       0.00108147       0.00076652       0.00000044
S        4.57793693       1.33998363       4.83125515       0.00054178      -0.00076687      -0.00093824
S        2.78932687       3.86945994       7.92921860      -0.00054216       0.00076687       0.00093943
S        2.78932632       3.86946016       4.83125492      -0.00053883       0.00076288      -0.00093251
S        4.57793705       1.33998338       7.92921884       0.00053814      -0.00076318       0.00093240
