9
Lattice="6.347274140564087 1.8474608521594215e-07 3.6646002835030314 2.1157582125991374 5.984267230344934 3.6646002981143853 1.0727999594607479e-07 9.375365403278061e-08 7.329200381191867" Properties=species:S:1:pos:R:3:forces:R:3 energy=-36.75181579589844 free_energy=-36.75181579589844 stress="-0.00012411757779773325 3.628243305797696e-08 1.4723789298898282e-08 3.628243305797696e-08 -0.00012414251978043467 -1.7658924988950275e-08 1.4723789298898282e-08 -1.7658924988950275e-08 -0.00012417802645359188" pbc="T T T"
In       2.11575815       1.49606682       3.66460006       0.00000027       0.00000010       0.00000004
In       6.34727431       4.48820078      10.99380058       0.00000002       0.00000004       0.00000006
Re       0.00000023       0.00000024       0.00000034      -0.00000252      -0.00000338      -0.00000457
Te       2.17074779       1.53495003       7.32920086       0.00082450       0.00058347       0.00000012
Te       6.29228468       4.44931710       7.32920071      -0.00082093      -0.00058070       0.00000006
Te       5.26190041       1.53495019       5.54452235      -0.00041456       0.00058635       0.00071819
Te       3.20113205       4.44931746       9.11387823       0.00041261      -0.00058426      -0.00071558
Te       3.20113164       4.44931711       5.54452231       0.00041330      -0.00058535       0.00071657
Te       5.26190058       1.53495028       9.11387851      -0.00041269       0.00058377      -0.00071499
