9
Lattice="5.303081352062501 -4.873893530418982e-07 3.0617367608625776 1.7676933442105545 4.999791986927032 3.0617367267328444 5.828013116546354e-08 -5.898456959951333e-10 6.123473420781016" Properties=species:S:1:pos:R:3:forces:R:3 energy=-38.75642395019531 free_energy=-38.75642395019531 stress="3.171391199430218e-06 2.7287153869792746e-08 -1.362172774577175e-08 2.7287153869792746e-08 3.0886985769029707e-06 2.449605673859878e-08 -1.362172774577175e-08 2.449605673859878e-08 2.968766693811631e-06" pbc="T T T"
In       1.76769209       1.24994949       3.06173559      -0.00001159       0.00000375      -0.00000786
In       5.30307924       3.74984446       9.18521010      -0.00000591       0.00000741      -0.00000920
Ru      -0.00000843       0.00000549      -0.00000889      -0.00000276       0.00000118       0.00000061
S        1.86494013       1.31870839       6.12347525      -0.00705165      -0.00499821       0.00000873
S        5.20583709       3.68108290       6.12347334       0.00705492       0.00498277       0.00000695
S        4.37061548       1.31870889       4.67682233       0.00354329      -0.00499609      -0.00609779
S        2.70016496       3.68108105       7.57012847      -0.00351673       0.00498468       0.00611877
S        2.70016346       3.68107839       4.67682163      -0.00353593       0.00499168      -0.00611836
S        4.37061416       1.31870741       7.57012977       0.00352627      -0.00497687       0.00609815
