9
Lattice="4.807139851479829 4.6299194238413244e-08 2.7754037058594507 1.6023800063965776 4.532215400191154 2.7754036846383072 8.607778916248333e-08 3.487575221829539e-08 5.550807262627735" Properties=species:S:1:pos:R:3:forces:R:3 energy=-55.503334045410156 free_energy=-55.503334045410156 stress="-8.797675400273874e-05 -5.097601629699966e-08 -1.5206119030608534e-08 -5.097601629699966e-08 -8.777827315498143e-05 -3.435373652216356e-10 -1.5206119030608534e-08 -3.435373652216356e-10 -8.802644879324362e-05" pbc="T T T"
In       1.60238061       1.13305307       2.77540386       0.00000712      -0.00000434       0.00000513
In       4.80713994       3.39916193       8.32621180      -0.00000029      -0.00000170       0.00000871
Re       0.00000038      -0.00000040       0.00000049      -0.00000355       0.00000231      -0.00000681
O        1.55111740       1.09680555       5.55080714      -0.00243747      -0.00172198      -0.00000176
O        4.85840262       3.43541015       5.55080718       0.00243473       0.00172281      -0.00000240
O        4.03158086       1.09680583       4.11870991       0.00121772      -0.00172210      -0.00210893
O        2.37793841       3.43541016       6.98290360      -0.00122011       0.00172520       0.00210476
O        2.37793921       3.43540981       4.11871015      -0.00121409       0.00172150      -0.00210631
O        4.03158072       1.09680567       6.98290422       0.00121677      -0.00172198       0.00210834
