9
Lattice="4.660673343578117 -2.0283210178675928e-09 2.6908409602509122 1.5535578431138897 4.394124670676497 2.6908408496880702 2.0396374601201433e-07 8.81286504333361e-09 5.381681567226187" Properties=species:S:1:pos:R:3:forces:R:3 energy=-45.44667053222656 free_energy=-45.44667053222656 stress="-3.5269509680802e-05 -7.695847870081707e-08 1.2104993629691307e-07 -7.695847870081707e-08 -3.52646857209038e-05 8.254948369312842e-08 1.2104993629691307e-07 8.254948369312842e-08 -3.532729169819504e-05" pbc="T T T"
In       1.55355455       1.09853015       2.69084014      -0.00003665      -0.00000824      -0.00000851
In       4.66067182       3.29559515       8.07251788      -0.00001905       0.00001737      -0.00003857
Rh      -0.00000006       0.00000013       0.00000057       0.00000195      -0.00000419       0.00000274
O        1.55285057       1.09802925       5.38168103       0.00302106       0.00211810       0.00000086
O        4.66138206       3.29609400       5.38168398      -0.00300577      -0.00213321       0.00002215
O        3.88425025       1.09802985       4.03565022      -0.00148605       0.00211692       0.00262126
O        2.32998429       3.29609506       6.72771564       0.00151891      -0.00212289      -0.00260073
O        2.32998297       3.29609434       4.03564922       0.00150499      -0.00211881       0.00260761
O        3.88424941       1.09803061       6.72771526      -0.00149935       0.00213517      -0.00260714
