9
Lattice="5.862250311561122 1.6292671163599405e-07 3.384571539138552 1.9540835137625943 5.526982728814799 3.3845716725640305 -2.1393543078079404e-08 1.4828468932084395e-07 6.769143115331733" Properties=species:S:1:pos:R:3:forces:R:3 energy=-31.58786964416504 free_energy=-31.58786964416504 stress="0.00019342228188179433 6.113909023497399e-08 -2.2800104915177144e-08 6.113909023497399e-08 0.00019336478726472706 3.6334132147430864e-08 -2.2800104915177144e-08 3.6334132147430864e-08 0.00019333411182742566" pbc="T T T"
In       1.95408352       1.38174537       3.38457151       0.00000096      -0.00000124      -0.00000030
In       5.86225047       4.14523781      10.15371482      -0.00000167       0.00000211       0.00000218
Sn       0.00000010      -0.00000022       0.00000023       0.00000231      -0.00000068       0.00000129
S        2.04475709       1.44586161       6.76914359      -0.00488129      -0.00345397       0.00000114
S        5.77157635       4.08112186       6.76914305       0.00488007       0.00345281       0.00000039
S        4.83987239       1.44586178       5.15538169       0.00244075      -0.00344899      -0.00422651
S        2.97646149       4.08112187       8.38290441      -0.00243942       0.00345123       0.00422525
S        2.97646126       4.08112157       5.15538151      -0.00243969       0.00344875      -0.00422630
S        4.83987258       1.44586055       8.38290482       0.00243790      -0.00344974       0.00422293
