9
Lattice="4.45996733800541 9.737195827555072e-08 2.5749636396306625 1.486655901427533 4.204897042604763 2.5749635871681518 2.4026243367315164e-07 1.0563802191531924e-07 5.149926863114564" Properties=species:S:1:pos:R:3:forces:R:3 energy=-46.739501953125 free_energy=-46.739501953125 stress="0.0001613671047380194 -4.0922508048879536e-08 -1.7028133925123257e-07 -4.0922508048879536e-08 0.0001617417437955737 -1.1000908983760382e-07 -1.7028133925123257e-07 -1.1000908983760382e-07 0.00016170358867384493" pbc="T T T"
In       1.48665541       1.05122414       2.57496391      -0.00000023       0.00000013      -0.00000077
In       4.45996823       3.15367283       7.72488866       0.00000002      -0.00000109      -0.00000604
S       -0.00000003       0.00000007       0.00000004       0.00000590       0.00000766       0.00001224
O        1.35385731       0.95732107       5.14992703      -0.00069022      -0.00049245       0.00000059
O        4.59276618       3.24757620       5.14992762       0.00068438       0.00048995      -0.00000439
O        3.78303879       0.95732158       3.74743855       0.00034738      -0.00048935      -0.00060856
O        2.16358465       3.24757551       6.55241620      -0.00035048       0.00049162       0.00060260
O        2.16358379       3.24757556       3.74743862      -0.00035101       0.00049126      -0.00060177
O        3.78303957       0.95732212       6.55241591       0.00035405      -0.00049794       0.00060725
