9
Lattice="6.54738296028067 1.2164902569634284e-07 3.7801331457744873 2.1824610935107533 6.172931707075295 3.7801331595291807 3.892111140415752e-10 1.712120200045624e-08 7.560266290874824" Properties=species:S:1:pos:R:3:forces:R:3 energy=-28.126708984375 free_energy=-28.126708984375 stress="0.0001081220616470091 -8.092719383512303e-09 -2.9750244490145406e-09 -8.092719383512303e-09 0.00010813074914040044 3.6421923255147703e-09 -2.9750244490145406e-09 3.6421923255147703e-09 0.00010814295819727704" pbc="T T T"
In       2.18246098       1.54323294       3.78013335      -0.00000023      -0.00000021       0.00000077
In       6.54738311       4.62969905      11.34039877       0.00000046       0.00000048      -0.00000042
Sn      -0.00000016      -0.00000052       0.00000013       0.00000257       0.00000280      -0.00000112
Te       2.39727513       1.69512971       7.56026618      -0.00670636      -0.00474240      -0.00000030
Te       6.33256985       4.47780300       7.56026646       0.00670257       0.00473881       0.00000024
Te       5.34874521       1.69512940       5.85623409       0.00335205      -0.00474061      -0.00580581
Te       3.38109852       4.47780218       9.26429879      -0.00335185       0.00474131       0.00580655
Te       3.38109849       4.47780222       5.85623401      -0.00335157       0.00474049      -0.00580607
Te       5.34874517       1.69512945       9.26429858       0.00335249      -0.00474057       0.00580610
