9
Lattice="5.632420249081916 -2.7603623570880946e-08 3.2518795455519243 1.8774733205844425 5.31029675294226 3.2518796663647245 -5.3133004764725404e-08 1.1039414606601529e-07 6.503759183132936" Properties=species:S:1:pos:R:3:forces:R:3 energy=-33.95670700073242 free_energy=-33.95670700073242 stress="-8.732907735975459e-05 -2.162349765910676e-08 -2.577636770695335e-08 -2.162349765910676e-08 -8.730031549930573e-05 8.310908405917417e-09 -2.577636770695335e-08 8.310908405917417e-09 -8.729290129849687e-05" pbc="T T T"
In       1.87747377       1.32757434       3.25187959       0.00000284      -0.00000158       0.00000066
In       5.63241995       3.98272294       9.75563915      -0.00000029       0.00000281       0.00000019
Si      -0.00000053       0.00000012      -0.00000036       0.00000231       0.00000074      -0.00000172
S        1.85102680       1.30887315       6.50375857       0.00808871       0.00571585      -0.00000434
S        5.65886669       4.00142381       6.50375878      -0.00809187      -0.00571835      -0.00000374
S        4.70690739       1.30887318       4.85491603      -0.00404313       0.00571877       0.00700575
S        2.80298656       4.00142222       8.15260241       0.00404108      -0.00571871      -0.00699973
S        2.80298641       4.00142370       4.85491608       0.00404474      -0.00571877       0.00700575
S        4.70690662       1.30887407       8.15260341      -0.00404435       0.00571916      -0.00700223
