9
Lattice="5.80793350243109 1.1578690316723175e-07 3.353211856139025 1.9359778309948084 5.475772867631405 3.353212050672275 4.4912825079618965e-09 2.414294728535919e-07 6.7064237044989135" Properties=species:S:1:pos:R:3:forces:R:3 energy=-30.691585540771484 free_energy=-30.691585540771484 stress="-2.1111305613885634e-05 -1.9833212405728773e-08 -1.459685039506553e-09 -1.9833212405728773e-08 -2.1130224922671914e-05 5.424927707053939e-08 -1.459685039506553e-09 5.424927707053939e-08 -2.1112271497258916e-05" pbc="T T T"
In       1.93597784       1.36894380       3.35321216       0.00000036      -0.00000013      -0.00000029
In       5.80793355       4.10682983      10.05963593      -0.00000061      -0.00000073       0.00000059
Se      -0.00000016       0.00000011      -0.00000009      -0.00000082      -0.00000947       0.00000051
S        1.84124019       1.30195373       6.70642401      -0.00010431      -0.00007534       0.00000071
S        5.90267106       4.17381921       6.70642374       0.00011045       0.00007945       0.00000028
S        4.88731313       1.30195416       4.94777306       0.00005424      -0.00007844      -0.00009573
S        2.85659808       4.17381929       8.46507454      -0.00005731       0.00008160       0.00010020
S        2.85659806       4.17381900       4.94777283      -0.00005475       0.00007766      -0.00009555
S        4.88731357       1.30195383       8.46507454       0.00005281      -0.00007474       0.00008970
