9
Lattice="6.055821177011528 2.056723015473833e-08 3.496330010046318 2.0186070178152398 5.709483066851246 3.4963301149733113 -3.1484308233664836e-08 1.0624600624969914e-07 6.992660074625087" Properties=species:S:1:pos:R:3:forces:R:3 energy=-29.937381744384766 free_energy=-29.937381744384766 stress="-0.00012497934221755713 -2.6164407529449818e-08 -1.834780505305389e-08 -2.6164407529449818e-08 -0.000124986152513884 6.577185462930402e-09 -1.834780505305389e-08 6.577185462930402e-09 -0.00012495458940975368" pbc="T T T"
In       2.01860712       1.42737057       3.49633010       0.00000028      -0.00000071       0.00000009
In       6.05582131       4.28211255      10.48899033       0.00000065      -0.00000001       0.00000139
Sn       0.00000016       0.00000004       0.00000069       0.00000367       0.00000009      -0.00000984
Se       2.18023858       1.54166164       6.99266020      -0.00415271      -0.00293657      -0.00000055
Se       5.89418973       4.16782173       6.99266013       0.00415003       0.00293376      -0.00000082
Se       4.96570167       1.54166134       5.38447191       0.00207372      -0.00293393      -0.00359289
Se       3.10872646       4.16782136       8.60084772      -0.00207853       0.00293974       0.00359940
Se       3.10872617       4.16782185       5.38447183      -0.00207426       0.00293519      -0.00359454
Se       4.96570145       1.54166174       8.60084796       0.00207720      -0.00293764       0.00359778
