9
Lattice="4.528145236685068 2.2296112265823204e-08 2.614325795223747 1.509381719388492 4.269176412713559 2.614325876966472 -2.1761434173259304e-08 8.472630122589788e-08 5.228651628139398" Properties=species:S:1:pos:R:3:forces:R:3 energy=-43.135440826416016 free_energy=-43.135440826416016 stress="-5.732388672186062e-05 1.4008305981860758e-07 -4.71388368339376e-08 1.4008305981860758e-07 -5.724201037082821e-05 2.9120318600917017e-08 -4.71388368339376e-08 2.9120318600917017e-08 -5.739073094446212e-05" pbc="T T T"
In       1.50938228       1.06729471       2.61432630       0.00000660       0.00000177       0.00000331
In       4.52814513       3.20188221       7.84297656      -0.00000066      -0.00000002      -0.00000679
Se       0.00000019       0.00000015      -0.00000013      -0.00000691      -0.00000243       0.00000060
O        1.45819840       1.03110176       5.22865123       0.00028992       0.00020528       0.00000030
O        4.57932830       3.23807473       5.22865195      -0.00028896      -0.00020242      -0.00000330
O        3.79904584       1.03110148       3.87716223      -0.00014538       0.00020975       0.00025696
O        2.23848114       3.23807436       6.58014133       0.00014305      -0.00021064      -0.00025457
O        2.23848034       3.23807450       3.87716237       0.00014365      -0.00020599       0.00025421
O        3.79904608       1.03110234       6.58014118      -0.00014228       0.00020385      -0.00025141
