9
Lattice="4.381361326936072 -1.918967870650102e-07 2.529579841236444 1.4604535696179088 4.130787305301841 2.529579884720362 -2.519376174180634e-07 -1.2489013624813554e-07 5.059160118841736" Properties=species:S:1:pos:R:3:forces:R:3 energy=-49.81602478027344 free_energy=-49.81602478027344 stress="-9.086807403946295e-05 -8.304197507413846e-08 2.829324685649226e-08 -8.304197507413846e-08 -9.133494313573465e-05 -1.2509268287885789e-07 2.829324685649226e-08 -1.2509268287885789e-07 -9.14811244001612e-05" pbc="T T T"
In       1.46045206       1.03269421       2.52958013      -0.00000257      -0.00000697       0.00000018
In       4.38136099       3.09808904       7.58873908      -0.00000352      -0.00000713      -0.00000204
Si      -0.00000006       0.00000001       0.00000009      -0.00000094       0.00000252      -0.00000295
O        1.43386783       1.01389823       5.05916051       0.00767446       0.00542831       0.00000528
O        4.40794652       3.11689004       5.05915954      -0.00767219      -0.00542188      -0.00000252
O        3.66442722       1.01389836       3.77134582      -0.00383848       0.00542724       0.00664377
O        2.17738825       3.11689013       6.34697376       0.00383955      -0.00542295      -0.00664377
O        2.17738740       3.11689000       3.77134657       0.00383526      -0.00542557       0.00664854
O        3.66442801       1.01389846       6.34697360      -0.00383061       0.00542665      -0.00664473
