9
Lattice="6.546022252787581 4.4216559116221265e-08 3.7793477074234656 2.182007419436877 6.171649055140306 3.779347776440075 1.8420660442214965e-08 9.755313228352706e-08 7.558695382941464" Properties=species:S:1:pos:R:3:forces:R:3 energy=-28.126754760742188 free_energy=-28.126754760742188 stress="-2.2733791411155835e-05 -7.47815143142816e-09 -8.592626055126118e-10 -7.47815143142816e-09 -2.272866368002724e-05 1.7771973892521942e-09 -8.592626055126118e-10 1.7771973892521942e-09 -2.2719505068380386e-05" pbc="T T T"
In       2.18200741       1.54291227       3.77934779      -0.00000018      -0.00000020       0.00000002
In       6.54602231       4.62873691      11.33804308       0.00000009       0.00000047       0.00000004
Sn       0.00000002       0.00000014       0.00000022       0.00000004      -0.00000009       0.00000011
Te       2.39557834       1.69392971       7.55869543      -0.00011215      -0.00007991       0.00000015
Te       6.33245136       4.47771933       7.55869546       0.00011277       0.00007956      -0.00000002
Te       5.34823311       1.69392967       5.85397934       0.00005645      -0.00008014      -0.00009790
Te       3.37979659       4.47771949       9.26341139      -0.00005651       0.00008000       0.00009768
Te       3.37979648       4.47771953       5.85397941      -0.00005673       0.00007981      -0.00009750
Te       5.34823315       1.69392973       9.26341137       0.00005633      -0.00007957       0.00009751
