9
Lattice="5.778421351294226 7.577279541024799e-08 3.3361726560747527 1.9261405060300907 5.447947778755879 3.336172683511413 -1.5476892721429343e-07 -7.583524671709538e-08 6.67234558021722" Properties=species:S:1:pos:R:3:forces:R:3 energy=-35.552101135253906 free_energy=-35.552101135253906 stress="-5.874058388144476e-06 7.456375783476688e-08 -3.2186167064907067e-09 7.456375783476688e-08 -5.9925750974798575e-06 -3.8123935119926955e-09 -3.2186167064907067e-09 -3.8123935119926955e-09 -6.020020464347908e-06" pbc="T T T"
In       1.92614035       1.36198643       3.33617312      -0.00000056      -0.00000156       0.00000192
In       5.77842124       4.08596069      10.00851884      -0.00000061      -0.00000136       0.00000118
Sc       0.00000020      -0.00000021      -0.00000023      -0.00000142       0.00000104      -0.00000073
S        2.05016320       1.44968444       6.67234528      -0.00565618      -0.00400148       0.00000006
S        5.65439786       3.99826418       6.67234525       0.00565703       0.00400236      -0.00000047
S        4.75334013       1.44968418       5.11166546       0.00282688      -0.00399699      -0.00489540
S        2.95122183       3.99826412       8.23302554      -0.00282605       0.00399683       0.00489517
S        2.95122182       3.99826344       5.11166505      -0.00282563       0.00399755      -0.00489663
S        4.75334008       1.44968388       8.23302539       0.00282656      -0.00399644       0.00489485
