9
Lattice="5.85838609970406 -1.8080035939312274e-07 3.382340908422252 1.9527952153272763 5.523339351151098 3.3823408751331283 6.318844340361258e-08 3.910321144523512e-09 6.764681707398858" Properties=species:S:1:pos:R:3:forces:R:3 energy=-31.58786392211914 free_energy=-31.58786392211914 stress="-0.00014740311598870903 -5.61418609379416e-08 -1.0523646398752362e-09 -5.61418609379416e-08 -0.00014741205086465925 5.971616978683869e-09 -1.0523646398752362e-09 5.971616978683869e-09 -0.0001473257871111855" pbc="T T T"
In       1.95279522       1.38083362       3.38234079      -0.00000069      -0.00000414       0.00000013
In       5.85838598       4.14250496      10.14702301       0.00000052       0.00000218       0.00000123
Sn      -0.00000049       0.00000048       0.00000041       0.00001407      -0.00000602      -0.00000307
S        2.04393293       1.44527861       6.76468169      -0.00162822      -0.00115183      -0.00000007
S        5.76724898       4.07806110       6.76468150       0.00162122       0.00114501      -0.00000072
S        4.83641962       1.44527841       5.15243855       0.00080968      -0.00114694      -0.00140321
S        2.97476210       4.07806045       8.37692389      -0.00081518       0.00115669       0.00141343
S        2.97476185       4.07806066       5.15243954      -0.00081410       0.00115377      -0.00141227
S        4.83641933       1.44527842       8.37692460       0.00081266      -0.00114861       0.00140470
