9
Lattice="4.4597079672949205 -4.4721730048077254e-08 2.5748137184002684 1.4865692626234488 4.204652957688877 2.5748137489608354 -4.7455810909973925e-08 3.872556966964917e-09 5.149627518996407" Properties=species:S:1:pos:R:3:forces:R:3 energy=-46.739501953125 free_energy=-46.739501953125 stress="-0.00021351539180614054 7.340582897086279e-08 -3.986699681490791e-08 7.340582897086279e-08 -0.00021352933254092932 -1.3333222526057398e-08 -3.986699681490791e-08 -1.3333222526057398e-08 -0.00021360167011152953" pbc="T T T"
In       1.48656922       1.05116383       2.57481370      -0.00000084       0.00000020      -0.00000042
In       4.45970776       3.15348928       7.72444148      -0.00000070      -0.00000058       0.00000232
S       -0.00000009      -0.00000010       0.00000006       0.00000298       0.00000356      -0.00000590
O        1.35375733       0.95725113       5.14962757       0.00216520       0.00152946      -0.00000133
O        4.59251982       3.24740179       5.14962744      -0.00216687      -0.00153136       0.00000220
O        3.78282935       0.95725116       3.74720208      -0.00108361       0.00152755       0.00187159
O        2.16344799       3.24740178       6.55205292       0.00108218      -0.00152755      -0.00187004
O        2.16344812       3.24740167       3.74720208       0.00108349      -0.00153387       0.00187421
O        3.78282907       0.95725098       6.55205283      -0.00108212       0.00153065      -0.00187051
