9
Lattice="6.353616394158694 6.191547193627994e-08 3.6682620703602713 2.1178722542766573 5.990246539237067 3.6682619586153304 7.225822364926812e-08 -8.576474621575329e-08 7.336524015565657" Properties=species:S:1:pos:R:3:forces:R:3 energy=-28.78938102722168 free_energy=-28.78938102722168 stress="3.379729969310574e-05 8.577969445866529e-10 4.967952271783815e-09 8.577969445866529e-10 3.3795571653172374e-05 -5.137660963328017e-09 4.967952271783815e-09 -5.137660963328017e-09 3.379793633939698e-05" pbc="T T T"
In       2.11787216       1.49756151       3.66826257      -0.00000043      -0.00000004      -0.00000003
In       6.35361681       4.49268517      11.00478560       0.00000027      -0.00000019      -0.00000024
Si      -0.00000018      -0.00000033      -0.00000104       0.00000120      -0.00000018       0.00000474
Te       2.17468423       1.53773360       7.33652391      -0.00038320      -0.00027126       0.00000066
Te       6.29680434       4.45251352       7.33652431       0.00038282       0.00027081       0.00000092
Te       5.26627410       1.53773331       5.55159382       0.00019234      -0.00027236      -0.00033232
Te       3.20521406       4.45251363       9.12145452      -0.00019080       0.00026967       0.00033043
Te       3.20521415       4.45251246       5.55159411      -0.00019330       0.00027229      -0.00033347
Te       5.26627520       1.53773318       9.12145438       0.00019104      -0.00026873       0.00032924
