9
Lattice="4.5225863094939225 1.2785482909622622e-07 2.611116615662005 1.5075288726498968 4.263935432683801 2.6111166463610505 -7.394477559332621e-08 -1.4688362906935867e-08 5.222233359400128" Properties=species:S:1:pos:R:3:forces:R:3 energy=-47.45768737792969 free_energy=-47.45768737792969 stress="-0.00012154786963947117 -6.711361066891186e-08 -4.9260155066122024e-08 -6.711361066891186e-08 -0.000121665871120058 -1.2856325781740452e-07 -4.9260155066122024e-08 -1.2856325781740452e-07 -0.00012179399345768616" pbc="T T T"
In       1.50752657       1.06598453       2.61111796      -0.00001404       0.00000512       0.00001028
In       4.52258637       3.19795225       7.83335238      -0.00000275       0.00000338       0.00001489
Sc      -0.00000007      -0.00000000      -0.00000004      -0.00000205       0.00000085       0.00000582
O        1.60625220       1.13579248       5.22223371       0.00468111       0.00331374       0.00000278
O        4.42386355       3.12814231       5.22223172      -0.00467449      -0.00331902      -0.00001448
O        3.71946023       1.13579175       4.00217213      -0.00234171       0.00330967       0.00405669
O        2.31065599       3.12814469       6.44229389       0.00234817      -0.00330515      -0.00406146
O        2.31065516       3.12814267       4.00217132       0.00234238      -0.00331351       0.00404859
O        3.71946061       1.13579147       6.44229362      -0.00233679       0.00330472      -0.00406326
