9
Lattice="4.597176110478055 9.62413805120787e-08 2.654180893962127 1.5323921734946921 4.334259083224405 2.6541808144065477 9.540187453505626e-08 -2.997598879682933e-08 5.3083616226833765" Properties=species:S:1:pos:R:3:forces:R:3 energy=-42.424476623535156 free_energy=-42.424476623535156 stress="0.00015067758795339614 -1.0361628888233554e-08 -6.329348423150805e-08 -1.0361628888233554e-08 0.00015061433077789843 -7.323044570739512e-08 -6.329348423150805e-08 -7.323044570739512e-08 0.00015043458552099764" pbc="T T T"
In       1.53239043       1.08356477       2.65418043      -0.00001654       0.00000010      -0.00000254
In       4.59717591       3.25069540       7.96254333      -0.00000348       0.00001075       0.00000826
Sn      -0.00000007       0.00000006      -0.00000049       0.00000322      -0.00000015       0.00001436
O        1.63319596       1.15484331       5.30836207       0.00763905       0.00539589       0.00000172
O        4.49637250       3.17941524       5.30836189      -0.00763381      -0.00540090       0.00000074
O        3.78057958       1.15484324       4.06857062      -0.00380898       0.00539225       0.00662136
O        2.34898930       3.17941620       6.54815288       0.00381571      -0.00540066      -0.00662655
O        2.34899119       3.17941499       4.06856894       0.00382534      -0.00540137       0.00660348
O        3.78057876       1.15484344       6.54815365      -0.00382027       0.00540411      -0.00662100
