9
Lattice="6.491521683149658 -8.810961673098913e-08 3.7478818053009926 2.1638404799553403 6.12026535506046 3.747881801878477 -4.5562219221854156e-08 -3.640909947616631e-08 7.495763689518158" Properties=species:S:1:pos:R:3:forces:R:3 energy=-32.71059799194336 free_energy=-32.71059799194336 stress="1.3871948794985656e-05 7.241148125558539e-09 7.012390224048204e-09 7.241148125558539e-09 1.3862704690836836e-05 4.040434209429122e-09 7.012390224048204e-09 4.040434209429122e-09 1.3852347365173046e-05" pbc="T T T"
In       2.16384072       1.53006633       3.74788179       0.00000025       0.00000014       0.00000035
In       6.49152139       4.59019887      11.24364553      -0.00000024       0.00000015       0.00000015
Sc       0.00000021       0.00000043       0.00000131      -0.00000117      -0.00000328      -0.00000903
Te       2.34591772       1.65881401       7.49576373       0.00465358       0.00329081      -0.00000011
Te       6.30944403       4.46145099       7.49576355      -0.00465154      -0.00328865       0.00000134
Te       5.31856287       1.65881440       5.77950597      -0.00232721       0.00329067       0.00403133
Te       3.33679956       4.46145030       9.21202070       0.00232535      -0.00328800      -0.00402719
Te       3.33679952       4.46145103       5.77950593       0.00232659      -0.00329071       0.00403107
Te       5.31856241       1.65881456       9.21202070      -0.00232560       0.00328887      -0.00402785
