9
Lattice="6.060817177712271 -4.214003040480985e-09 3.4992144202838045 2.020272375866144 5.714193386806206 3.4992144423355978 -6.829507169379427e-08 -2.1284127851659767e-08 6.998428958858221" Properties=species:S:1:pos:R:3:forces:R:3 energy=-29.93735694885254 free_energy=-29.93735694885254 stress="0.00010208960884483531 2.2802288945911187e-09 8.493441505663668e-09 2.2802288945911187e-09 0.00010208921594312415 -3.612728782798058e-09 8.493441505663668e-09 -3.612728782798058e-09 0.00010208907769992948" pbc="T T T"
In       2.02027275       1.42854809       3.49921430       0.00000115      -0.00000029       0.00000019
In       6.06081710       4.28564474      10.49764318      -0.00000030      -0.00000061      -0.00000012
Sn      -0.00000029      -0.00000030       0.00000017       0.00000458       0.00000273       0.00000052
Se       2.17951462       1.54115028       6.99842883       0.00729096       0.00515717       0.00000002
Se       5.90157482       4.17304401       6.99842872      -0.00729602      -0.00515923      -0.00000036
Se       4.97105952       1.54114963       5.38672977      -0.00364677       0.00515727       0.00631656
Se       3.11002988       4.17304366       8.61012797       0.00364662      -0.00515716      -0.00631623
Se       3.11003007       4.17304369       5.38672987       0.00364684      -0.00515704       0.00631623
Se       4.97105944       1.54114965       8.61012847      -0.00364709       0.00515728      -0.00631680
