9
Lattice="4.528627522173764 1.3582806768616712e-07 2.6146044699941293 1.5095425548092423 4.269631314769597 2.614604609670042 2.101936873568322e-07 3.196967526954485e-07 5.22920857592208" Properties=species:S:1:pos:R:3:forces:R:3 energy=-43.13543701171875 free_energy=-43.13543701171875 stress="0.00039549058419652283 -7.674349689068549e-08 3.295389205959509e-08 -7.674349689068549e-08 0.000395344162825495 -2.1056585808310047e-08 3.295389205959509e-08 -2.1056585808310047e-08 0.00039547422784380615" pbc="T T T"
In       1.50954048       1.06740786       2.61460341      -0.00001407      -0.00000052      -0.00000392
In       4.52862574       3.20222364       7.84381455      -0.00001290       0.00000106       0.00000500
Se      -0.00000019       0.00000013       0.00000024       0.00001275      -0.00000330      -0.00000037
O        1.45840391       1.03124645       5.22920944      -0.00380063      -0.00269002       0.00000767
O        4.57976762       3.23838515       5.22920780       0.00379932       0.00268662      -0.00000625
O        3.79942712       1.03124689       3.87761868       0.00190687      -0.00268847      -0.00329196
O        2.23874524       3.23838531       6.58079969      -0.00189567       0.00269014       0.00329620
O        2.23874418       3.23838454       3.87761844      -0.00190502       0.00268626      -0.00329345
O        3.79942717       1.03124700       6.58079901       0.00190842      -0.00268191       0.00328803
