9
Lattice="5.8089864774877995 -2.944078488026569e-07 3.353819660845752 1.9363286183187125 5.476764584138891 3.353819539498622 -9.197336716681113e-08 -2.1365429148952788e-07 6.707639480994111" Properties=species:S:1:pos:R:3:forces:R:3 energy=-30.69157600402832 free_energy=-30.69157600402832 stress="0.00011402449308661744 5.802516866992846e-08 -3.1813494061339043e-09 5.802516866992846e-08 0.00011398846982046962 -4.7224251176203325e-08 -3.1813494061339043e-09 -4.7224251176203325e-08 0.0001139250525739044" pbc="T T T"
In       1.93632952       1.36919111       3.35381923       0.00000096       0.00000093      -0.00000248
In       5.80898591       4.10757315      10.06145800      -0.00000027      -0.00000087      -0.00000254
Se      -0.00000003       0.00000007       0.00000008      -0.00000273      -0.00000567      -0.00002462
S        1.84171575       1.30228935       6.70764014      -0.00372618      -0.00263578      -0.00000082
S        5.90359949       4.17447429       6.70764029       0.00373292       0.00264001       0.00000001
S        4.88812912       1.30228853       4.94879108       0.00185487      -0.00262326      -0.00321418
S        2.85718657       4.17447450       8.46648728      -0.00186595       0.00263846       0.00323051
S        2.85718579       4.17447532       4.94879217      -0.00185987       0.00262880      -0.00322104
S        4.88812781       1.30228980       8.46648646       0.00186646      -0.00264251       0.00323516
