9
Lattice="5.7816937764908785 5.208866921528315e-08 3.3380623949245694 1.9272312337447994 5.451033283196401 3.338062523434302 -1.3595797253975934e-07 6.125486071325571e-08 6.676125025335163" Properties=species:S:1:pos:R:3:forces:R:3 energy=-31.862621307373047 free_energy=-31.862621307373047 stress="4.837970482185483e-05 4.82079487440501e-09 -1.407222427474153e-08 4.82079487440501e-09 4.837706364924088e-05 1.882623124060956e-08 -1.407222427474153e-08 1.882623124060956e-08 4.8383477405877784e-05" pbc="T T T"
In       1.92723130       1.36275831       3.33806244       0.00000076       0.00000036      -0.00000057
In       5.78169366       4.08827463      10.01418728      -0.00000027      -0.00000068      -0.00000111
Si      -0.00000030      -0.00000063      -0.00000021       0.00000045       0.00000410       0.00000238
Se       1.95725443       1.38398840       6.67612499       0.00332412       0.00234990       0.00000002
Se       5.75167047       4.06704530       6.67612532      -0.00332765      -0.00235098       0.00000139
Se       4.80306649       1.38398859       5.03309473      -0.00166096       0.00235003       0.00287811
Se       2.90585833       4.06704542       8.31915527       0.00166308      -0.00235305      -0.00288185
Se       2.90585833       4.06704536       5.03309451       0.00166388      -0.00235215       0.00288144
Se       4.80306679       1.38398823       8.31915538      -0.00166334       0.00235248      -0.00287978
