9
Lattice="4.504030824817888 -7.73728622809336e-08 2.600403237748188 1.50134354970363 4.246441579135978 2.6004032128434145 3.618692689524791e-08 -4.914062411767858e-09 5.2008064128188245" Properties=species:S:1:pos:R:3:forces:R:3 energy=-51.453102111816406 free_energy=-51.453102111816406 stress="-1.5586627341690473e-05 -1.3744080717970064e-07 -2.404902943453635e-08 -1.3744080717970064e-07 -1.5678080671932548e-05 2.5089033073300016e-09 -2.404902943453635e-08 2.5089033073300016e-09 -1.531817360955756e-05" pbc="T T T"
In       1.50134196       1.06161146       2.60040746      -0.00001481       0.00000855       0.00004066
In       4.50403068       3.18483030       7.80121267      -0.00000141      -0.00000769       0.00003366
Ti       0.00000014      -0.00000067       0.00000166      -0.00000417       0.00000730      -0.00000671
O        1.54565659       1.09294664       5.20080389      -0.00016695      -0.00010276      -0.00002279
O        4.45971822       3.15349442       5.20080439       0.00017130       0.00010222      -0.00002117
O        3.73120160       1.09294513       3.93898127       0.00007483      -0.00011468      -0.00015229
O        2.27417340       3.15349682       6.46262981      -0.00007710       0.00012732       0.00013447
O        2.27417305       3.15349668       3.93898067      -0.00006589       0.00010943      -0.00014287
O        3.73120193       1.09294509       6.46262948       0.00008428      -0.00012898       0.00013763
