9
Lattice="5.921338287715566 -3.217954713403787e-07 3.418686558998535 1.9737790978852463 5.582690707609732 3.4186866074294517 -2.4763348391484176e-08 4.1805128616560236e-08 6.837373160888457" Properties=species:S:1:pos:R:3:forces:R:3 energy=-36.524967193603516 free_energy=-36.524967193603516 stress="-4.625626388587989e-05 -4.0139429557939366e-08 -2.700873302785567e-08 -4.0139429557939366e-08 -4.621499829227105e-05 5.850638018500831e-08 -2.700873302785567e-08 5.850638018500831e-08 -4.623276981874369e-05" pbc="T T T"
In       1.97377946       1.39567305       3.41868660      -0.00000027       0.00000050       0.00000040
In       5.92133816       4.18701844      10.25605958       0.00000009       0.00000054       0.00000024
Ti      -0.00000110      -0.00000085       0.00000053       0.00000985       0.00001342      -0.00000530
Se       2.01620949       1.42567422       6.83737251       0.00032015       0.00022728       0.00000013
Se       5.87891086       4.15701609       6.83737287      -0.00033967      -0.00023807       0.00000030
Se       4.91323364       1.42567432       5.16477514      -0.00015953       0.00022924       0.00027909
Se       2.98188300       4.15701602       8.50997271       0.00016490      -0.00022978      -0.00028348
Se       2.98188251       4.15701634       5.16477341       0.00016659      -0.00023411       0.00028850
Se       4.91323348       1.42567408       8.50997196      -0.00016206       0.00023097      -0.00027976
