9
Lattice="5.5734099713284895 4.5735368911767735e-08 3.2178101763341056 1.8578033868836399 5.254661145123537 3.2178101417143012 1.663747228965492e-07 7.52443695103572e-08 6.4356200644988455" Properties=species:S:1:pos:R:3:forces:R:3 energy=-43.614540100097656 free_energy=-43.614540100097656 stress="-1.0616659892548341e-05 -5.8266696356668035e-08 2.719461811295787e-08 -5.8266696356668035e-08 -1.057767713064095e-05 -6.186755996395732e-08 2.719461811295787e-08 -6.186755996395732e-08 -1.0610502613417339e-05" pbc="T T T"
In       1.85780315       1.31366610       3.21781010      -0.00000038      -0.00000048      -0.00000020
In       5.57341005       3.94099664       9.65343026      -0.00000034      -0.00000177      -0.00000071
Ta      -0.00000054      -0.00000219       0.00000022       0.00000568       0.00002760       0.00000451
S        1.94787466       1.37735510       6.43561971       0.00025979       0.00018516       0.00000007
S        5.48334028       3.87730622       6.43562034      -0.00027791      -0.00019661       0.00000109
S        4.59947241       1.37735596       4.90471825      -0.00013030       0.00018477       0.00022501
S        2.83174087       3.87730611       7.96652293       0.00013901      -0.00019428      -0.00023928
S        2.83174096       3.87730608       4.90471892       0.00013421      -0.00018790       0.00023606
S        4.59947245       1.37735519       7.96652103      -0.00013007       0.00018388      -0.00022626
