9
Lattice="6.418847202098688 -2.7568700042248442e-08 3.7059230454922605 2.139615782651003 6.051747247739079 3.705922916263717 1.3434624196424235e-07 -6.327479787342438e-08 7.411845858290071" Properties=species:S:1:pos:R:3:forces:R:3 energy=-37.298057556152344 free_energy=-37.298057556152344 stress="-7.454192382283509e-05 1.5738526926156737e-08 2.6838524291861177e-08 1.5738526926156737e-08 -7.454938167938963e-05 -4.134227538088453e-08 2.6838524291861177e-08 -4.134227538088453e-08 -7.456010644091293e-05" pbc="T T T"
In       2.13961562       1.51293692       3.70592272       0.00000034      -0.00000007       0.00000012
In       6.41884697       4.53880963      11.11776943       0.00000014       0.00000009       0.00000020
Ta       0.00000021       0.00000016       0.00000035      -0.00000190      -0.00000040      -0.00000128
Te       2.24924062       1.59045360       7.41184580      -0.00435746      -0.00308183      -0.00000052
Te       6.30922187       4.46129375       7.41184549       0.00436169       0.00308451       0.00000026
Te       5.29422739       1.59045369       5.65382190       0.00217703      -0.00308071      -0.00377159
Te       3.26423625       4.46129349       9.16986968      -0.00217871       0.00308026       0.00377286
Te       3.26423663       4.46129348       5.65382225      -0.00218077       0.00308255      -0.00377626
Te       5.29422687       1.59045392       9.16986969       0.00217962      -0.00308447       0.00377617
