9
Lattice="6.3524136484199145 -3.2646378279988985e-08 3.6675678797096003 2.1174712134871845 5.98911344220527 3.6675678309930797 4.716256125142515e-08 -2.6316301949237526e-08 7.335135677731225" Properties=species:S:1:pos:R:3:forces:R:3 energy=-33.92616271972656 free_energy=-33.92616271972656 stress="1.119841545005329e-05 2.395547227251882e-08 1.4711702966963003e-08 2.395547227251882e-08 1.1187869858986232e-05 -3.373615342638914e-08 1.4711702966963003e-08 -3.373615342638914e-08 1.1170617653988302e-05" pbc="T T T"
In       2.11747109       1.49727888       3.66756790      -0.00000029      -0.00000011       0.00000021
In       6.35241357       4.49183429      11.00270309      -0.00000007      -0.00000018       0.00000034
Ti      -0.00000044       0.00000017       0.00000057       0.00000324       0.00000069      -0.00000319
Te       2.22022440       1.56993630       7.33513574      -0.00021236      -0.00015062      -0.00000028
Te       6.24966060       4.41917739       7.33513587       0.00021013       0.00014927      -0.00000094
Te       5.24230220       1.56993535       5.59033805       0.00010351      -0.00014559      -0.00017882
Te       3.22758347       4.41917730       9.07993294      -0.00010516       0.00014875       0.00018164
Te       3.22758301       4.41917742       5.59033854      -0.00010483       0.00014865      -0.00018206
Te       5.24230171       1.56993649       9.07993285       0.00010589      -0.00015088       0.00018312
