9
Lattice="4.701608620208578 1.8019040005221757e-08 2.7144750001238527 1.5672027760952152 4.4327197602327875 2.7144751980906667 -2.0080373719465185e-07 1.0046911045451891e-07 5.428950348050063" Properties=species:S:1:pos:R:3:forces:R:3 energy=-43.973243713378906 free_energy=-43.973243713378906 stress="-2.0968750504835043e-06 1.2018098516364262e-07 -1.4653481628101872e-07 1.2018098516364262e-07 -2.183478954975726e-06 8.122908212726543e-08 -1.4653481628101872e-07 8.122908212726543e-08 -2.273907284688903e-06" pbc="T T T"
In       1.56720256       1.10817962       2.71447494       0.00000059      -0.00000298       0.00000131
In       4.70160957       3.32454031       8.14342848       0.00000904       0.00000328       0.00002597
Te      -0.00000001       0.00000019      -0.00000013      -0.00000678      -0.00000426       0.00000365
O        1.55668149       1.10074039       5.42895043       0.00017571       0.00012296       0.00000086
O        4.71212933       3.33197948       5.42894859      -0.00016874      -0.00011498      -0.00001762
O        3.92326798       1.10074029       4.06260098      -0.00008681       0.00012317       0.00015163
O        2.34554285       3.33197954       6.79529902       0.00007981      -0.00012130      -0.00016040
O        2.34554322       3.33197970       4.06260064       0.00009149      -0.00013056       0.00015765
O        3.92326759       1.10074002       6.79529929      -0.00009397       0.00012448      -0.00016338
