9
Lattice="5.942622656136095 1.4196821651614014e-07 3.430974998759452 1.9808743793504469 5.602758769484789 3.4309749523586617 6.679688322153801e-08 -9.596633556415189e-09 6.861949881823336" Properties=species:S:1:pos:R:3:forces:R:3 energy=-29.179397583007812 free_energy=-29.179397583007812 stress="-0.000240299865254201 -1.4272761639233522e-08 -3.701619011309276e-09 -1.4272761639233522e-08 -0.00024031887005548924 -3.319942720736435e-08 -3.701619011309276e-09 -3.319942720736435e-08 -0.00024033203953877091" pbc="T T T"
In       1.98087436       1.40068968       3.43097480      -0.00000099       0.00000039      -0.00000003
In       5.94262294       4.20206897      10.29292465       0.00000002       0.00000051       0.00000085
Te      -0.00000044       0.00000121       0.00000080       0.00000258      -0.00000554      -0.00000459
Se       2.39090767       1.69062691       6.86195053      -0.00812778      -0.00574818      -0.00000010
Se       5.53258912       3.91213220       6.86195089       0.00812876       0.00574750      -0.00000025
Se       4.74716830       1.69062680       5.50156058       0.00406219      -0.00574517      -0.00703657
Se       3.17632866       3.91213129       8.22233732      -0.00406624       0.00575098       0.00704277
Se       3.17632868       3.91213140       5.50156163      -0.00406364       0.00574780      -0.00704110
Se       4.74716907       1.69062713       8.22233817       0.00406507      -0.00574815       0.00703913
