9
Lattice="4.50604641819601 1.1906593020008807e-07 2.601567584298602 1.5020156358444205 4.248341826340759 2.601567496213432 1.6494002948568474e-07 8.748379127357353e-09 5.20313488291268" Properties=species:S:1:pos:R:3:forces:R:3 energy=-51.453025817871094 free_energy=-51.453025817871094 stress="0.0008472630870528519 -3.139562565479537e-08 -5.50514869246399e-08 -3.139562565479537e-08 0.0008469894528388977 5.107020228933834e-08 -5.50514869246399e-08 5.107020228933834e-08 0.0008472705376334488" pbc="T T T"
In       1.50201749       1.06208682       2.60156690       0.00001923       0.00000848      -0.00000835
In       4.50604834       3.18625423       7.80470059       0.00001311      -0.00001695      -0.00001929
Ti       0.00000052       0.00000017      -0.00000055      -0.00000014      -0.00000499      -0.00000092
O        1.54572264       1.09299138       5.20313628       0.00754857       0.00534272       0.00001219
O        4.46233805       3.15535088       5.20313690      -0.00754684      -0.00533116       0.00001080
O        3.73318384       1.09299227       3.94020233      -0.00377864       0.00533867       0.00653261
O        2.27487650       3.15535019       6.46606695       0.00375924      -0.00533819      -0.00653070
O        2.27487629       3.15534983       3.94020300       0.00376087      -0.00534230       0.00653762
O        3.73318529       1.09299202       6.46606766      -0.00377581       0.00534362      -0.00653422
