9
Lattice="5.89160472455216 1.412394696355448e-09 3.401519415111166 1.9638681756063496 5.554658475944668 3.401519531578592 1.0109562432137158e-08 1.497914776890725e-07 6.803038812712063" Properties=species:S:1:pos:R:3:forces:R:3 energy=-40.33951187133789 free_energy=-40.33951187133789 stress="-0.00025757678668014705 3.1067607153545396e-08 -2.6710699430054774e-08 3.1067607153545396e-08 -0.0002576011756900698 8.308754573249644e-09 -2.6710699430054774e-08 8.308754573249644e-09 -0.0002575866528786719" pbc="T T T"
In       1.96386809       1.38866439       3.40151956      -0.00000019      -0.00000030       0.00000071
In       5.89160443       4.16599378      10.20455818      -0.00000013      -0.00000036       0.00000055
Ta       0.00000000      -0.00000025       0.00000043      -0.00000065       0.00000145       0.00000034
Se       2.05647764       1.45414909       6.80303856       0.00741472       0.00524186       0.00000036
Se       5.79899496       4.10050940       6.80303904      -0.00741335      -0.00524165      -0.00000116
Se       4.86336602       1.45414924       5.18248126      -0.00370694       0.00524303       0.00642092
Se       2.99210731       4.10050983       8.42359602       0.00370771      -0.00524296      -0.00642245
Se       2.99210701       4.10050939       5.18248139       0.00370909      -0.00524513       0.00642382
Se       4.86336613       1.45414955       8.42359653      -0.00371011       0.00524408      -0.00642288
