9
Lattice="5.63461136446431 -1.5916644069868183e-08 3.253144255728235 1.878203791650804 5.3123625203028375 3.253144223681785 1.3668468748676936e-07 5.740174152955377e-08 6.506288274711663" Properties=species:S:1:pos:R:3:forces:R:3 energy=-39.156593322753906 free_energy=-39.156593322753906 stress="-8.417966455454007e-05 -1.6661111601479206e-08 -4.508310169626384e-08 -1.6661111601479206e-08 -8.415512274950743e-05 4.3047418074593224e-08 -4.508310169626384e-08 4.3047418074593224e-08 -8.407932182308286e-05" pbc="T T T"
In       1.87820495       1.32809043       3.25314415       0.00000092       0.00000072      -0.00000027
In       5.63461166       3.98427351       9.75943212       0.00000069       0.00000271      -0.00000140
Ti      -0.00000054       0.00000010       0.00000072       0.00000275      -0.00000264      -0.00000602
S        1.90477513       1.34687980       6.50628808       0.00108507       0.00076562      -0.00000068
S        5.60803894       3.96548291       6.50628837      -0.00108540      -0.00076431      -0.00000150
S        4.68222387       1.34687960       4.90272915      -0.00054115       0.00076488       0.00093991
S        2.83059221       3.96548154       8.10984758       0.00053853      -0.00076225      -0.00093064
S        2.83059118       3.96548250       4.90272867       0.00054073      -0.00076908       0.00094029
S        4.68222383       1.34688002       8.10984813      -0.00054197       0.00076452      -0.00093991
