9
Lattice="5.632875810470244 -1.9463061378069408e-07 3.252142342339328 1.877625107442635 5.310726159530833 3.2521423063379102 -7.759992640875372e-08 -9.89639324137788e-08 6.504284819085625" Properties=species:S:1:pos:R:3:forces:R:3 energy=-39.15656280517578 free_energy=-39.15656280517578 stress="-2.908318674599286e-05 -8.29712973882124e-08 4.103370443431231e-08 -8.29712973882124e-08 -2.9000360882491805e-05 2.7220480092182697e-08 4.103370443431231e-08 2.7220480092182697e-08 -2.891403164539952e-05" pbc="T T T"
In       1.87762575       1.32768126       3.25214257       0.00000145      -0.00000243       0.00000010
In       5.63287544       3.98304412       9.75642675       0.00000092      -0.00000155      -0.00000114
Ti      -0.00000027      -0.00000011       0.00000063       0.00000257       0.00000207      -0.00000580
S        1.90517261       1.34716031       6.50428511      -0.00691518      -0.00488862      -0.00000107
S        5.60532856       3.96356574       6.50428480       0.00691038       0.00488728       0.00000124
S        4.68028909       1.34716063       4.90207045       0.00345670      -0.00488883      -0.00599056
S        2.83021150       3.96356517       8.10649854      -0.00345981       0.00489503       0.00599316
S        2.83021178       3.96356610       4.90207029      -0.00345734       0.00489119      -0.00599024
S        4.68028892       1.34716005       8.10649876       0.00346023      -0.00489417       0.00599372
