9
Lattice="6.351107872486824 -1.700731166076447e-08 3.666813991707242 2.1170359546580584 5.987882138040366 3.666813968849218 7.791126662239855e-08 2.7096308698664772e-08 7.333627848468194" Properties=species:S:1:pos:R:3:forces:R:3 energy=-33.926151275634766 free_energy=-33.926151275634766 stress="-0.0001285474863834679 -2.324071424197882e-08 -2.336143944958735e-09 -2.324071424197882e-08 -0.00012852888903580606 1.3535389475904935e-10 -2.336143944958735e-09 1.3535389475904935e-10 -0.00012850378698203713" pbc="T T T"
In       2.11703562       1.49697058       3.66681367       0.00000013      -0.00000004       0.00000009
In       6.35110815       4.49091183      11.00044169      -0.00000053      -0.00000022      -0.00000024
Ti      -0.00000015      -0.00000009       0.00000027       0.00000235       0.00000083      -0.00000080
Te       2.22005741       1.56981761       7.33362818      -0.00137740      -0.00097354       0.00000028
Te       6.24808680       4.41806461       7.33362817       0.00137484       0.00097236       0.00000025
Te       5.24107920       1.56981768       5.58944065       0.00068905      -0.00097374      -0.00119361
Te       3.22706481       4.41806437       9.07781510      -0.00068879       0.00097478       0.00119364
Te       3.22706480       4.41806428       5.58944050      -0.00068895       0.00097410      -0.00119417
Te       5.24107899       1.56981769       9.07781496       0.00068934      -0.00097463       0.00119452
