9
Lattice="4.5790415425893 -4.013008085889487e-07 2.6437104258005646 1.5263469990424232 4.317160411798382 2.643710085401739 1.0522504012665757e-07 -3.4249640487078924e-07 5.28742066934603" Properties=species:S:1:pos:R:3:forces:R:3 energy=-49.56770324707031 free_energy=-49.56770324707031 stress="-5.536865864996798e-05 6.21732709760181e-08 -1.376602831726359e-08 6.21732709760181e-08 -5.534425508813001e-05 -7.321108341784566e-08 -1.376602831726359e-08 -7.321108341784566e-08 -5.556969699682668e-05" pbc="T T T"
In       1.52634719       1.07928799       2.64371081      -0.00000084      -0.00001179      -0.00000180
In       4.57904173       3.23787029       7.93112496       0.00000579       0.00000005      -0.00004621
V        0.00000016       0.00000002      -0.00000027      -0.00000104       0.00000011      -0.00000247
O        1.50989782       1.06765861       5.28742116       0.00131691       0.00093347       0.00001139
O        4.59549061       3.24950153       5.28742298      -0.00131941      -0.00092638       0.00001329
O        3.82409156       1.06765766       3.95132019      -0.00066662       0.00093460       0.00114900
O        2.28129730       3.24950221       6.62352188       0.00066897      -0.00093424      -0.00113964
O        2.28129446       3.24950196       3.95132100       0.00065333      -0.00092983       0.00115544
O        3.82409369       1.06765854       6.62352147      -0.00065637       0.00093406      -0.00113910
