9
Lattice="6.2594783394534455 -4.9229303942040614e-08 3.613911632183003 2.0864927267603712 5.901493143414913 3.6139116436899874 -2.4003879310043125e-07 -1.5563989686093885e-07 7.227823680125472" Properties=species:S:1:pos:R:3:forces:R:3 energy=-33.727745056152344 free_energy=-33.727745056152344 stress="-9.836927347350866e-06 -2.1476690648114527e-08 -1.617275025012077e-08 -2.1476690648114527e-08 -9.838200639933348e-06 2.64426933682671e-08 -1.617275025012077e-08 2.64426933682671e-08 -9.798695828067139e-06" pbc="T T T"
In       2.08649255       1.47537277       3.61391181      -0.00000039       0.00000025      -0.00000031
In       6.25947824       4.42611965      10.84173475       0.00000017      -0.00000026       0.00000003
V       -0.00000078      -0.00000037      -0.00000048       0.00000155       0.00000008       0.00000023
Te       2.17888520       1.54070350       7.22782380       0.00092377       0.00065269      -0.00000018
Te       6.16708543       4.36078923       7.22782371      -0.00092303      -0.00065414      -0.00000014
Te       5.17003601       1.54070445       5.50088209      -0.00046066       0.00065187       0.00079757
Te       3.17593565       4.36078901       8.95476458       0.00045951      -0.00065111      -0.00079634
Te       3.17593533       4.36078944       5.50088211       0.00046101      -0.00065283       0.00079855
Te       5.17003569       1.54070408       8.95476534      -0.00046191       0.00065346      -0.00079945
