9
Lattice="4.578971039216947 1.8449690436438728e-07 2.6436702689763374 1.5263238289935244 4.3170955119594 2.6436703117421807 1.4202769865900163e-07 1.5280597512021707e-07 5.28734029195351" Properties=species:S:1:pos:R:3:forces:R:3 energy=-49.56770706176758 free_energy=-49.56770706176758 stress="-9.030121145769954e-05 -1.4932169278836227e-08 2.9671186396740268e-08 -1.4932169278836227e-08 -9.034699178300798e-05 -2.869505166813724e-08 2.9671186396740268e-08 -2.869505166813724e-08 -9.01927487575449e-05" pbc="T T T"
In       1.52632377       1.07927444       2.64367020      -0.00000081       0.00000200      -0.00000033
In       4.57897130       3.23782201       7.93101161       0.00000108       0.00000129       0.00001065
V        0.00000009       0.00000000       0.00000020       0.00000117       0.00000335      -0.00000053
O        1.50988656       1.06765063       5.28734018       0.00159240       0.00112307      -0.00000335
O        4.59540852       3.24944524       5.28733985      -0.00159258      -0.00112522      -0.00000370
O        3.82402848       1.06765120       3.95127004      -0.00079519       0.00112879       0.00137740
O        2.28126671       3.24944444       6.62341076       0.00079456      -0.00112873      -0.00137955
O        2.28126689       3.24944461       3.95127013       0.00079390      -0.00112879       0.00137705
O        3.82402801       1.06765106       6.62341021      -0.00079465       0.00112432      -0.00137770
