9
Lattice="5.591848075095496 -1.5840992258743605e-07 3.2284549452841316 1.8639493001395746 5.272044084344054 3.228454787451691 1.2168597484739853e-07 -1.0725962717012119e-07 6.456909679802033" Properties=species:S:1:pos:R:3:forces:R:3 energy=-39.83498764038086 free_energy=-39.83498764038086 stress="-1.967197204066906e-05 1.0112948700680136e-08 -3.322321973087128e-09 1.0112948700680136e-08 -1.9639563106466085e-05 -1.0052364496360155e-09 -3.322321973087128e-09 -1.0052364496360155e-09 -1.9642724510049447e-05" pbc="T T T"
In       1.86394921       1.31801057       3.22845478      -0.00000014      -0.00000139      -0.00000050
In       5.59184793       3.95403227       9.68536431      -0.00000084      -0.00000248       0.00000007
V        0.00000017      -0.00000023      -0.00000052       0.00000305       0.00000298       0.00000394
S        1.83282271       1.29600082       6.45690991      -0.00568897      -0.00402245       0.00000126
S        5.62297530       3.97604362       6.45690987       0.00568193       0.00402001       0.00000038
S        4.67543676       1.29600094       4.81572541       0.00284526      -0.00402027      -0.00492543
S        2.78036053       3.97604314       8.09809422      -0.00284022       0.00401896       0.00492120
S        2.78036017       3.97604284       4.81572552      -0.00284338       0.00402161      -0.00492465
S        4.67543735       1.29600110       8.09809431       0.00284383      -0.00401706       0.00492352
