9
Lattice="5.865265736212953 -3.2923307355265733e-08 3.386312723090082 1.9550885325645966 5.529825243108003 3.3863127493005307 -6.154591161150711e-08 -1.141836731766475e-08 6.772625552780761" Properties=species:S:1:pos:R:3:forces:R:3 energy=-36.61528778076172 free_energy=-36.61528778076172 stress="-2.151547778339591e-05 1.210402622575657e-08 9.683160939744084e-09 1.210402622575657e-08 -2.1552774342126213e-05 4.4999386439315e-09 9.683160939744084e-09 4.4999386439315e-09 -2.1549369193962775e-05" pbc="T T T"
In       1.95508872       1.38245635       3.38631304       0.00000021       0.00000037      -0.00000027
In       5.86526561       4.14736903      10.15893855      -0.00000050       0.00000041      -0.00000049
V       -0.00000022       0.00000017       0.00000050      -0.00000028      -0.00000012      -0.00000074
Se       1.95964864       1.38568065       6.77262533       0.00062883       0.00044461       0.00000006
Se       5.86070577       4.14414420       6.77262502      -0.00062895      -0.00044519      -0.00000059
Se       4.88544109       1.38568074       5.08341803      -0.00031485       0.00044537       0.00054550
Se       2.93491306       4.14414449       8.46183284       0.00031467      -0.00044350      -0.00054429
Se       2.93491289       4.14414454       5.08341797       0.00031494      -0.00044577       0.00054580
Se       4.88544122       1.38568059       8.46183285      -0.00031403       0.00044374      -0.00054476
