9
Lattice="5.595200019724797 -3.656450017430703e-07 3.2303903249698185 1.865066320348606 5.275205720462679 3.2303903391025504 -3.3952098979604543e-07 -2.2276858485187708e-07 6.4607812380072405" Properties=species:S:1:pos:R:3:forces:R:3 energy=-39.83498001098633 free_energy=-39.83498001098633 stress="-2.6990692276740447e-05 -6.924586237744279e-09 1.872226640386998e-08 -6.924586237744279e-09 -2.7021831556339748e-05 2.6366118177634235e-08 1.872226640386998e-08 2.6366118177634235e-08 -2.7036736355512403e-05" pbc="T T T"
In       1.86506678       1.31880103       3.23039152       0.00000013      -0.00000039       0.00000162
In       5.59519948       3.95640473       9.69117269      -0.00000013       0.00000053       0.00000148
V       -0.00000034      -0.00000032      -0.00000216       0.00000509       0.00000072       0.00002682
S        1.83230690       1.29563582       6.46078163       0.00709641       0.00501549       0.00000709
S        5.62795916       3.97956941       6.46078108      -0.00710279      -0.00502068       0.00000637
S        4.67904554       1.29563724       4.81721390      -0.00354251       0.00501138       0.00613683
S        2.78121797       3.97956976       8.10434717       0.00355232      -0.00502670      -0.00615597
S        2.78122043       3.97956787       4.81721450       0.00354332      -0.00500959       0.00613558
S        4.67904783       1.29563501       8.10434704      -0.00355265       0.00502893      -0.00615984
