9
Lattice="5.864857011003743 -2.206233586737584e-08 3.3860766541534777 1.9549522649502522 5.52944013391683 3.3860767429218184 -5.675772640199989e-08 6.858478255682022e-08 6.772153406614226" Properties=species:S:1:pos:R:3:forces:R:3 energy=-36.61528396606445 free_energy=-36.61528396606445 stress="-0.00010059617488877848 -1.1145272260648653e-08 -2.5452888685606467e-09 -1.1145272260648653e-08 -0.0001005865924526006 9.041985826740984e-09 -2.5452888685606467e-09 9.041985826740984e-09 -0.00010059112537419423" pbc="T T T"
In       1.95495256       1.38236009       3.38607676       0.00000046      -0.00000027      -0.00000060
In       5.86485703       4.14708027      10.15822996       0.00000015      -0.00000034       0.00000067
V        0.00000062       0.00000026      -0.00000015      -0.00000189      -0.00000101      -0.00000002
Se       1.95944993       1.38554048       6.77215353       0.00264284       0.00186907       0.00000048
Se       5.86035914       4.14389932       6.77215351      -0.00264081      -0.00186719      -0.00000017
Se       4.88513170       1.38554058       5.08301030      -0.00132090       0.00186792       0.00228691
Se       2.93467717       4.14389972       8.46129649       0.00132087      -0.00186791      -0.00228782
Se       2.93467692       4.14389981       5.08301031       0.00132105      -0.00186858       0.00228800
Se       4.88513182       1.38554018       8.46129655      -0.00132155       0.00186826      -0.00228746
