9
Lattice="6.257500288335183 -2.1321312022730754e-07 3.612769776624503 2.085833436851791 5.899627529604888 3.612769415620173 -1.2317118779281294e-07 -5.292335593064354e-07 7.225539766588054" Properties=species:S:1:pos:R:3:forces:R:3 energy=-33.727718353271484 free_energy=-33.727718353271484 stress="-0.00022282730787992477 -2.605804461097705e-09 -1.2782320757409593e-09 -2.605804461097705e-09 -0.00022280450502876192 -1.9510096649355546e-08 -1.2782320757409593e-09 -1.9510096649355546e-08 -0.00022279065160546452" pbc="T T T"
In       2.08583348       1.47490723       3.61277047       0.00000013       0.00000007      -0.00000061
In       6.25750043       4.42471991      10.83830801      -0.00000033       0.00000017       0.00000053
V        0.00000001       0.00000012      -0.00000143      -0.00000082      -0.00000147       0.00000127
Te       2.17850358       1.54043434       7.22554062       0.00047292       0.00033371       0.00000171
Te       6.16483023       4.35919197       7.22554138      -0.00047188      -0.00033349      -0.00000146
Te       5.16824783       1.54043347       5.49940951      -0.00023730       0.00033584       0.00040868
Te       3.17508556       4.35919287       8.95166837       0.00023580      -0.00033401      -0.00040914
Te       3.17508413       4.35919216       5.49941012       0.00023698      -0.00033315       0.00040695
Te       5.16824914       1.54043499       8.95166878      -0.00023548       0.00033235      -0.00040781
