9
Lattice="6.36035087611748 -5.185119060766574e-07 3.672150798608758 2.120116343652176 5.996596803551449 3.672151017186306 -1.1256878766365524e-07 1.881036536906873e-07 7.344301792192289" Properties=species:S:1:pos:R:3:forces:R:3 energy=-36.80266571044922 free_energy=-36.80266571044922 stress="-3.4137551665480714e-06 -2.2547519051840936e-07 -2.198611603887457e-08 -2.2547519051840936e-07 -3.2940001801762264e-06 2.886076799768489e-08 -2.198611603887457e-08 2.886076799768489e-08 -3.1449760626856005e-06" pbc="T T T"
In       2.12011701       1.49914860       3.67215061      -0.00000025      -0.00000021       0.00000005
In       6.36035039       4.49744744      11.01645329      -0.00000018      -0.00000027      -0.00000018
W       -0.00000207      -0.00000136      -0.00000033       0.00000999       0.00000714       0.00000165
Te       2.20564120       1.55962449       7.34430199      -0.00023740      -0.00016690      -0.00000064
Te       6.27482722       4.43697362       7.34430182       0.00022341       0.00015831       0.00000122
Te       5.25752902       1.55962580       5.58229479       0.00012640      -0.00017709      -0.00021833
Te       3.22293804       4.43697105       9.10630849      -0.00012384       0.00017769       0.00021788
Te       3.22293820       4.43697115       5.58229441      -0.00012351       0.00017668      -0.00021694
Te       5.25752941       1.55962507       9.10630936       0.00012539      -0.00017542       0.00021530
