9
Lattice="5.985542473337714 6.437511044298258e-08 3.455754206932746 1.9951809219331313 5.643222859502471 3.455754143203951 1.4322144729960473e-07 2.3221543798868613e-08 6.9115081657986215" Properties=species:S:1:pos:R:3:forces:R:3 energy=-40.60234832763672 free_energy=-40.60234832763672 stress="4.7845340304775164e-05 8.428367692658867e-08 -3.537306270118279e-08 8.428367692658867e-08 4.778796574100852e-05 4.000227704636927e-08 -3.537306270118279e-08 4.000227704636927e-08 4.771956446347758e-05" pbc="T T T"
In       1.99518050       1.41080554       3.45575402      -0.00000081      -0.00000017      -0.00000028
In       5.98554278       4.23241743      10.36726214      -0.00000021       0.00000039      -0.00000029
W       -0.00000026      -0.00000033      -0.00000153       0.00000462       0.00000279       0.00003047
Se       1.97306978       1.39517022       6.91150873      -0.00149161      -0.00105506       0.00000047
Se       6.00765405       4.24805163       6.91150869       0.00148838       0.00105320       0.00000144
Se       4.99900802       1.39517094       5.16448279       0.00074606      -0.00105683      -0.00129379
Se       2.98171482       4.24805325       8.65853438      -0.00073681       0.00104228       0.00127790
Se       2.98171536       4.24805282       5.16448229      -0.00074425       0.00105281      -0.00129011
Se       4.99900903       1.39517033       8.65853465       0.00073461      -0.00103933       0.00127428
