9
Lattice="5.7174325171033775 3.810384433336957e-07 3.3009621645997202 1.905811174323511 5.390446953963229 3.300962206095347 4.4236921713883667e-07 3.636239029032532e-07 6.601923562993548" Properties=species:S:1:pos:R:3:forces:R:3 energy=-44.198089599609375 free_energy=-44.198089599609375 stress="2.691456029424444e-05 -1.263866522549506e-07 6.50549765168762e-08 -1.263866522549506e-07 2.7003681680071168e-05 -7.038609339815594e-08 6.50549765168762e-08 -7.038609339815594e-08 2.7095742552774027e-05" pbc="T T T"
In       1.90581115       1.34761168       3.30096231       0.00000074       0.00000013       0.00000006
In       5.71743377       4.04283620       9.90288561       0.00000093       0.00000001      -0.00000011
W        0.00000034      -0.00000010       0.00000067      -0.00002062      -0.00000266      -0.00001835
S        1.87023426       1.32245618       6.60192481      -0.00050943      -0.00035659      -0.00000036
S        5.75300814       4.06799063       6.60192487       0.00052799       0.00037406      -0.00000177
S        4.78231392       1.32245571       4.92063338       0.00025579      -0.00037021      -0.00045191
S        2.84092918       4.06799082       8.28321417      -0.00026659       0.00037288       0.00045461
S        2.84093025       4.06799139       4.92063332      -0.00026126       0.00036841      -0.00045133
S        4.78231558       1.32245835       8.28321264       0.00027253      -0.00038616       0.00046917
