9
Lattice="4.800049719909595 -6.764025363073696e-08 2.7713100305935203 1.600016519060817 4.5255303466232855 2.771310014088014 5.893026269473964e-08 2.1454959597622626e-08 5.542619959116806" Properties=species:S:1:pos:R:3:forces:R:3 energy=-45.81031036376953 free_energy=-45.81031036376953 stress="0.0001068726705852896 -1.9361170444653908e-08 -3.560811734359959e-08 -1.9361170444653908e-08 0.00010676938109099865 -4.5660460301633066e-08 -3.560811734359959e-08 -4.5660460301633066e-08 0.00010699818813009188" pbc="T T T"
In       1.60001638       1.13138267       2.77130969      -0.00000272      -0.00000026      -0.00000185
In       4.80004920       3.39414679       8.31393026      -0.00000432      -0.00000851       0.00000677
Y        0.00000022      -0.00000013       0.00000098      -0.00000335       0.00000292      -0.00001593
O        1.76264780       1.24638062       5.54262031      -0.00218156      -0.00153729       0.00000017
O        4.63741829       3.27915009       5.54261937       0.00218251       0.00154103      -0.00000555
O        3.91872596       1.24638046       4.29780788       0.00108980      -0.00153433      -0.00188941
O        2.48134104       3.27914973       6.78743204      -0.00109131       0.00154372       0.00189425
O        2.48134055       3.27915032       4.29780754      -0.00108618       0.00153819      -0.00188471
O        3.91872582       1.24638068       6.78743181       0.00109740      -0.00154559       0.00189601
