9
Lattice="6.043084252079284 1.2276107490795243e-07 3.4889762711433985 2.0143615773188572 5.697474542824854 3.488976194554163 1.6512714524139549e-07 2.296022511822782e-08 6.977952256278215" Properties=species:S:1:pos:R:3:forces:R:3 energy=-35.17879104614258 free_energy=-35.17879104614258 stress="5.252938353805803e-05 5.1571449333209785e-09 -1.0701694641568338e-08 5.1571449333209785e-09 5.251833135844208e-05 6.216755443766431e-10 -1.0701694641568338e-08 6.216755443766431e-10 5.2507220971165225e-05" pbc="T T T"
In       2.01436104       1.42436886       3.48897632      -0.00000174       0.00000044       0.00000061
In       6.04308440       4.27310566      10.46692817       0.00000011      -0.00000140      -0.00000009
Y        0.00000003       0.00000063       0.00000055       0.00000076      -0.00000311      -0.00000357
S        2.22026386       1.56996364       6.97795191      -0.00192444      -0.00135925      -0.00000037
S        5.83718175       4.12751092       6.97795286       0.00192427       0.00136124       0.00000141
S        4.93295335       1.56996403       5.41178100       0.00096330      -0.00135802      -0.00166490
S        3.12449381       4.12751090       8.54412376      -0.00096202       0.00136070       0.00166648
S        3.12449325       4.12751082       5.41178072      -0.00096230       0.00135959      -0.00166566
S        4.93295252       1.56996333       8.54412366       0.00096201      -0.00136020       0.00166612
