9
Lattice="6.690428414153438 -7.949291978575222e-08 3.862720594118441 2.2301427423590217 6.307796206255243 3.8627205723156437 -4.650901231511752e-09 -2.9991582626501647e-08 7.7254411962924845" Properties=species:S:1:pos:R:3:forces:R:3 energy=-32.704139709472656 free_energy=-32.704139709472656 stress="-3.988508979091421e-05 1.531630644535653e-08 1.4048361363094841e-09 1.531630644535653e-08 -3.989872493548319e-05 -2.2933170917838197e-09 1.4048361363094841e-09 -2.2933170917838197e-09 -3.98972442781087e-05" pbc="T T T"
In       2.23014285       1.57694899       3.86272032       0.00000020       0.00000013      -0.00000000
In       6.69042842       4.73084711      11.58816210      -0.00000019      -0.00000019       0.00000051
Y       -0.00000018       0.00000011       0.00000038       0.00000041       0.00000049      -0.00000073
Te       2.48817686       1.75940667       7.72544101      -0.00102832      -0.00072644      -0.00000011
Te       6.43239449       4.54838947       7.72544106       0.00102806       0.00072674      -0.00000036
Te       5.44633996       1.75940668       6.01754509       0.00051312      -0.00072576      -0.00088912
Te       3.47423121       4.54838932       9.43333737      -0.00051292       0.00072580       0.00088912
Te       3.47423100       4.54838932       6.01754510      -0.00051375       0.00072487      -0.00088852
Te       5.44634003       1.75940670       9.43333703       0.00051332      -0.00072565       0.00088916
