9
Lattice="6.324368517209089 1.0688789396320678e-07 3.651375585505977 2.108122953428585 5.96267151305845 3.651375561977611 -5.315960726083957e-08 -6.640571447587807e-08 7.30275126308711" Properties=species:S:1:pos:R:3:forces:R:3 energy=-25.107906341552734 free_energy=-25.107906341552734 stress="-0.00012715152115561068 1.921055137188432e-08 -1.1197018867648012e-09 1.921055137188432e-08 -0.0001271134096896276 3.0303783926655115e-09 -1.1197018867648012e-09 3.0303783926655115e-09 -0.0001271109067602083" pbc="T T T"
In       2.10812277       1.49066804       3.65137559      -0.00000003      -0.00000022      -0.00000023
In       6.32436871       4.47200357      10.95412673      -0.00000033       0.00000018      -0.00000002
Zn      -0.00000035       0.00000037      -0.00000027       0.00000045      -0.00000115       0.00000186
Te       2.26684020       1.60289833       7.30275130      -0.00169788      -0.00120082      -0.00000005
Te       6.16565123       4.35977329       7.30275118       0.00169769       0.00120088      -0.00000013
Te       5.19094897       1.60289821       5.61451730       0.00084956      -0.00120018      -0.00147052
Te       3.24154257       4.35977304       8.99098527      -0.00084908       0.00120006       0.00147040
Te       3.24154266       4.35977311       5.61451725      -0.00084943       0.00120098      -0.00147117
Te       5.19094888       1.60289823       8.99098529       0.00084904      -0.00119967       0.00146982
