9
Lattice="6.068212980781939 -1.2557687144130147e-08 3.503484508132694 2.0227377411333958 5.721165778068346 3.50348434755031 1.3434590618100123e-07 -1.0167550873884407e-07 7.006968783571417" Properties=species:S:1:pos:R:3:forces:R:3 energy=-36.730262756347656 free_energy=-36.730262756347656 stress="-8.274803258245811e-05 1.9917944626968165e-08 6.722011391957494e-09 1.9917944626968165e-08 -8.271958358818665e-05 -6.1330207579146645e-09 6.722011391957494e-09 -6.1330207579146645e-09 -8.275424625026062e-05" pbc="T T T"
In       2.02273741       1.43029109       3.50348451      -0.00000011      -0.00000056      -0.00000023
In       6.06821305       4.29087434      10.51045341      -0.00000024       0.00000024       0.00000007
Zr       0.00000000       0.00000033       0.00000053      -0.00000021      -0.00000416      -0.00000648
Se       2.14590933       1.51738663       7.00696876       0.00067820       0.00047961       0.00000100
Se       5.94504147       4.20377876       7.00696889      -0.00067620      -0.00047812       0.00000068
Se       4.99525867       1.51738662       5.36189575      -0.00034079       0.00048233       0.00058984
Se       3.09569225       4.20377917       8.65204128       0.00033884      -0.00047924      -0.00058670
Se       3.09569232       4.20377905       5.36189594       0.00033926      -0.00047959       0.00058788
Se       4.99525892       1.51738663       8.65204145      -0.00033875       0.00047947      -0.00058609
