9
Lattice="5.689444745196176 -2.0198258171192733e-07 3.284802609218933 1.896481515136899 5.364060112581553 3.2848023947289033 1.4313853119345998e-07 -1.6148133084964294e-07 6.569604970514657" Properties=species:S:1:pos:R:3:forces:R:3 energy=-26.356964111328125 free_energy=-26.356964111328125 stress="0.00012676003098022193 5.0091543357666524e-08 1.9063099543359385e-08 5.0091543357666524e-08 0.00012668651470448822 2.05780299467051e-08 1.9063099543359385e-08 2.05780299467051e-08 0.00012669444549828768" pbc="T T T"
In       1.89648165       1.34101534       3.28480203       0.00000163      -0.00000070       0.00000165
In       5.68944463       4.02304487       9.85440744       0.00000125      -0.00000174       0.00000138
Zn      -0.00000012      -0.00000184       0.00000149       0.00000025       0.00000711      -0.00000565
Se       2.14921856       1.51972636       6.56960531       0.00152099       0.00107396       0.00000066
Se       5.43670957       3.84433418       6.56960501      -0.00151953      -0.00107519       0.00000123
Se       4.61483627       1.51972519       5.14607969      -0.00075965       0.00107086       0.00131707
Se       2.97109015       3.84433327       7.99313200       0.00075910      -0.00107720      -0.00131112
Se       2.97108918       3.84433528       5.14607768       0.00075615      -0.00107138       0.00131182
Se       4.61483573       1.51972634       7.99312926      -0.00076024       0.00107425      -0.00131702
