9
Lattice="6.509321585596464 -5.6219086063049746e-09 3.7581585780456592 2.169773860950178 6.137046976142537 3.758158570450477 4.414043171452712e-08 2.190980487014644e-08 7.516317079637863" Properties=species:S:1:pos:R:3:forces:R:3 energy=-34.878639221191406 free_energy=-34.878639221191406 stress="-2.5661051950010005e-06 8.930551409491727e-09 -8.231979542472345e-09 8.930551409491727e-09 -2.5664608074293938e-06 8.420310670942399e-09 -8.231979542472345e-09 8.420310670942399e-09 -2.5759370601008413e-06" pbc="T T T"
In       2.16977373       1.53426245       3.75815828       0.00000021      -0.00000002      -0.00000026
In       6.50932195       4.60278475      11.27447559      -0.00000005      -0.00000019      -0.00000021
Zr      -0.00000018      -0.00000015      -0.00000115      -0.00000019       0.00000070       0.00000895
Te       2.33259304       1.64939221       7.51631695      -0.00029142      -0.00020602      -0.00000022
Te       6.34650284       4.48765486       7.51631731       0.00029016       0.00020582      -0.00000021
Te       5.34302491       1.64939259       5.77824348       0.00014705      -0.00020748      -0.00025422
Te       3.33607008       4.48765476       9.25439159      -0.00014424       0.00020391       0.00024868
Te       3.33607022       4.48765431       5.77824319      -0.00014554       0.00020710      -0.00025200
Te       5.34302542       1.64939219       9.25439174       0.00014402      -0.00020377       0.00024947
