9
Lattice="5.568572898796057 -4.880827966366752e-08 3.2150169374639668 1.8561908348050977 5.250100688481216 3.215017085456208 -3.4532343577645323e-07 -6.292778821974267e-08 6.430034473045672" Properties=species:S:1:pos:R:3:forces:R:3 energy=-27.33377456665039 free_energy=-27.33377456665039 stress="5.203729233471677e-05 -3.306342932773987e-08 2.012582100974214e-08 -3.306342932773987e-08 5.2103718189755455e-05 1.653921799515956e-08 2.012582100974214e-08 1.653921799515956e-08 5.209651862969622e-05" pbc="T T T"
In       1.85619012       1.31252574       3.21501647      -0.00000036      -0.00000029       0.00000030
In       5.56857479       3.93757525       9.64505091       0.00000979      -0.00000115      -0.00000095
Zn       0.00000043      -0.00000079       0.00000227      -0.00000581       0.00000840      -0.00002513
S        1.93751404       1.37003120       6.43003670      -0.00124133      -0.00086957       0.00001035
S        5.48724724       3.88007121       6.43003683       0.00123680       0.00088061       0.00001287
S        4.59981474       1.37003028       4.89295470       0.00061542      -0.00087360      -0.00107206
S        2.82494768       3.88007055       7.96711192      -0.00062966       0.00088178       0.00107323
S        2.82494873       3.88006961       4.89295335      -0.00061293       0.00086367      -0.00107132
S        4.59981586       1.37002913       7.96711098       0.00062819      -0.00088987       0.00107266
