9
Lattice="5.788021277840485 -8.339049466419019e-08 3.34171549414423 1.9293404521075985 5.4569984798621185 3.34171531265629 1.0112736817716644e-07 -1.5076855646824653e-07 6.683430813130713" Properties=species:S:1:pos:R:3:forces:R:3 energy=-39.27840805053711 free_energy=-39.27840805053711 stress="1.7791198843042366e-05 -4.590861024666992e-09 2.9141759227968578e-08 -4.590861024666992e-09 1.7789947378332727e-05 -5.4690403317181335e-08 2.9141759227968578e-08 -5.4690403317181335e-08 1.7801015928853303e-05" pbc="T T T"
In       1.92934046       1.36424980       3.34171539      -0.00000012      -0.00000010      -0.00000120
In       5.78802132       4.09274843      10.02514601       0.00000009      -0.00000003       0.00000049
Zr       0.00000005       0.00000006      -0.00000004       0.00000205      -0.00000119      -0.00000139
S        2.04337554       1.44488455       6.68343093      -0.00159562      -0.00112924       0.00000010
S        5.67398665       4.01211360       6.68343084       0.00159487       0.00112835      -0.00000072
S        4.76633382       1.44488441       5.11133026       0.00079668      -0.00112620      -0.00137967
S        2.95102832       4.01211375       8.25553098      -0.00079758       0.00112888       0.00138244
S        2.95102785       4.01211351       5.11133076      -0.00079890       0.00112960      -0.00138292
S        4.76633339       1.44488481       8.25553126       0.00079866      -0.00113016       0.00138286
