9
Lattice="4.524424321086387 2.831498911304603e-08 2.6121775885830743 1.5081414707904948 4.26566796781742 2.612177582117767 1.4329101138054019e-08 2.2138578794114934e-09 5.224355152347413" Properties=species:S:1:pos:R:3:forces:R:3 energy=-37.729331970214844 free_energy=-37.729331970214844 stress="5.8581772464094684e-05 8.323394240505877e-08 3.722704988717851e-08 8.323394240505877e-08 5.848653381690383e-05 -2.3115871883305772e-08 3.722704988717851e-08 -2.3115871883305772e-08 5.858579606865533e-05" pbc="T T T"
In       1.50814207       1.06641672       2.61217660       0.00000666      -0.00000227      -0.00000671
In       4.52442478       3.19925147       7.83653221       0.00000325       0.00000329      -0.00000555
Zn       0.00000046       0.00000039      -0.00000024      -0.00001625      -0.00001074       0.00000066
O        1.57408202       1.11304388       5.22435549      -0.00124994      -0.00088364       0.00000322
O        4.45848317       3.15262434       5.22435556       0.00126287       0.00089660       0.00000453
O        3.73738349       1.11304379       3.97537267       0.00062682      -0.00088739      -0.00108624
O        2.29518222       3.15262383       6.47333819      -0.00062720       0.00088453       0.00108838
O        2.29518199       3.15262402       3.97537273      -0.00063001       0.00088701      -0.00108597
O        3.73738296       1.11304367       6.47333797       0.00062385      -0.00088781       0.00108701
