9
Lattice="4.396414806506232 5.0282686310604553e-08 2.538271300600503 1.4654716214658048 4.14497979944933 2.5382713492883076 -6.581231163650122e-08 1.3093801167109134e-08 5.07654271519128" Properties=species:S:1:pos:R:3:forces:R:3 energy=-59.07776641845703 free_energy=-59.07776641845703 stress="7.245365850394592e-05 3.045894425568463e-09 -1.6705170935438218e-07 3.045894425568463e-09 7.314405957004055e-05 2.605501663310861e-07 -1.6705170935438218e-07 2.605501663310861e-07 7.290112262126058e-05" pbc="T T T"
Ir       1.46547270       1.03624325       2.53826881       0.00003145      -0.00005149      -0.00007296
Ir       4.39641527       3.10873187       7.61481042       0.00001816      -0.00007607      -0.00009656
Cr      -0.00000026       0.00000020       0.00000032       0.00002410       0.00001735       0.00002473
N        1.53324465       1.08416899       5.07654369      -0.00047028      -0.00029731       0.00002499
N        4.32864100       3.06081277       5.07654436       0.00041199       0.00032616       0.00004555
N        3.62979243       1.08416871       3.86610086       0.00022978      -0.00031000      -0.00038457
N        2.23209440       3.06081190       6.28698531      -0.00021476       0.00032538       0.00040531
N        2.23209351       3.06081240       3.86610158      -0.00023311       0.00033587      -0.00035626
N        3.62979173       1.08416943       6.28698614       0.00020343      -0.00027055       0.00041091
