9
Lattice="4.2116410505869695 -4.3637664171303615e-08 2.431591945818822 1.4038803004708793 3.9707732277467347 2.431591960684659 -5.9179721984873405e-09 1.4022232779285744e-08 4.863183901887845" Properties=species:S:1:pos:R:3:forces:R:3 energy=-53.669410705566406 free_energy=-53.669410705566406 stress="9.674150351202115e-05 2.0475411588449788e-07 2.4081202809611568e-08 2.0475411588449788e-07 9.656209294917062e-05 -1.0067941502711619e-07 2.4081202809611568e-08 -1.0067941502711619e-07 9.69865286606364e-05" pbc="T T T"
Ir       1.40388227       0.99269837       2.43159157       0.00003530       0.00015014      -0.00001257
Ir       4.21163936       2.97808354       7.29477519      -0.00002860       0.00012497      -0.00001960
C       -0.00000010       0.00000505      -0.00000026      -0.00000372       0.00017697      -0.00001383
N        1.31830378       0.93217968       4.86318400      -0.00028241      -0.00025827       0.00000423
N        4.29721672       3.03858877       4.86318412       0.00024009       0.00010568       0.00000787
N        3.55248825       0.93217964       3.57327616       0.00012881      -0.00025767      -0.00024652
N        2.06303346       3.03858882       6.15309099      -0.00010943       0.00010592       0.00022149
N        2.06303346       3.03858876       3.57327715      -0.00011075       0.00010574      -0.00020754
N        3.55248820       0.93218015       6.15309232       0.00013071      -0.00025201       0.00026655
