9
Lattice="4.394814052822047 1.6356596683183303e-08 2.537347121675859 1.4649380080439758 4.143470328079001 2.5373471649503236 2.52206473605346e-08 7.08338726646145e-08 5.074694199668261" Properties=species:S:1:pos:R:3:forces:R:3 energy=-53.011810302734375 free_energy=-53.011810302734375 stress="-4.612626798916608e-05 -9.426768343701042e-08 -1.3252682151687623e-07 -9.426768343701042e-08 -4.6090124669717625e-05 -1.438645256257587e-07 -1.3252682151687623e-07 -1.438645256257587e-07 -4.615083889802918e-05" pbc="T T T"
Ir       1.46494088       1.03587103       2.53734748       0.00007591       0.00008934       0.00002134
Ir       4.39481625       3.10760618       7.61204608       0.00006203       0.00009004       0.00011571
Co       0.00000014       0.00000020       0.00000022       0.00000277       0.00000260       0.00000445
N        1.51544808       1.07158269       5.07469363       0.00316167       0.00221208      -0.00001345
N        4.34430373       3.07188644       5.07469127      -0.00316876      -0.00224796      -0.00006188
N        3.63708901       1.07158250       3.84976347      -0.00161022       0.00221440       0.00273007
N        2.22266003       3.07188516       6.29962470       0.00153190      -0.00227550      -0.00274813
N        2.22266132       3.07188526       3.84976279       0.00156230      -0.00227603       0.00271189
N        3.63708881       1.07158218       6.29962433      -0.00161770       0.00219142      -0.00276017
