9
Lattice="4.210213895681835 -1.2952002098662906e-07 2.430767831469156 1.4034045074862 3.969427407393214 2.4307678354442985 -7.116136016374761e-08 -4.545007774923106e-08 4.861535786193308" Properties=species:S:1:pos:R:3:forces:R:3 energy=-77.02964782714844 free_energy=-77.02964782714844 stress="-3.120972542092204e-05 -3.4317356494284468e-06 -5.640082690661075e-06 -3.4317356494284468e-06 -2.837103784258943e-05 3.84458917324082e-06 -5.640082690661075e-06 3.84458917324082e-06 -2.251972364319954e-05" pbc="T T T"
Ir       1.40340378       0.99235478       2.43076824       0.00015277       0.00035156      -0.00005985
Ir       4.21021315       2.97706881       7.29230334       0.00003765       0.00026200       0.00002596
Fe       0.00000412       0.00001011       0.00000209      -0.00144817      -0.00365965      -0.00083989
N        1.56955358       1.10983962       4.86153556      -0.00041580       0.00018501       0.00003581
N        4.04406961       2.85958695       4.86153481       0.00039959       0.00077343       0.00012755
N        3.42543509       1.10984108       3.79004235       0.00067711      -0.00003910      -0.00067425
N        2.18817977       2.85958323       5.93303177      -0.00016499       0.00126076       0.00072098
N        2.18817853       2.85958540       3.79003687       0.00011349       0.00076771      -0.00003147
N        3.42543573       1.10983894       5.93303077       0.00065231       0.00010014       0.00069141
