9
Lattice="4.41832711331762 -2.0061612624259842e-07 2.550922452527016 1.472775495263583 4.165638948969783 2.5509224872251 -1.433702602482636e-07 -5.888179832670853e-08 5.1018451533786235" Properties=species:S:1:pos:R:3:forces:R:3 energy=-50.472496032714844 free_energy=-50.472496032714844 stress="-0.00042352546006441116 3.0050588861740835e-07 2.816588562382094e-07 3.0050588861740835e-07 -0.00042284507071599364 3.0501246328640264e-07 2.816588562382094e-07 3.0501246328640264e-07 -0.0004228003090247512" pbc="T T T"
Ir       1.47277891       1.04141072       2.55092181       0.00005594       0.00001812      -0.00002060
Ir       4.41832620       3.12423013       7.65276362      -0.00000182       0.00002234      -0.00006715
Ge      -0.00000018       0.00000034      -0.00000007       0.00000031       0.00000006      -0.00000500
N        1.53746531       1.08715219       5.10184572      -0.00011909      -0.00008708       0.00001181
N        4.35363597       3.07848764       5.10184721       0.00010574       0.00009936       0.00003288
N        3.64959347       1.08715108       3.88240738       0.00004351      -0.00010109      -0.00008988
N        2.24150858       3.07848521       6.32128469      -0.00005829       0.00006467       0.00012422
N        2.24150776       3.07848516       3.88240611      -0.00007182       0.00006682      -0.00010234
N        3.64959362       1.08715226       6.32128388       0.00004524      -0.00008410       0.00011611
