9
Lattice="4.249813491262605 -8.468754490531617e-08 2.4536310068180933 1.4166043282592953 4.006762657373294 2.4536311609429964 -1.0426148413799335e-07 1.1503968041687368e-07 4.907262194222371" Properties=species:S:1:pos:R:3:forces:R:3 energy=-93.35733032226562 free_energy=-93.35733032226562 stress="-1.2959164450876415e-05 -3.1379845495393965e-06 -1.8451695495969034e-06 -3.1379845495393965e-06 -1.0366801689087879e-05 2.1060614017187618e-06 -1.8451695495969034e-06 2.1060614017187618e-06 -8.833879292069469e-06" pbc="T T T"
Ir       1.41660460       1.00169092       2.45363105       0.00000266      -0.00001322      -0.00000342
Ir       4.24981344       3.00507214       7.36089317       0.00000232      -0.00001659      -0.00000936
Mn       0.00000049       0.00000136      -0.00000022      -0.00020116      -0.00041869       0.00002902
N        1.47754694       1.04478351       4.90726244      -0.00222874      -0.00155950      -0.00001567
N        4.18887004       2.96197851       4.90726218       0.00251627       0.00177956      -0.00002115
N        3.51103910       1.04478433       3.73322567       0.00121927      -0.00169683      -0.00211048
N        2.15537878       2.96197754       6.08129841      -0.00129151       0.00184727       0.00223589
N        2.15537817       2.96197842       3.73322552      -0.00121880       0.00174856      -0.00216341
N        3.51103920       1.04478401       6.08129927       0.00120163      -0.00167060       0.00205612
