9
Lattice="4.3050607167913 9.690983348307742e-08 2.4855281213515497 1.435020313332461 4.058850505962134 2.485528150736567 1.937503062138101e-07 1.7299128066965843e-07 4.971055907117741" Properties=species:S:1:pos:R:3:forces:R:3 energy=-51.4189338684082 free_energy=-51.4189338684082 stress="-4.9610898713581264e-05 -6.177020850373083e-07 -1.1813255014203605e-06 -6.177020850373083e-07 -5.315925591276027e-05 -7.422603403028916e-07 -1.1813255014203605e-06 -7.422603403028916e-07 -5.158928252058104e-05" pbc="T T T"
Ir       1.43492456       1.01473479       2.48556014      -0.00352200       0.00075263       0.00125770
Ir       4.30499197       3.04412260       7.45665360      -0.00262047      -0.00050192       0.00253467
Ni       0.00000238      -0.00000001      -0.00000167       0.00009181      -0.00000365      -0.00003867
N        1.56251092       1.10484897       4.97103964      -0.00105751      -0.00129074      -0.00057882
N        4.17759918       2.95395875       4.97101785       0.00209725      -0.00028706      -0.00136732
N        3.52385179       1.10488871       3.83869892       0.00216514       0.00017780      -0.00108355
N        2.21628367       2.95400054       6.10341531      -0.00018531       0.00126493       0.00112730
N        2.21631200       2.95399080       3.83867318       0.00083077       0.00082213      -0.00203961
N        3.52384841       1.10485803       6.10339179       0.00219995      -0.00093490       0.00018841
