9
Lattice="4.385586464080139 3.0179439178944036e-09 2.5320194892363457 1.461862171339157 4.134770560196199 2.532019465333297 3.47595143066513e-08 -4.69646058410697e-09 5.064038918267474" Properties=species:S:1:pos:R:3:forces:R:3 energy=-48.27528381347656 free_energy=-48.27528381347656 stress="5.533886724151671e-05 -1.9944748075317875e-08 -7.154478964821465e-08 -1.9944748075317875e-08 5.5238826462300494e-05 -3.5631375627787065e-09 -7.154478964821465e-08 -3.5631375627787065e-09 5.512657298822887e-05" pbc="T T T"
Ir       1.46186156       1.03369288       2.53201916      -0.00001735       0.00000157      -0.00000862
Ir       4.38558607       3.10107793       7.59605828      -0.00000983       0.00000208      -0.00000467
Pd      -0.00000017      -0.00000011      -0.00000019       0.00000168      -0.00000076       0.00000509
N        1.61983375       1.14539495       5.06403899       0.00743520       0.00524804      -0.00000043
N        4.22761505       2.98937508       5.06403899      -0.00743508      -0.00526008       0.00000453
N        3.57567041       1.14539546       3.93483673      -0.00369954       0.00526059       0.00644189
N        2.27177945       2.98937529       6.19324153       0.00372595      -0.00525838      -0.00643611
N        2.27177886       2.98937531       3.93483655       0.00371456      -0.00525442       0.00643963
N        3.57566973       1.14539546       6.19324143      -0.00371665       0.00526151      -0.00644112
