9
Lattice="4.369225464459213 -3.6653780355497145e-09 2.522573439970247 1.4564084820638998 4.1193452064153755 2.5225734445314583 -2.9035843520670702e-08 -1.4945117654471514e-08 5.045146930232038" Properties=species:S:1:pos:R:3:forces:R:3 energy=-56.09294128417969 free_energy=-56.09294128417969 stress="5.2235187467886135e-05 3.6808820880196436e-08 6.396765428462459e-08 3.6808820880196436e-08 5.2249724831199273e-05 -1.340444555353315e-07 6.396765428462459e-08 -1.340444555353315e-07 5.22834925504867e-05" pbc="T T T"
Ir       1.45640960       1.02983753       2.52257327       0.00002032       0.00002399      -0.00000198
Ir       4.36922645       3.08951009       7.56772039       0.00001922       0.00002348       0.00000131
P        0.00000003      -0.00000006       0.00000017       0.00000234       0.00000604      -0.00000072
N        1.43436051       1.01424595       5.04514679       0.00030518       0.00021172       0.00000136
N        4.39127326       3.10509891       5.04514654      -0.00031316      -0.00022352      -0.00000426
N        3.65204447       1.01424553       3.76476621      -0.00016832       0.00020933       0.00026608
N        2.17358835       3.10509827       6.32552800       0.00014830      -0.00023293      -0.00026333
N        2.17358838       3.10509883       3.76476640       0.00014442      -0.00022280       0.00026703
N        3.65204476       1.01424564       6.32552740      -0.00015926       0.00020599      -0.00026679
