9
Lattice="4.359321260126364 1.817512419688901e-09 2.5168553291029734 1.4531070916214022 4.1100076445552745 2.5168553235620617 -6.232310369239161e-08 -5.0855293232500226e-08 5.033710766152733" Properties=species:S:1:pos:R:3:forces:R:3 energy=-53.67578125 free_energy=-53.67578125 stress="1.2713140677078627e-05 2.6210374315382978e-08 4.542967815268639e-07 2.6210374315382978e-08 1.2449210771592334e-05 3.4038032481475966e-07 4.542967815268639e-07 3.4038032481475966e-07 1.2457967386581004e-05" pbc="T T T"
Ir       1.45310705       1.02750196       2.51685703      -0.00000288       0.00000084       0.00003246
Ir       4.35932121       3.08250600       7.55056365       0.00000188       0.00000571      -0.00004392
Rh       0.00000013       0.00000003       0.00000002      -0.00000356       0.00000059      -0.00000094
N        1.60559923       1.13532952       5.03371028       0.00009954       0.00006056      -0.00001091
N        4.20682977       2.97467765       5.03371270      -0.00008911      -0.00006998       0.00003484
N        3.55652114       1.13532931       3.90734437      -0.00005981       0.00006014       0.00007844
N        2.25590670       2.97467814       6.16007625       0.00005424      -0.00006050      -0.00008717
N        2.25590611       2.97467769       3.90734469       0.00003898      -0.00007051       0.00008166
N        3.55652187       1.13533013       6.16007673      -0.00003946       0.00007331      -0.00008455
