9
Lattice="4.389086304688478 -1.8781770615853815e-08 2.5340403074008173 1.4630287425298825 4.13807039265944 2.5340403212433356 -3.563682498061525e-09 1.4433646028742983e-08 5.06808062097412" Properties=species:S:1:pos:R:3:forces:R:3 energy=-54.651737213134766 free_energy=-54.651737213134766 stress="-2.347163353988435e-05 -4.3389626114276325e-08 5.631296673413999e-08 -4.3389626114276325e-08 -2.4348611987079494e-05 1.5665582608903605e-08 5.631296673413999e-08 1.5665582608903605e-08 -2.3783912183716893e-05" pbc="T T T"
Ir       1.46302731       1.03452518       2.53404327      -0.00002672       0.00017997       0.00006863
Ir       4.38908723       3.10355372       7.60212133       0.00001760       0.00003580       0.00001831
Ru      -0.00000043      -0.00000025      -0.00000053      -0.00000147      -0.00000667      -0.00000421
N        1.54510456       1.09255351       5.06808090      -0.00004977      -0.00005257      -0.00000795
N        4.30701242       3.04551405       5.06808228       0.00008976      -0.00002056       0.00001664
N        3.61653376       1.09255392       3.87213905       0.00001630      -0.00004119      -0.00005484
N        2.23557900       3.04551558       6.26402123      -0.00005370      -0.00000185       0.00004482
N        2.23558011       3.04551299       3.87213754      -0.00004572      -0.00003684      -0.00009495
N        3.61653620       1.09255294       6.26401986       0.00005376      -0.00005609       0.00001341
