9
Lattice="4.3393811605088874 8.36496222736406e-09 2.505342894021074 1.4464604147853628 4.091207783378585 2.5053428592718032 3.200749658627344e-08 -1.9926281725680922e-08 5.010685732603522" Properties=species:S:1:pos:R:3:forces:R:3 energy=-51.76713943481445 free_energy=-51.76713943481445 stress="0.00021215474407654256 1.1868714011598058e-08 5.945282666175444e-08 1.1868714011598058e-08 0.00021212719730101526 -6.517719697285429e-08 5.945282666175444e-08 -6.517719697285429e-08 0.0002125113969668746" pbc="T T T"
Ir       1.44646071       1.02280174       2.50534271      -0.00000015      -0.00000625      -0.00000544
Ir       4.33937994       3.06840541       7.51602777      -0.00002585      -0.00001064      -0.00001358
S       -0.00000051      -0.00000019      -0.00000008      -0.00000342      -0.00000099      -0.00000153
N        1.39655422       0.98751239       5.01068573       0.00729489       0.00515294       0.00000196
N        4.38928769       3.10369531       5.01068616      -0.00728536      -0.00515223       0.00000629
N        3.64110442       0.98751291       3.71479400      -0.00364059       0.00515771       0.00631464
N        2.14473786       3.10369517       6.30657773       0.00365180      -0.00515008      -0.00630653
N        2.14473784       3.10369510       3.71479408       0.00364923      -0.00515270       0.00630891
N        3.64110431       0.98751333       6.30657794      -0.00364113       0.00516236      -0.00630426
