9
Lattice="4.374470642112295 -4.7905279058134635e-08 2.525601925703863 1.458156866734371 4.124290508426309 2.5256018716711393 5.425146303554912e-10 -6.579267887439632e-08 5.051203850468052" Properties=species:S:1:pos:R:3:forces:R:3 energy=-55.449134826660156 free_energy=-55.449134826660156 stress="3.933509287890047e-05 -6.703318433665117e-08 1.9857964161928976e-08 -6.703318433665117e-08 3.936425127903931e-05 3.6430744643212165e-08 1.9857964161928976e-08 3.6430744643212165e-08 3.8945192500250414e-05" pbc="T T T"
Ir       1.45815622       1.03107190       2.52560210      -0.00000878      -0.00000890       0.00000171
Ir       4.37447097       3.09321861       7.57680564       0.00000605       0.00001009      -0.00000001
Si      -0.00000010      -0.00000013       0.00000007      -0.00000181       0.00000571      -0.00000005
N        1.49555637       1.05751792       5.05120390      -0.00005591      -0.00003624      -0.00000096
N        4.33707141       3.06677199       5.05120372       0.00005603       0.00003529      -0.00000203
N        3.62669220       1.05751764       3.82079193       0.00002819      -0.00004059      -0.00005174
N        2.20593547       3.06677300       6.28161560      -0.00002497       0.00004095       0.00004721
N        2.20593479       3.06677306       3.82079229      -0.00002754       0.00004041      -0.00004101
N        3.62669255       1.05751743       6.28161530       0.00002855      -0.00004607       0.00004709
