9
Lattice="4.138147365576629 -6.976788198262913e-08 2.3891598231707056 1.37938212087147 3.9014818716963133 2.389160288300782 3.535186516964275e-08 5.946633056170086e-07 4.778319585110091" Properties=species:S:1:pos:R:3:forces:R:3 energy=-57.83915710449219 free_energy=-57.83915710449219 stress="2.6253028408973478e-05 -3.983281260389049e-07 7.395836973955738e-07 -3.983281260389049e-07 2.790873622871004e-05 -1.1978248721788987e-06 7.395836973955738e-07 -1.1978248721788987e-06 2.6530307877692394e-05" pbc="T T T"
Ir       1.37938258       0.97537408       2.38916373       0.00002597       0.00002201       0.00001138
Ir       4.13814630       2.92611752       7.16748515      -0.00001232       0.00000100       0.00000791
Se       0.00000011      -0.00000102      -0.00000168       0.00002334      -0.00001498       0.00001546
N        1.52158860       1.07592389       4.77831890       0.00103426       0.00071621      -0.00002001
N        3.99594277       2.82555631       4.77831912      -0.00106382      -0.00073528      -0.00001882
N        3.37735333       1.07592471       3.70689163      -0.00053048       0.00072718       0.00091457
N        2.14017579       2.82555801       5.84974550       0.00053287      -0.00075865      -0.00088739
N        2.14017846       2.82555411       3.70689368       0.00047731      -0.00067282       0.00083160
N        3.37735186       1.07592490       5.84974223      -0.00048900       0.00071192      -0.00085354
