9
Lattice="4.32923647916752 2.1410152887045368e-09 2.499485856243469 1.4430788165415502 4.081643349678089 2.499485876796321 -2.8082955127671512e-08 5.314347029456385e-09 4.998971761128047" Properties=species:S:1:pos:R:3:forces:R:3 energy=-57.51447296142578 free_energy=-57.51447296142578 stress="0.00014691305113956332 -8.743700874447313e-09 9.196923400622836e-08 -8.743700874447313e-09 0.00014705107605550438 4.046606960628196e-08 9.196923400622836e-08 4.046606960628196e-08 0.00014686219219584018" pbc="T T T"
Ir       1.44307853       1.02041033       2.49948529      -0.00000557      -0.00000665      -0.00001199
Ir       4.32923648       3.06123275       7.49845554       0.00000043       0.00000279      -0.00003446
Ti      -0.00000009       0.00000003      -0.00000003      -0.00000173      -0.00000064      -0.00000433
N        1.55139344       1.09700077       4.99897195      -0.00016719      -0.00011992       0.00000412
N        4.22092175       2.98464300       4.99897272       0.00016850       0.00012690       0.00001616
N        3.55353988       1.09700052       3.84303251       0.00008500      -0.00012225      -0.00013739
N        2.21877567       2.98464243       6.15491179      -0.00008106       0.00011665       0.00015366
N        2.21877522       2.98464263       3.84303234      -0.00008780       0.00012040      -0.00013769
N        3.55354023       1.09700092       6.15491173       0.00008920      -0.00011706       0.00015187
