9
Lattice="4.367396482181466 -2.275094997711634e-08 2.5215174678946712 1.4557988424991406 4.117620578160169 2.5215174045793107 1.2307306788291777e-07 9.480683294822e-09 5.04303472262048" Properties=species:S:1:pos:R:3:forces:R:3 energy=-57.7415885925293 free_energy=-57.7415885925293 stress="-3.1630355579181924e-07 -2.8711204080877906e-08 -8.680892449319799e-08 -2.8711204080877906e-08 -1.4583892493647e-07 -1.8897593179190153e-07 -8.680892449319799e-08 -1.8897593179190153e-07 -2.400542769009917e-07" pbc="T T T"
Ir       1.45580160       1.02940396       2.52151723       0.00006801      -0.00002502       0.00000405
Ir       4.36739732       3.08821403       7.56455469       0.00002541      -0.00003924       0.00005636
V        0.00000026       0.00000010      -0.00000007       0.00000188      -0.00000366      -0.00000029
N        1.54743296       1.09420159       5.04303454       0.00107163       0.00078714      -0.00000354
N        4.27576131       3.02342069       5.04303358      -0.00110632      -0.00074613      -0.00003253
N        3.59367925       1.09420101       3.86163380      -0.00056058       0.00078315       0.00092864
N        2.22951513       3.02341959       6.22443515       0.00052521      -0.00076663      -0.00095224
N        2.22951549       3.02341966       3.86163352       0.00054362      -0.00076693       0.00093025
N        3.59367859       1.09420164       6.22443581      -0.00056890       0.00077754      -0.00093025
