9
Lattice="5.761772815012349 8.59243261923836e-08 3.3265610024386034 1.9205911824048518 5.432251308877354 3.326560720015214 3.9843156259921377e-07 -6.41628832376201e-08 6.653121314773447" Properties=species:S:1:pos:R:3:forces:R:3 energy=-33.478355407714844 free_energy=-33.478355407714844 stress="-6.48856585030444e-05 1.0393082838788814e-08 4.0334140471998126e-09 1.0393082838788814e-08 -6.488753570010886e-05 -7.185070316495512e-09 4.0334140471998126e-09 -7.185070316495512e-09 -6.489086808869615e-05" pbc="T T T"
K        1.92059132       1.35806282       3.32656083      -0.00000088       0.00000177      -0.00000009
K        5.76177321       4.07418845       9.97968244      -0.00000072       0.00000047       0.00000147
Co       0.00000160      -0.00000092      -0.00000284      -0.00000530       0.00000407       0.00000888
Se       1.90921887       1.35002130       6.65312164       0.00188637       0.00133251      -0.00000121
Se       5.77314453       4.08223014       6.65312203      -0.00188351      -0.00133406      -0.00000188
Se       4.80716337       1.35002081       4.97999292      -0.00094172       0.00133303       0.00163114
Se       2.87520052       4.08223105       8.32625120       0.00094421      -0.00133590      -0.00163548
Se       2.87520033       4.08223068       4.97999235       0.00094356      -0.00133445       0.00163184
Se       4.80716390       1.35002113       8.32625149      -0.00094185       0.00133249      -0.00163475
