9
Lattice="5.252825974452786 -6.79680282730816e-08 3.0327205879538344 1.7509419465142997 4.952411951451982 3.0327205548527636 4.461520180486928e-08 -8.99265466232704e-09 6.065441098631884" Properties=species:S:1:pos:R:3:forces:R:3 energy=-39.89598083496094 free_energy=-39.89598083496094 stress="5.92896049056435e-06 -3.067766130016025e-08 1.0708127717862226e-08 -3.067766130016025e-08 5.99853228777647e-06 -8.928392247753436e-08 1.0708127717862226e-08 -8.928392247753436e-08 5.988161774439504e-06" pbc="T T T"
K        1.75094198       1.23810263       3.03272050       0.00000070      -0.00000064       0.00000059
K        5.25282630       3.71430925       9.09816156       0.00000012       0.00000059       0.00000180
Co       0.00000117      -0.00000044      -0.00000091      -0.00001315       0.00000937       0.00000907
O        1.44550592       1.02212710       6.06544145      -0.00080907      -0.00056693       0.00000371
O        5.55826141       3.93028426       6.06544095       0.00081569       0.00058064       0.00000367
O        4.53007251       1.02212747       4.28456636       0.00041103      -0.00058427      -0.00071463
O        2.47369457       3.93028547       7.84631733      -0.00039989       0.00056100       0.00068834
O        2.47369558       3.93028432       4.28456565      -0.00041050       0.00057697      -0.00070292
O        4.53007267       1.02212737       7.84631609       0.00040546      -0.00057679       0.00071061
