9
Lattice="6.511135325329158 3.84859220530845e-06 3.7592106684293705 2.1703819657507664 6.138754570946564 3.759210849449888 -2.414606951844303e-07 5.096667692388315e-08 7.518421755080422" Properties=species:S:1:pos:R:3:forces:R:3 energy=-31.21592140197754 free_energy=-31.21592140197754 stress="-0.00015948896179907024 -1.065866612748323e-07 1.9115848459705376e-08 -1.065866612748323e-07 -0.0001593760389368981 8.33708213576756e-08 1.9115848459705376e-08 8.33708213576756e-08 -0.0001604518765816465" pbc="T T T"
K        2.17038261       1.53469245       3.75921001       0.00000491       0.00000306      -0.00000025
K        6.51113671       4.60406665      11.27763318      -0.00000583      -0.00000363       0.00000114
Co      -0.00000629      -0.00000234       0.00000214       0.00006093       0.00002614      -0.00002485
Te       1.96016762       1.38604276       7.51842010       0.00846861       0.00598878      -0.00000288
Te       6.72135186       4.75271639       7.51842432      -0.00851527      -0.00602123       0.00000498
Te       5.53106451       1.38603572       5.45677234      -0.00424933       0.00599765       0.00739805
Te       3.15045511       4.75272253       9.58006955       0.00423758      -0.00598682      -0.00738090
Te       3.15045082       4.75272215       5.45677098       0.00424077      -0.00600152       0.00739691
Te       5.53106524       1.38603729       9.58007008      -0.00424241       0.00599760      -0.00739212
