9
Lattice="4.568835207739886 1.772385935786646e-08 2.6378188030103646 1.5229452433957602 4.307539532306619 2.6378185303182184 1.4287162772431014e-07 -2.3295279570846162e-07 5.275637358559762" Properties=species:S:1:pos:R:3:forces:R:3 energy=-42.026344299316406 free_energy=-42.026344299316406 stress="-4.150036693317816e-05 5.06065020999813e-07 1.0317984333596542e-07 5.06065020999813e-07 -4.135529525228776e-05 -1.4575903151126113e-07 1.0317984333596542e-07 -1.4575903151126113e-07 -4.148239895584993e-05" pbc="T T T"
K        1.52294546       1.07688454       2.63781877      -0.00000109       0.00000176      -0.00000176
K        4.56883548       3.23065467       7.91345678       0.00000076       0.00000036      -0.00000585
C       -0.00000023      -0.00000192      -0.00000101       0.00000379       0.00003005       0.00001461
O        1.24769070       0.88225060       5.27563708       0.00167614       0.00117415       0.00000206
O        4.84408975       3.42528911       5.27563708      -0.00168401      -0.00118464       0.00000521
O        3.94499074       0.88225056       3.71834994      -0.00085381       0.00119108       0.00146538
O        2.14678974       3.42528938       6.83292468       0.00086185      -0.00121099      -0.00147897
O        2.14678947       3.42528926       3.71835011       0.00085270      -0.00119799       0.00146484
O        3.94499099       0.88225058       6.83292452      -0.00085735       0.00119579      -0.00146627
