9
Lattice="5.155036151054239 -7.465284348763517e-07 2.976261052051813 1.7183450892957886 4.860210823366992 2.9762603428726453 7.093607526334188e-07 -3.669695854140085e-07 5.952520875454838" Properties=species:S:1:pos:R:3:forces:R:3 energy=-45.68122100830078 free_energy=-45.68122100830078 stress="-3.108398959739134e-05 -1.7680696373645333e-07 -1.554897153255297e-07 -1.7680696373645333e-07 -3.100761750829406e-05 1.1834438140567727e-07 -1.554897153255297e-07 1.1834438140567727e-07 -3.089666279265657e-05" pbc="T T T"
K        1.71834575       1.21505263       2.97626018      -0.00000054      -0.00000132       0.00000008
K        5.15503634       3.64515736       8.92878254      -0.00000088       0.00000023      -0.00000009
Cr      -0.00000120      -0.00000048       0.00000082       0.00002057       0.00001561      -0.00001407
O        1.45970125       1.03216432       5.95252176      -0.00058287      -0.00041348      -0.00000129
O        5.41368307       3.82804595       5.95252267       0.00054967       0.00038975      -0.00000201
O        4.42518530       1.03216391       4.24040034       0.00029227      -0.00040686      -0.00050282
O        2.44819717       3.82804527       7.66464238      -0.00029340       0.00042224       0.00051224
O        2.44819544       3.82804612       4.24039800      -0.00027996       0.00040472      -0.00049424
O        4.42518646       1.03216351       7.66464308       0.00029537      -0.00041115       0.00050265
