9
Lattice="5.830182989234038 1.5380943888360677e-07 3.3660574121078195 1.9433946121434746 5.496748265052954 3.366057174148582 1.789892011203591e-07 -1.648749466483753e-07 6.732114514197257" Properties=species:S:1:pos:R:3:forces:R:3 energy=-35.75096130371094 free_energy=-35.75096130371094 stress="-2.854151546216599e-07 9.794196564882895e-09 3.434580619909866e-08 9.794196564882895e-09 -3.144369031815586e-07 -1.4720359375886005e-09 3.434580619909866e-08 -1.4720359375886005e-09 -2.8751094305334846e-07" pbc="T T T"
K        1.94339435       1.37418706       3.36605735       0.00000180       0.00000056       0.00000088
K        5.83018327       4.12256127      10.09817196      -0.00000195       0.00000055      -0.00000107
Cr       0.00000083      -0.00000103      -0.00000186      -0.00000097       0.00000051       0.00000156
Se       2.03570842       1.43946515       6.73211596       0.00128572       0.00090721      -0.00000118
Se       5.73786793       4.05728421       6.73211471      -0.00128613      -0.00090923       0.00000019
Se       4.81232898       1.43946319       5.12903428      -0.00064380       0.00090994       0.00111516
Se       2.96124871       4.05728437       8.33519587       0.00064342      -0.00091096      -0.00111613
Se       2.96124955       4.05728474       5.12903286       0.00064418      -0.00090894       0.00111456
Se       4.81232894       1.43946403       8.33519521      -0.00064231       0.00091039      -0.00111398
