9
Lattice="6.348852942856626 -1.918281041458029e-06 3.6655099818345076 2.1162823952835175 5.985756323591506 3.6655101731036153 2.1201954724631415e-07 3.8417647255790805e-07 7.331019596440363" Properties=species:S:1:pos:R:3:forces:R:3 energy=-33.81922149658203 free_energy=-33.81922149658203 stress="-0.00031783783924765885 -1.391561283980991e-07 -3.473008192145244e-08 -1.391561283980991e-07 -0.0003178123151883483 3.003847837135254e-08 -3.473008192145244e-08 3.003847837135254e-08 -0.0003179830964654684" pbc="T T T"
K        2.11628243       1.49643790       3.66551053      -0.00000686      -0.00000323      -0.00000055
K        6.34885358       4.48931688      10.99652890       0.00000835       0.00000265       0.00000224
Cr      -0.00000263       0.00000079       0.00000134       0.00000849      -0.00000338      -0.00000455
Te       2.26828731       1.60392015       7.33101920      -0.00202506      -0.00142898      -0.00000047
Te       6.19684695       4.38183408       7.33101927       0.00202566       0.00143407      -0.00000010
Te       5.21470375       1.60392413       5.62990115       0.00101662      -0.00143862      -0.00175480
Te       3.25043518       4.38182927       9.03214052      -0.00102531       0.00144182       0.00175329
Te       3.25043191       4.38182978       5.62989745      -0.00101909       0.00143645      -0.00174762
Te       5.21470359       1.60392599       9.03214052       0.00101721      -0.00144073       0.00175258
