9
Lattice="5.516717222885596 6.761513926174661e-07 3.185077765779491 1.8389066292741552 5.201210404715984 3.1850773313283054 2.987379152493074e-07 -3.208522873521108e-07 6.370155014129949" Properties=species:S:1:pos:R:3:forces:R:3 energy=-38.039981842041016 free_energy=-38.039981842041016 stress="-0.00033091430668719113 3.423796357537867e-08 3.3704470325801594e-08 3.423796357537867e-08 -0.00033098499989137053 1.6137606806410076e-08 3.3704470325801594e-08 1.6137606806410076e-08 -0.0003309723106212914" pbc="T T T"
K        1.83890581       1.30030261       3.18507810      -0.00000079      -0.00000042       0.00000121
K        5.51671824       3.90090811       9.55523303      -0.00000182      -0.00000072       0.00000068
Cr       0.00000029       0.00000054      -0.00000055       0.00000410       0.00000346      -0.00001195
S        1.81837243       1.28578296       6.37015655       0.00761455       0.00538361      -0.00000220
S        5.53725259       3.91542888       6.37015604      -0.00761819      -0.00538778      -0.00000090
S        4.60753199       1.28578199       4.75983224      -0.00381228       0.00539351       0.00660348
S        2.74809254       3.91542694       7.98047659       0.00380799      -0.00538534      -0.00659627
S        2.74809147       3.91542840       4.75983246       0.00381374      -0.00539139       0.00660104
S        4.60753174       1.28578280       7.98047649      -0.00380769       0.00538534      -0.00659525
