9
Lattice="5.8613967010946375 -1.9418005573676109e-07 3.384079124043388 1.9537987409768025 5.526178233637809 3.384079083016433 2.0008196717109453e-07 9.12319835318705e-08 6.768157901534378" Properties=species:S:1:pos:R:3:forces:R:3 energy=-35.868370056152344 free_energy=-35.868370056152344 stress="-2.9899485525675118e-05 -4.2983554493503107e-08 2.3563861972775157e-08 -4.2983554493503107e-08 -2.9831820938852616e-05 -1.1729720306163927e-08 2.3563861972775157e-08 -1.1729720306163927e-08 -2.9802278731949627e-05" pbc="T T T"
K        1.95379907       1.38154450       3.38407900      -0.00000030       0.00000032       0.00000068
K        5.86139680       4.14463377      10.15223643       0.00000056      -0.00000092       0.00000157
Fe      -0.00000001      -0.00000040       0.00000063      -0.00001207       0.00000416      -0.00000785
Se       1.87101414       1.32300711       6.76815795       0.00215319       0.00152254       0.00000006
Se       5.94418071       4.20317017       6.76815851      -0.00214633      -0.00151721      -0.00000130
Se       4.92588951       1.32300705       5.00442607      -0.00107300       0.00151727       0.00185752
Se       2.88930680       4.20317163       8.53189042       0.00107262      -0.00151914      -0.00185961
Se       2.88930619       4.20317139       5.00442588       0.00107515      -0.00152010       0.00186113
Se       4.92588973       1.32300706       8.53189003      -0.00106978       0.00151253      -0.00185239
