9
Lattice="6.898725301638875 -1.8015111040456637e-07 3.982980628178507 2.2995750802922528 6.504179768518654 3.9829803690744416 8.858027806987772e-08 -2.547004581931743e-07 7.965961102931616" Properties=species:S:1:pos:R:3:forces:R:3 energy=-33.36038589477539 free_energy=-33.36038589477539 stress="-4.9813344958238304e-05 -1.6601519048364821e-09 6.321288026356342e-08 -1.6601519048364821e-09 -4.972653914592229e-05 -8.101972781560107e-08 6.321288026356342e-08 -8.101972781560107e-08 -4.9736223445506766e-05" pbc="T T T"
K        2.29957559       1.62604536       3.98298044      -0.00000031      -0.00000036       0.00000042
K        6.89872585       4.87813412      11.94894185      -0.00000009       0.00000017      -0.00000043
Fe       0.00000050       0.00000249      -0.00000183      -0.00001610      -0.00004852       0.00005156
Te       1.93382883       1.36742040       7.96596115       0.00465180       0.00328626      -0.00000072
Te       7.26447136       5.13675735       7.96596099      -0.00461877      -0.00326312       0.00000004
Te       5.93180949       1.36742197       5.65772475      -0.00231748       0.00327468       0.00401043
Te       3.26648944       5.13675756      10.27419816       0.00232356      -0.00328226      -0.00402102
Te       3.26649059       5.13675638       5.65772516       0.00230262      -0.00325353       0.00398498
Te       5.93181016       1.36742152      10.27419755      -0.00232523       0.00328665      -0.00402525
