9
Lattice="5.364636546669361 1.4363973106043105e-07 3.0972743315255786 1.7882121787846466 5.057829644762593 3.097274572044266 -1.1902642903999149e-07 2.1040953396219027e-07 6.194548869211002" Properties=species:S:1:pos:R:3:forces:R:3 energy=-41.39497375488281 free_energy=-41.39497375488281 stress="0.0001388220553053543 -1.1454871895466567e-07 -1.5859528446071636e-07 -1.1454871895466567e-07 0.00013901187048759311 1.1850179504335756e-07 -1.5859528446071636e-07 1.1850179504335756e-07 0.00013900522026233375" pbc="T T T"
K        1.78821266       1.26445756       3.09727405      -0.00000053      -0.00000106      -0.00000061
K        5.36463607       3.79337214       9.29182425       0.00000018       0.00000217       0.00000058
Fe       0.00000063      -0.00000040       0.00000010      -0.00000875       0.00001361       0.00000149
O        1.45469791       1.02862653       6.19454825       0.00272179       0.00192696       0.00000103
O        5.69815136       4.02920285       6.19454871      -0.00272587      -0.00192544       0.00000048
O        4.63728667       1.02862769       4.35708117      -0.00134969       0.00190926       0.00233567
O        2.51556057       4.02920325       8.03201796       0.00135778      -0.00191981      -0.00235152
O        2.51556071       4.02920273       4.35707895       0.00136366      -0.00192764       0.00236279
O        4.63728753       1.02862722       8.03201789      -0.00135863       0.00192183      -0.00234991
