9
Lattice="5.598855532979638 -1.5886543072568612e-07 3.2325001860297693 1.8662854715727208 5.278649071407415 3.2324994175314283 1.835926260780601e-07 -8.113948615330436e-07 6.465000054067612" Properties=species:S:1:pos:R:3:forces:R:3 energy=-37.76415252685547 free_energy=-37.76415252685547 stress="-1.3339288670977112e-05 2.9502365350708715e-07 2.8008308561311424e-08 2.9502365350708715e-07 -1.3545156434702221e-05 -1.9728995326318e-08 2.8008308561311424e-08 -1.9728995326318e-08 -1.3735590982832946e-05" pbc="T T T"
K        1.86628543       1.31966203       3.23249966      -0.00000056       0.00000098       0.00000279
K        5.59885591       3.95898695       9.69749870       0.00000160      -0.00000461       0.00000155
Fe      -0.00000114      -0.00000035       0.00000075       0.00000891       0.00000664       0.00000989
S        1.79760599       1.27109620       6.46500055       0.00015080       0.00011176      -0.00000002
S        5.66753474       4.00755054       6.46499919      -0.00015867      -0.00011313      -0.00000039
S        4.70005378       1.27109855       4.78927078      -0.00008631       0.00012225       0.00014859
S        2.76508663       4.00755168       8.14072966       0.00009060      -0.00013000      -0.00015807
S        2.76508874       4.00755118       4.78927014       0.00008360      -0.00012153       0.00014889
S        4.70005434       1.27109531       8.14072998      -0.00009036       0.00012761      -0.00015312
