9
Lattice="5.407722441874177 4.685367196685799e-09 3.1221495615958785 1.802574011543648 5.098450679676956 3.122149804369014 -9.018180584791294e-08 2.3356686859660486e-07 6.244299279391306" Properties=species:S:1:pos:R:3:forces:R:3 energy=-40.73748779296875 free_energy=-40.73748779296875 stress="1.8276916762260953e-06 -6.869012736387958e-08 7.204194929499863e-08 -6.869012736387958e-08 1.7381914858560776e-06 2.0288183577577e-08 7.204194929499863e-08 2.0288183577577e-08 1.9421511296968674e-06" pbc="T T T"
K        1.80257393       1.27461260       3.12214947      -0.00000048       0.00000010       0.00000077
K        5.40772211       3.82383830       9.36644938      -0.00000028      -0.00000072      -0.00000193
Ge      -0.00000024      -0.00000018      -0.00000096       0.00000385       0.00000302       0.00000743
O        1.52191246       1.07615538       6.24429960       0.00017333       0.00012547      -0.00000109
O        5.68838441       4.02229462       6.24430018      -0.00017726      -0.00012940       0.00000234
O        4.64676586       1.07615587       4.44016427      -0.00008607       0.00012499       0.00014496
O        2.56353152       4.02229478       8.04843393       0.00008833      -0.00012553      -0.00014949
O        2.56353034       4.02229493       4.44016456       0.00008339      -0.00012410       0.00014436
O        4.64676574       1.07615726       8.04843437      -0.00008470       0.00012636      -0.00014687
