9
Lattice="6.48198097947056 3.184184232412707e-07 3.7423731854198103 2.1606606778410384 6.111270139488251 3.742373096837456 1.567243448163781e-07 2.3300066569393965e-09 7.484746099384961" Properties=species:S:1:pos:R:3:forces:R:3 energy=-28.580358505249023 free_energy=-28.580358505249023 stress="-5.694854189641774e-05 1.716449027355793e-08 5.709830830369356e-09 1.716449027355793e-08 -5.690753096132539e-05 2.7322282214470306e-09 5.709830830369356e-09 2.7322282214470306e-09 -5.6940851209219545e-05" pbc="T T T"
K        2.16066054       1.52781755       3.74237348       0.00000035      -0.00000007       0.00000041
K        6.48198119       4.58345290      11.22711884      -0.00000040       0.00000056       0.00000135
Ge      -0.00000119       0.00000105       0.00000519       0.00000101       0.00000092       0.00000061
Te       2.40403451       1.69991040       7.48474711      -0.00185628      -0.00131182       0.00000206
Te       6.23860696       4.41136036       7.48474665       0.00185677       0.00131303       0.00000084
Te       5.27996573       1.69990811       5.82432601       0.00092940      -0.00131512      -0.00160922
Te       3.36267945       4.41135826       9.14516173      -0.00092716       0.00130960       0.00160579
Te       3.36267718       4.41136206       5.82432758      -0.00092971       0.00131397      -0.00160861
Te       5.27996298       1.69991121       9.14516286       0.00092599      -0.00131108       0.00160702
