9
Lattice="5.935850004213056 -1.223208808857383e-07 3.427064458232744 1.9786166184403908 5.596372594769717 3.4270643444464266 -5.6270939486997224e-08 -1.791487954904272e-07 6.85412901392949" Properties=species:S:1:pos:R:3:forces:R:3 energy=-30.528310775756836 free_energy=-30.528310775756836 stress="-2.716240669542458e-05 2.5021241967237984e-08 -5.4936442062114565e-09 2.5021241967237984e-08 -2.712484638323076e-05 3.590979602563493e-08 -5.4936442062114565e-09 3.590979602563493e-08 -2.7115749617223628e-05" pbc="T T T"
K        1.97861658       1.39909309       3.42706430      -0.00000065       0.00000034       0.00000001
K        5.93584999       4.19727922      10.28119346       0.00000027      -0.00000113      -0.00000123
Ge       0.00000001      -0.00000054       0.00000050      -0.00000039       0.00000400       0.00000088
Se       2.02766127       1.43377238       6.85412875       0.00151139       0.00107062       0.00000036
Se       5.88680541       4.16260002       6.85412828      -0.00151429      -0.00106828      -0.00000123
Se       4.92201907       1.43377290       5.18307057      -0.00075516       0.00106850       0.00130793
Se       2.99244685       4.16260020       8.52518743       0.00075965      -0.00107120      -0.00131091
Se       2.99244760       4.16259978       5.18307023       0.00075656      -0.00107369       0.00131172
Se       4.92201950       1.43377198       8.52518758      -0.00075735       0.00107072      -0.00130746
