9
Lattice="5.8558534461441285 -5.866072240559758e-07 3.380878523913397 1.9519505952694125 5.520951790595859 3.380878524583186 -1.4255605936096717e-07 -9.99819945369631e-08 6.761757294740982" Properties=species:S:1:pos:R:3:forces:R:3 energy=-32.1215934753418 free_energy=-32.1215934753418 stress="-1.886882819235325e-05 -1.8720923833370762e-07 2.5474642839640183e-08 -1.8720923833370762e-07 -1.8718346836976707e-05 -2.041823776721685e-08 2.5474642839640183e-08 -2.041823776721685e-08 -1.85715762199834e-05" pbc="T T T"
K        1.95195087       1.38023785       3.38087874      -0.00000122       0.00000056      -0.00000039
K        5.85585313       4.14071332      10.14263596      -0.00000078      -0.00000040      -0.00000158
Ge       0.00000002       0.00000042       0.00000091       0.00000122      -0.00000520      -0.00001768
S        1.91228606       1.35218974       6.76175785       0.00034362       0.00024295      -0.00000206
S        5.89551846       4.16876116       6.76175689      -0.00034171      -0.00024199      -0.00000012
S        4.89970894       1.35219048       5.03696716      -0.00016689       0.00023794       0.00029022
S        2.90809427       4.16875983       8.48654586       0.00015837      -0.00022471      -0.00027621
S        2.90809453       4.16876015       5.03696823       0.00016478      -0.00023323       0.00028402
S        4.89970920       1.35219158       8.48654552      -0.00015774       0.00022405      -0.00027627
