9
Lattice="5.8838671064978545 1.0429238306942695e-07 3.3970515610720433 1.9612889106657854 5.547362931675349 3.3970519475985417 1.584907064757932e-07 5.854660477990385e-07 6.79410284763019" Properties=species:S:1:pos:R:3:forces:R:3 energy=-40.42745590209961 free_energy=-40.42745590209961 stress="0.0001071482984116301 -7.21595156960575e-08 -1.6941623215416257e-08 -7.21595156960575e-08 0.00010724626918090507 3.969935136183267e-08 -1.6941623215416257e-08 3.969935136183267e-08 0.00010722195293055847" pbc="T T T"
K        1.96128915       1.38684097       3.39705166      -0.00000066       0.00000025      -0.00000069
K        5.88386706       4.16052292      10.19115483       0.00000060      -0.00000061       0.00000071
Hf      -0.00000125       0.00000097      -0.00000037       0.00000556      -0.00000662       0.00000150
S        2.04639529       1.44701975       6.79410271      -0.00107542      -0.00075775       0.00000033
S        5.79876004       4.10034267       6.79410373       0.00107464       0.00076117      -0.00000040
S        4.86066966       1.44702061       5.16928259       0.00053804      -0.00076133      -0.00093326
S        2.98448714       4.10034293       8.41892308      -0.00054003       0.00076324       0.00093490
S        2.98448742       4.10034271       5.16928282      -0.00053933       0.00076111      -0.00093254
S        4.86067020       1.44702092       8.41892427       0.00053650      -0.00075939       0.00092930
