9
Lattice="6.135115779919103 -3.8018307050919415e-07 3.542110787144196 2.045038189016261 5.784242771420353 3.5421108665589234 -1.391190753611243e-07 -1.1093368760909944e-09 7.084221815249745" Properties=species:S:1:pos:R:3:forces:R:3 energy=-38.34662628173828 free_energy=-38.34662628173828 stress="-6.2347280618269e-05 -5.0878348645255755e-08 7.906900023613161e-09 -5.0878348645255755e-08 -6.231682345969602e-05 1.1196181759487445e-08 7.906900023613161e-09 1.1196181759487445e-08 -6.225998367881402e-05" pbc="T T T"
K        2.04503840       1.44606055       3.54211086       0.00000110      -0.00000009       0.00000045
K        6.13511527       4.33818178      10.62633255       0.00000026      -0.00000041      -0.00000030
Hf       0.00000079       0.00000051       0.00000211      -0.00000377      -0.00000259      -0.00001125
Se       2.19776824       1.55405607       7.08422145      -0.00189823      -0.00134134       0.00000311
Se       5.98238598       4.23018629       7.08422097       0.00189713       0.00134073       0.00000211
Se       5.03623046       1.55405705       5.44543437       0.00095312      -0.00134489      -0.00164616
Se       3.14392267       4.23018543       8.72300851      -0.00095014       0.00134410       0.00164945
Se       3.14392249       4.23018520       5.44543481      -0.00094983       0.00134634      -0.00164519
Se       5.03623095       1.55405671       8.72300829       0.00095041      -0.00134194       0.00164764
