9
Lattice="6.567461901015443 1.8558352167469725e-07 3.7917262897475013 2.1891540400675664 6.191863130554001 3.7917264662563355 -1.7569085048242806e-07 9.194617912753273e-08 7.583452883800445" Properties=species:S:1:pos:R:3:forces:R:3 energy=-36.65830612182617 free_energy=-36.65830612182617 stress="-0.00014957424718886614 -3.0156908081835354e-08 1.90034032954145e-09 -3.0156908081835354e-08 -0.00014957156963646412 3.070382836867225e-09 1.90034032954145e-09 3.070382836867225e-09 -0.00014956250379327685" pbc="T T T"
K        2.18915407       1.54796571       3.79172678      -0.00000055       0.00000022       0.00000000
K        6.56746172       4.64389780      11.37517926       0.00000048      -0.00000053      -0.00000034
Hf      -0.00000002       0.00000045      -0.00000109      -0.00000069      -0.00000254       0.00000495
Te       2.35760032       1.66707596       7.58345334       0.00428528       0.00303168      -0.00000057
Te       6.39901565       4.52478765       7.58345249      -0.00428690      -0.00303143       0.00000003
Te       5.38866055       1.66707626       5.83346930      -0.00214007       0.00302837       0.00370892
Te       3.36795475       4.52478724       9.33343658       0.00214263      -0.00302942      -0.00371199
Te       3.36795569       4.52478757       5.83346874       0.00214036      -0.00302799       0.00370982
Te       5.38866016       1.66707519       9.33343717      -0.00214056       0.00303165      -0.00371078
