9
Lattice="5.876634109948488 -6.141665684484608e-07 3.3928761936054435 1.958877291563269 5.540543645891017 3.392876481202786 -1.546945775735782e-07 2.428478366575646e-07 6.785752655149717" Properties=species:S:1:pos:R:3:forces:R:3 energy=-35.441524505615234 free_energy=-35.441524505615234 stress="-0.00011410981824155897 -2.082768446598493e-07 -5.156600479949702e-08 -2.082768446598493e-07 -0.00011393080785637721 6.661075246938708e-08 -5.156600479949702e-08 6.661075246938708e-08 -0.000113797934318427" pbc="T T T"
K        1.95887766       1.38513580       3.39287625       0.00000095      -0.00000047       0.00000012
K        5.87663330       4.15540723      10.17862908      -0.00000036      -0.00000044       0.00000024
Ir      -0.00000227      -0.00000349       0.00000007       0.00001989       0.00002783       0.00000105
Se       2.04272382       1.44442414       6.78575266      -0.00066025      -0.00046675      -0.00000009
Se       5.79279334       4.09612290       6.78575280       0.00062718       0.00044478      -0.00000052
Se       4.85527109       1.44442443       5.16192884       0.00033461      -0.00047085      -0.00057879
Se       2.98023792       4.09611887       8.40957760      -0.00032757       0.00046802       0.00057191
Se       2.98023825       4.09612009       5.16192679      -0.00032492       0.00046343      -0.00056662
Se       4.85527191       1.44442325       8.40957724       0.00033049      -0.00046552       0.00057273
