9
Lattice="5.418460239628994 -7.670246525272084e-08 3.128349091199338 1.806153237894155 5.108573780917257 3.1283492696001085 -2.99488495079751e-07 6.725124180738233e-09 6.256698701127911" Properties=species:S:1:pos:R:3:forces:R:3 energy=-46.56261444091797 free_energy=-46.56261444091797 stress="3.721645407495089e-05 -2.097693396763134e-08 5.454074880617554e-08 -2.097693396763134e-08 3.715956336236559e-05 -9.012746104986036e-09 5.454074880617554e-08 -9.012746104986036e-09 3.7233028706396e-05" pbc="T T T"
K        1.80615336       1.27714343       3.12834907       0.00000043       0.00000059       0.00000212
K        5.41846016       3.83142995       9.38504850      -0.00000103       0.00000073      -0.00000086
Ir      -0.00000030      -0.00000001      -0.00000042      -0.00000558       0.00000357       0.00000401
O        1.53262542       1.08373046       6.25669848       0.00003970       0.00002962       0.00000134
O        5.69198717       4.02484348       6.25669836      -0.00003648      -0.00002521      -0.00000043
O        4.65214662       1.08373049       4.45564155      -0.00001627       0.00002307       0.00003058
O        2.57246629       4.02484366       8.05775515       0.00001979      -0.00002992      -0.00003999
O        2.57246665       4.02484331       4.45564198       0.00001693      -0.00002497       0.00003386
O        4.65214667       1.08373080       8.05775406      -0.00001740       0.00002259      -0.00003111
