9
Lattice="5.638591891449072 -3.219065585861941e-07 3.2554429266462517 1.8795303806169315 5.316115337818882 3.255442833755907 -1.6690255423505891e-07 -2.3178510496273165e-07 6.510886142376469" Properties=species:S:1:pos:R:3:forces:R:3 energy=-37.223758697509766 free_energy=-37.223758697509766 stress="-7.031307177385315e-05 -5.210542397549034e-08 -1.8913297594735923e-08 -5.210542397549034e-08 -7.031615677988157e-05 1.4581817531222896e-08 -1.8913297594735923e-08 1.4581817531222896e-08 -7.026593812042847e-05" pbc="T T T"
K        1.87953074       1.32902862       3.25544277       0.00000023       0.00000117       0.00000135
K        5.63859151       3.98708574       9.76632872      -0.00000034       0.00000129      -0.00000001
Ir      -0.00000037      -0.00000045       0.00000192      -0.00000011       0.00000059       0.00000282
S        1.91373583       1.35321509       6.51088647      -0.00085950      -0.00060749      -0.00000097
S        5.60438600       3.96289910       6.51088604       0.00085950       0.00060689      -0.00000029
S        4.68172351       1.35321602       4.91278758       0.00043207      -0.00061220      -0.00074947
S        2.83639868       3.96289897       8.10898327      -0.00043187       0.00061059       0.00074697
S        2.83639854       3.96289937       4.91278713      -0.00043166       0.00061035      -0.00074708
S        4.68172379       1.35321643       8.10898332       0.00043193      -0.00061083       0.00074691
