9
Lattice="5.7424219136714205 5.250915591817406e-08 3.315388829449806 1.9141404458657265 5.414007085199891 3.315389247793323 -4.186469351824483e-07 2.1633591565379124e-07 6.630778384017661" Properties=species:S:1:pos:R:3:forces:R:3 energy=-39.07572555541992 free_energy=-39.07572555541992 stress="6.0846137785119936e-05 -1.3007991128688445e-07 -1.2254735004546546e-08 -1.3007991128688445e-07 6.092513649491593e-05 2.0025160196723846e-08 -1.2254735004546546e-08 2.0025160196723846e-08 6.1001439462415874e-05" pbc="T T T"
K        1.91414131       1.35350203       3.31538953      -0.00000089      -0.00000036      -0.00000141
K        5.74242269       4.06050407       9.94616761      -0.00000340       0.00000420      -0.00000103
Mn      -0.00000225       0.00000040      -0.00000065       0.00002532       0.00000400       0.00002392
S        1.81651750       1.28447229       6.63077871       0.00576991       0.00407839       0.00000155
S        5.84004532       4.12953468       6.63077856      -0.00578940      -0.00409371       0.00000171
S        4.83416149       1.28447370       4.88854142      -0.00287995       0.00407368       0.00499290
S        2.82239815       4.12953508       8.37301548       0.00288963      -0.00408369      -0.00499886
S        2.82239985       4.12953401       4.88854068       0.00288031      -0.00407130       0.00498867
S        4.83416332       1.28447338       8.37301523      -0.00289160       0.00408888      -0.00500697
