9
Lattice="5.31657306744349 -6.415220612838888e-07 3.0695245541744627 1.7721903754412456 5.012511808666368 3.0695246272803103 -1.6990088999658006e-07 -3.060237729652201e-08 6.1390494026262" Properties=species:S:1:pos:R:3:forces:R:3 energy=-43.7498779296875 free_energy=-43.7498779296875 stress="-0.00020883789693471044 -5.207763820180844e-07 1.7402470575689222e-07 -5.207763820180844e-07 -0.00020847773703280836 -1.9730958911168273e-07 1.7402470575689222e-07 -1.9730958911168273e-07 -0.0002081333368550986" pbc="T T T"
K        1.77219118       1.25312746       3.06952559      -0.00000190      -0.00000020      -0.00000180
K        5.31657188       3.75938391       9.20857150       0.00000074      -0.00000041       0.00000314
Mn      -0.00000011       0.00000093      -0.00000062       0.00000488      -0.00001191      -0.00001282
O        1.49465556       1.05688121       6.13905043       0.00505845       0.00357307      -0.00000127
O        5.59410721       3.95562958       6.13905009      -0.00504513      -0.00357175      -0.00000219
O        4.56924403       1.05688145       4.36393598      -0.00251853       0.00355974       0.00436290
O        2.51952051       3.95562816       7.91416187       0.00250424      -0.00354508      -0.00433791
O        2.51952010       3.95562772       4.36393811       0.00250128      -0.00354002       0.00432962
O        4.56924209       1.05688384       7.91416187      -0.00250392       0.00353669      -0.00433975
