9
Lattice="5.904726588087052 2.4130291290928987e-07 3.409095264079369 1.9682429231745022 5.567029944919244 3.4090943986723725 1.0118334306361939e-06 -3.444283226340486e-07 6.81818877561159" Properties=species:S:1:pos:R:3:forces:R:3 energy=-36.515541076660156 free_energy=-36.515541076660156 stress="6.879581633256748e-06 -2.8813735752919456e-07 1.5064050273849716e-07 -2.8813735752919456e-07 7.018510132184019e-06 -2.3506839852416306e-07 1.5064050273849716e-07 -2.3506839852416306e-07 7.36989841243485e-06" pbc="T T T"
K        1.96824308       1.39175755       3.40909453      -0.00000142      -0.00000167       0.00000103
K        5.90472745       4.17527203      10.22728293       0.00000206       0.00000099       0.00000239
Mn      -0.00000060      -0.00000420       0.00000133       0.00000741       0.00007396      -0.00002854
Se       1.92169138       1.35884161       6.81818994      -0.00031495      -0.00022450      -0.00000082
Se       5.95128050       4.20818913       6.81818936       0.00027859       0.00019792      -0.00000085
Se       4.94387990       1.35884339       5.07332936       0.00015883      -0.00022379      -0.00027499
Se       2.92909111       4.20818622       8.56304997      -0.00015308       0.00021371       0.00026166
Se       2.92909112       4.20818630       5.07332953      -0.00015371       0.00021526      -0.00026590
Se       4.94387819       1.35884667       8.56304650       0.00017633      -0.00025180       0.00030619
