9
Lattice="6.200998069246254 7.424555956483647e-06 3.5801540130382996 2.0670063477532787 5.846354653065151 3.5801540279358157 -9.24402793412644e-07 -6.354056540505812e-07 7.160309627186702" Properties=species:S:1:pos:R:3:forces:R:3 energy=-33.235008239746094 free_energy=-33.235008239746094 stress="-0.00033050478668883443 3.27608063344087e-07 -1.5584278756364256e-08 3.27608063344087e-07 -0.00033072062069550157 3.109283852609224e-08 -1.5584278756364256e-08 3.109283852609224e-08 -0.0003309544117655605" pbc="T T T"
K        2.06700557       1.46159354       3.58015588       0.00002554       0.00001598       0.00000583
K        6.20099944       4.38476851      10.74046571      -0.00002223      -0.00001579       0.00000687
Mn      -0.00000142      -0.00000029      -0.00000744      -0.00000656      -0.00000073       0.00001053
Te       2.13199879       1.50755059       7.16031360       0.00889388       0.00629073      -0.00000703
Te       6.13600074       4.33880573       7.16031583      -0.00888748      -0.00628391      -0.00000843
Te       5.13501845       1.50753251       5.42653254      -0.00446060       0.00630519       0.00771891
Te       3.13299495       4.33881955       8.89408255       0.00445317      -0.00629906      -0.00772579
Te       3.13298642       4.33883199       5.42653021       0.00445908      -0.00631069       0.00772393
Te       5.13501101       1.50754383       8.89408176      -0.00445481       0.00629836      -0.00772485
