9
Lattice="5.838566889956435 -1.7645796110246157e-07 3.3708984814036698 1.9461889127450385 5.504653554422101 3.3708982808452608 2.8436626146327846e-07 -4.455552502572572e-08 6.741796470270595" Properties=species:S:1:pos:R:3:forces:R:3 energy=-41.96849822998047 free_energy=-41.96849822998047 stress="-0.00012807476741727442 -1.3209750626685945e-08 -6.771572635955181e-09 -1.3209750626685945e-08 -0.00012806789891328663 2.245180574789174e-08 -6.771572635955181e-09 2.245180574789174e-08 -0.0001280680880881846" pbc="T T T"
K        1.94618885       1.37616312       3.37089798       0.00000024      -0.00000002       0.00000046
K        5.83856687       4.12849045      10.11269439       0.00000050       0.00000071      -0.00000043
Mo       0.00000005       0.00000028       0.00000057      -0.00000321      -0.00000965      -0.00000530
S        1.86888657       1.32150256       6.74179656       0.00363955       0.00257148      -0.00000058
S        5.91586805       4.18314993       6.74179661      -0.00362902      -0.00256638      -0.00000015
S        4.90412364       1.32150297       4.98940169      -0.00181964       0.00257073       0.00314995
S        2.88063337       4.18315047       8.49419157       0.00181331      -0.00256497      -0.00314269
S        2.88063292       4.18315055       4.98940173       0.00181606      -0.00257051       0.00314735
S        4.90412400       1.32150287       8.49419188      -0.00181775       0.00256866      -0.00314863
