9
Lattice="6.040005185757223 3.396049534631203e-07 3.487198490307654 2.0133353931751414 5.694571574246025 3.4871984711275767 -1.529439323197407e-07 -1.3163823702232553e-07 6.974397245521977" Properties=species:S:1:pos:R:3:forces:R:3 energy=-38.83570861816406 free_energy=-38.83570861816406 stress="-3.1764346203999594e-05 1.510039879804026e-07 5.1641261933355054e-08 1.510039879804026e-07 -3.186767207807861e-05 -8.45178220743037e-08 5.1641261933355054e-08 -8.45178220743037e-08 -3.196826946805231e-05" pbc="T T T"
K        2.01333505       1.42364304       3.48719845       0.00000018      -0.00000014       0.00000031
K        6.04000539       4.27092867      10.46159577       0.00000001      -0.00000001       0.00000037
Mo      -0.00000058      -0.00000024       0.00000163       0.00000836       0.00000290      -0.00003057
Se       1.97439987       1.39611199       6.97439727       0.00322995       0.00228325      -0.00000139
Se       6.07894125       4.29846058       6.97439724      -0.00323802      -0.00228956      -0.00000142
Se       5.05280700       1.39610981       5.19707703      -0.00163203       0.00230819       0.00282520
Se       3.00053474       4.29846025       8.75171615       0.00162034      -0.00229016      -0.00280699
Se       3.00053371       4.29846157       5.19707752       0.00162776      -0.00230080       0.00281614
Se       5.05280531       1.39611158       8.75171577      -0.00161655       0.00228640      -0.00280172
