9
Lattice="6.454204962464249 4.071473675783396e-07 3.726336896741536 2.1514020626234522 6.08508162004014 3.7263368541217874 1.5018032189663632e-07 5.3995291930873464e-08 7.452673533362709" Properties=species:S:1:pos:R:3:forces:R:3 energy=-35.696495056152344 free_energy=-35.696495056152344 stress="-9.995050277211703e-06 8.797965733720048e-08 -1.387078896186722e-09 8.797965733720048e-08 -1.0076486432808451e-05 -1.2579609576235384e-09 -1.387078896186722e-09 -1.2579609576235384e-09 -1.0113189091498498e-05" pbc="T T T"
K        2.15140198       1.52127081       3.72633717       0.00000057       0.00000142       0.00000062
K        6.45420504       4.56381132      11.17901030      -0.00000029      -0.00000071       0.00000027
Nb      -0.00000093       0.00000017      -0.00000451       0.00000475       0.00000066       0.00001980
Te       2.28267613       1.61409507       7.45267530       0.00185473       0.00131190      -0.00000255
Te       6.32293138       4.47098711       7.45267473      -0.00185589      -0.00131402      -0.00000212
Te       5.31286798       1.61409425       5.70319149      -0.00093095       0.00131739       0.00161109
Te       3.29273886       4.47098952       9.20215565       0.00093295      -0.00132282      -0.00161593
Te       3.29273982       4.47098783       5.70319244       0.00092903      -0.00131679       0.00160750
Te       5.31286849       1.61409245       9.20215656      -0.00093482       0.00132299      -0.00161879
