9
Lattice="6.009809042457808 -2.248042520437272e-07 3.469765309377845 2.003269563294833 5.666102992246981 3.4697651458324756 2.029204963104611e-08 -1.8595272517551045e-07 6.939530583608934" Properties=species:S:1:pos:R:3:forces:R:3 energy=-38.66124725341797 free_energy=-38.66124725341797 stress="6.311828201432945e-06 -1.4780805912550932e-08 3.6901259825583566e-09 -1.4780805912550932e-08 6.32369619779638e-06 -2.151024247609712e-08 3.6901259825583566e-09 -2.151024247609712e-08 6.306070190476021e-06" pbc="T T T"
K        2.00326988       1.41652544       3.46976539      -0.00000098       0.00000031      -0.00000139
K        6.00980915       4.24957734      10.40929579       0.00000005      -0.00000075      -0.00000047
Nb       0.00000051      -0.00000027       0.00000104      -0.00000382       0.00000283      -0.00000883
Se       2.06116881       1.45746631       6.93953035       0.00061919       0.00043818       0.00000029
Se       5.95190943       4.20863624       6.93952998      -0.00061756      -0.00043792       0.00000102
Se       4.97922432       1.45746560       5.25479015      -0.00030972       0.00043878       0.00053673
Se       3.03385395       4.20863672       8.62427090       0.00030907      -0.00043720      -0.00053388
Se       3.03385430       4.20863647       5.25479005       0.00031031      -0.00043905       0.00053776
Se       4.97922399       1.45746672       8.62427040      -0.00030652       0.00043475      -0.00053111
