9
Lattice="5.765896699866429 2.1939458630951152e-07 3.3289417935045877 1.9219658455401385 5.436138857792183 3.328941668673983 9.696669796199058e-09 -1.460291418005492e-07 6.657883570213845" Properties=species:S:1:pos:R:3:forces:R:3 energy=-41.7807502746582 free_energy=-41.7807502746582 stress="-0.00011022145918104798 1.1686019973922157e-07 2.039333146797162e-08 1.1686019973922157e-07 -0.00011024069681297988 -2.0041625248268247e-08 2.039333146797162e-08 -2.0041625248268247e-08 -0.0001104149196180515" pbc="T T T"
K        1.92196536       1.35903470       3.32894154      -0.00000029      -0.00000164       0.00000052
K        5.76589662       4.07710359       9.98682529       0.00000020       0.00000138       0.00000048
Nb      -0.00000076       0.00000022      -0.00000225       0.00001422       0.00000301       0.00001642
S        1.93684817       1.36956052       6.65788363      -0.00660416      -0.00467274      -0.00000069
S        5.75101525       4.06657984       6.65788422       0.00659385       0.00466380      -0.00000145
S        4.79747316       1.36955763       5.00630013       0.00329511      -0.00466162      -0.00570789
S        2.89038994       4.06658002       8.30946716      -0.00329416       0.00465897       0.00570422
S        2.89038946       4.06658107       5.00630032      -0.00329684       0.00466442      -0.00571272
S        4.79747287       1.36955785       8.30946739       0.00329216      -0.00465575       0.00570095
