9
Lattice="5.447222099767152 5.178373462006364e-07 3.1449550866713185 1.8157411088466051 5.1356903789156805 3.1449552240184295 4.0491717563561937e-07 4.545350070076862e-07 6.289909472005552" Properties=species:S:1:pos:R:3:forces:R:3 energy=-50.578861236572266 free_energy=-50.578861236572266 stress="-2.177893065891112e-06 1.7985423994559824e-07 -3.856165520232935e-08 1.7985423994559824e-07 -2.474793291185051e-06 -2.6539808573033952e-08 -3.856165520232935e-08 -2.6539808573033952e-08 -2.5272047423641197e-06" pbc="T T T"
K        1.81574144       1.28392296       3.14495500      -0.00000027       0.00000008       0.00000121
K        5.44722245       3.85176908       9.43486508       0.00000020       0.00000057       0.00000218
Nb       0.00000002       0.00000086       0.00000235      -0.00000498       0.00000086       0.00000407
O        1.61506428       1.14202141       6.28990903       0.00005198       0.00003636      -0.00000123
O        5.64789973       3.99366896       6.28990925      -0.00004256      -0.00003326      -0.00000067
O        4.63969039       1.14202231       4.54364061      -0.00003356       0.00004560       0.00005591
O        2.62327249       3.99367016       8.03617928       0.00003147      -0.00004739      -0.00005627
O        2.62327276       3.99366836       4.54364071       0.00003028      -0.00004786       0.00005269
O        4.63969145       1.14202159       8.03617957      -0.00003213       0.00004530      -0.00005686
