9
Lattice="5.20749001202557 1.6054975549130697e-06 3.006546447340956 1.7358307875205872 4.909674216943709 3.00654771202471 -5.763622916082964e-07 1.14136530433704e-06 6.013093892970728" Properties=species:S:1:pos:R:3:forces:R:3 energy=-35.33888244628906 free_energy=-35.33888244628906 stress="-0.00014340699999593198 -1.1866506355318052e-07 5.6287301930524336e-08 -1.1866506355318052e-07 -0.0001433941361028701 -3.455506814020737e-08 5.6287301930524336e-08 -3.455506814020737e-08 -0.000143339391797781" pbc="T T T"
K        1.73582858       1.22741978       3.00654621       0.00000095      -0.00000042       0.00000072
K        5.20748989       3.68225736       9.01964070       0.00000086      -0.00000002      -0.00000036
Ni       0.00000066      -0.00000026      -0.00000014      -0.00000004       0.00000645       0.00001749
O        1.47005155       1.03948607       6.01309458       0.00677848       0.00479586      -0.00000080
O        5.47326972       3.87019092       6.01309490      -0.00678182      -0.00479834       0.00000129
O        4.47246361       1.03948626       4.27964966      -0.00338434       0.00478929       0.00586398
O        2.47085611       3.87019202       7.74653881       0.00339060      -0.00479740      -0.00587562
O        2.47085678       3.87018766       4.27965148       0.00338115      -0.00478730       0.00586115
O        4.47246373       1.03948673       7.74653686      -0.00338563       0.00479190      -0.00586791
