9
Lattice="5.75409698393578 -6.901143489041801e-08 3.3221292416311714 1.9180322086760757 5.42501415430488 3.3221293355740267 -1.0702003173164684e-07 3.938141000277131e-08 6.644258668626419" Properties=species:S:1:pos:R:3:forces:R:3 energy=-32.066436767578125 free_energy=-32.066436767578125 stress="-0.00034372720983810723 1.9801628781124236e-08 6.399204277585113e-09 1.9801628781124236e-08 -0.0003437318082433194 -3.0346903656663926e-08 6.399204277585113e-09 -3.0346903656663926e-08 -0.0003437513951212168" pbc="T T T"
K        1.91803227       1.35625359       3.32212928       0.00000067       0.00000032       0.00000092
K        5.75409672       4.06876048       9.96638793      -0.00000008      -0.00000133      -0.00000025
Ni      -0.00000014       0.00000037       0.00000010      -0.00000210      -0.00000182       0.00000026
Se       1.91943089       1.35724270       6.64425868       0.00668073       0.00472395      -0.00000003
Se       5.75269799       4.06777119       6.64425873      -0.00667822      -0.00472142      -0.00000030
Se       4.79438183       1.35724206       4.98440493      -0.00334084       0.00472476       0.00578606
Se       2.87774737       4.06777169       8.30411233       0.00334045      -0.00472434      -0.00578699
Se       2.87774789       4.06777215       4.98440500       0.00333974      -0.00472420       0.00578552
Se       4.79438136       1.35724234       8.30411178      -0.00334033       0.00472414      -0.00578544
