9
Lattice="5.520843676443368 9.573881609924242e-08 3.1874606073529335 1.840281272848249 5.205101539169493 3.1874606816514954 -5.452326336390946e-08 5.2442948525989724e-08 6.374921309142838" Properties=species:S:1:pos:R:3:forces:R:3 energy=-33.944236755371094 free_energy=-33.944236755371094 stress="0.00020360697817523032 4.165941902556369e-08 1.5808014453000396e-08 4.165941902556369e-08 0.00020358338952064514 -1.1677723676939422e-08 1.5808014453000396e-08 -1.1677723676939422e-08 0.00020362109353300184" pbc="T T T"
K        1.84028136       1.30127545       3.18746065      -0.00000026       0.00000056      -0.00000056
K        5.52084352       3.90382624       9.56238199      -0.00000084      -0.00000056       0.00000031
Ni       0.00000041       0.00000003       0.00000006      -0.00000717       0.00000039      -0.00000182
S        1.79100253       1.26643023       6.37492156      -0.00821894      -0.00581238       0.00000038
S        5.57012216       3.93867179       6.37492137       0.00822431       0.00581515       0.00000004
S        4.62534272       1.26642997       4.73851422       0.00410998      -0.00581282      -0.00711972
S        2.73578201       3.93867162       8.01132789      -0.00410876       0.00581163       0.00711763
S        2.73578208       3.93867137       4.73851457      -0.00410873       0.00581217      -0.00711769
S        4.62534273       1.26643004       8.01132820       0.00411069      -0.00581411       0.00712121
