9
Lattice="5.678339167068183 2.0189139543164292e-08 3.278390383033815 1.892779764645503 5.3535896263047595 3.278390342755092 3.928773438204267e-09 -4.655309503059693e-08 6.556780759262788" Properties=species:S:1:pos:R:3:forces:R:3 energy=-39.53342819213867 free_energy=-39.53342819213867 stress="-2.631894312798977e-05 1.2021576623055807e-08 -2.6898157035049053e-09 1.2021576623055807e-08 -2.636658427945804e-05 -4.4360051743019824e-10 -2.6898157035049053e-09 -4.4360051743019824e-10 -2.6305360734113492e-05" pbc="T T T"
K        1.89277968       1.33839767       3.27839024       0.00000090       0.00000070       0.00000051
K        5.67833930       4.01519198       9.83517101      -0.00000047      -0.00000083       0.00000038
Os      -0.00000143      -0.00000088       0.00000093      -0.00001179      -0.00000614       0.00000580
S        1.89512507       1.34005539       6.55678064       0.00118327       0.00083655      -0.00000126
S        5.67599443       4.01353458       6.55678058      -0.00117487      -0.00083160      -0.00000082
S        4.73077713       1.34005509       4.91961627      -0.00058943       0.00083536       0.00102091
S        2.84034201       4.01353467       8.19394474       0.00059098      -0.00083458      -0.00102288
S        2.84034229       4.01353461       4.91961630       0.00059122      -0.00083411       0.00102097
S        4.73077718       1.34005535       8.19394496      -0.00058964       0.00083476      -0.00102353
