9
Lattice="5.4764755344773155 -1.1774727728816597e-06 3.1618450907232254 1.8254912957668454 5.1632683965381165 3.161844118915971 2.3378999238821392e-07 -1.024901152869656e-06 6.323689776510396" Properties=species:S:1:pos:R:3:forces:R:3 energy=-51.67597961425781 free_energy=-51.67597961425781 stress="-1.699044332781341e-05 -5.182196716191356e-08 -4.0880632212747514e-08 -5.182196716191356e-08 -1.6761061488068663e-05 4.913064088896135e-08 -4.0880632212747514e-08 4.913064088896135e-08 -1.6853684428497218e-05" pbc="T T T"
K        1.82549211       1.29081752       3.16184458      -0.00000050       0.00000178       0.00000014
K        5.47647461       3.87244918       9.48553345       0.00000044      -0.00000144       0.00000072
Os       0.00000124      -0.00000135       0.00000032       0.00000278       0.00000486       0.00000885
O        1.51832718       1.07361990       6.32368819       0.00032997       0.00022960       0.00000458
O        5.78363991       4.08964736       6.32368868      -0.00034153      -0.00023687       0.00000443
O        4.71731149       1.07361997       4.47675544      -0.00015587       0.00022161       0.00027812
O        2.58465425       4.08964651       8.17062267       0.00017160      -0.00023687      -0.00028908
O        2.58465531       4.08964670       4.47675531       0.00016332      -0.00022173       0.00028121
O        4.71731154       1.07361732       8.17062480      -0.00017011       0.00023818      -0.00028920
