9
Lattice="5.876836719724493 1.400534522314493e-07 3.3929930020605488 1.9589456838834118 5.540734680107332 3.392993039129533 6.716844285174025e-08 9.289525780647936e-08 6.785985887781957" Properties=species:S:1:pos:R:3:forces:R:3 energy=-37.619075775146484 free_energy=-37.619075775146484 stress="-2.8309959816397168e-05 4.7141256231952866e-08 5.152624993343125e-10 4.7141256231952866e-08 -2.835928535205312e-05 -6.5724319320281666e-09 5.152624993343125e-10 -6.5724319320281666e-09 -2.837207830452826e-05" pbc="T T T"
K        1.95894577       1.38518374       3.39299294       0.00000069       0.00000036       0.00000048
K        5.87683679       4.15555110      10.17897893      -0.00000004      -0.00000054       0.00000008
Os       0.00000057       0.00000052      -0.00000132      -0.00000330      -0.00000234       0.00000818
Se       2.02215121       1.42987673       6.78598597       0.00164363       0.00116239      -0.00000019
Se       5.81363116       4.11085776       6.78598620      -0.00164053      -0.00115986      -0.00000017
Se       4.86576131       1.42987648       5.14422743      -0.00082089       0.00116165       0.00142156
Se       2.97002061       4.11085870       8.42774517       0.00082338      -0.00116517      -0.00142592
Se       2.97002098       4.11085824       5.14422727       0.00082053      -0.00116040       0.00142087
Se       4.86576154       1.42987641       8.42774504      -0.00082354       0.00116396      -0.00142489
