9
Lattice="6.797485650691097 3.9185868487808566e-09 3.9245298396437036 2.2658285061138717 6.408731087646273 3.92452992245457 -7.57537609282004e-08 4.785623727499151e-08 7.849059810496769" Properties=species:S:1:pos:R:3:forces:R:3 energy=-27.990652084350586 free_energy=-27.990652084350586 stress="-8.073180651990697e-05 6.933960072785794e-09 -8.613393553957849e-09 6.933960072785794e-09 -8.07416727184318e-05 6.015861586661231e-09 -8.613393553957849e-09 6.015861586661231e-09 -8.070582407526672e-05" pbc="T T T"
K        2.26582852       1.60218266       3.92452965      -0.00000014       0.00000009       0.00000029
K        6.79748555       4.80654851      11.77358989      -0.00000015      -0.00000010      -0.00000014
Pb      -0.00000020      -0.00000004      -0.00000053      -0.00000091       0.00000020       0.00000045
Te       2.61105707       1.84629630       7.84905976       0.00238195       0.00168390      -0.00000021
Te       6.45225756       4.56243549       7.84905988      -0.00238213      -0.00168522      -0.00000019
Te       5.49195698       1.84629591       6.18577198      -0.00119057       0.00168457       0.00206368
Te       3.57135660       4.56243525       9.51234743       0.00119104      -0.00168390      -0.00206207
Te       3.57135697       4.56243487       6.18577238       0.00119133      -0.00168414       0.00206199
Te       5.49195728       1.84629559       9.51234782      -0.00119040       0.00168459      -0.00206386
