9
Lattice="6.196639654816477 5.822621369277921e-07 3.5776320270341473 2.0655472305609464 5.84224776895786 3.57763180187884 -2.3598038007131785e-08 -2.9244410416920574e-07 7.15526409494135" Properties=species:S:1:pos:R:3:forces:R:3 energy=-29.527616500854492 free_energy=-29.527616500854492 stress="-3.975939398515038e-05 -1.202984805104279e-07 3.0025372410591444e-08 -1.202984805104279e-07 -3.9729668060317636e-05 1.7339027991170042e-08 3.0025372410591444e-08 1.7339027991170042e-08 -3.997997919213958e-05" pbc="T T T"
K        2.06554687       1.46056213       3.57763203       0.00000036       0.00000029       0.00000008
K        6.19664010       4.38168610      10.73289595       0.00000042       0.00000052       0.00000020
Pb       0.00000026       0.00000116      -0.00000031      -0.00000042      -0.00000045       0.00000038
Se       2.47802761       1.75223019       7.15526437      -0.00164832      -0.00116569       0.00000184
Se       5.78415470       4.09001591       7.15526356       0.00163624       0.00116122      -0.00000146
Se       4.95762510       1.75223340       5.72366668       0.00082146      -0.00115646      -0.00143214
Se       3.30456403       4.09001515       8.58685847      -0.00081488       0.00115752       0.00142384
Se       3.30456412       4.09001556       5.72366933      -0.00081372       0.00115944      -0.00142512
Se       4.95762476       1.75223262       8.58686155       0.00081883      -0.00115645       0.00143237
