9
Lattice="5.384916200287956 1.6513421709131166e-07 3.1089829375337947 1.7949722356777966 5.0769478122198475 3.1089829146275476 2.6533067048609384e-07 1.5956265279692326e-07 6.217965415501006" Properties=species:S:1:pos:R:3:forces:R:3 energy=-36.17422103881836 free_energy=-36.17422103881836 stress="2.846091774699744e-05 -1.9679378127079872e-08 8.022944975039081e-09 -1.9679378127079872e-08 2.8463820854085498e-05 8.14687162176142e-09 8.022944975039081e-09 8.14687162176142e-09 2.847481118806172e-05" pbc="T T T"
K        1.79497121       1.26923680       3.10898302       0.00000194       0.00000068      -0.00000121
K        5.38491698       3.80771085       9.32694839       0.00000092       0.00000010      -0.00000017
Pb       0.00000269       0.00000207      -0.00000237       0.00000297      -0.00000208      -0.00000345
O        1.77037234       1.25184278       6.21796645      -0.00066879      -0.00047374       0.00000064
O        5.40951643       3.82510647       6.21796676       0.00067300       0.00047418       0.00000103
O        4.49972930       1.25184281       4.64217161       0.00033291      -0.00047457      -0.00057709
O        2.68015931       3.82510275       7.79375914      -0.00033692       0.00047410       0.00058448
O        2.68015816       3.82510462       4.64217274      -0.00033914       0.00047514      -0.00058317
O        4.49972881       1.25184384       7.79376025       0.00033316      -0.00047415       0.00057909
