9
Lattice="5.883922798807123 4.897571506950857e-08 3.397084446797916 1.9613076740884758 5.547415583794495 3.3970843977612355 7.477604233927242e-08 -7.182807623744986e-09 6.794168764079949" Properties=species:S:1:pos:R:3:forces:R:3 energy=-31.735483169555664 free_energy=-31.735483169555664 stress="-8.825548138702288e-05 -3.9162564746675343e-08 -1.0444419551447481e-08 -3.9162564746675343e-08 -8.820339280646294e-05 5.680883763403699e-09 -1.0444419551447481e-08 5.680883763403699e-09 -8.818034257274121e-05" pbc="T T T"
K        1.96130762       1.38685389       3.39708433       0.00000043      -0.00000045      -0.00000027
K        5.88392290       4.16056163      10.19125321       0.00000013       0.00000039       0.00000009
Pd       0.00000016      -0.00000023      -0.00000026      -0.00000077       0.00000118      -0.00000091
Se       2.06020701       1.45678580       6.79416870       0.00440723       0.00311691       0.00000003
Se       5.78502349       4.09062971       6.79416893      -0.00440755      -0.00311653      -0.00000006
Se       4.85381933       1.45678616       5.18127613      -0.00220314       0.00311472       0.00381424
Se       2.99141124       4.09062972       8.40706192       0.00220299      -0.00311498      -0.00381438
Se       2.99141124       4.09062950       5.18127595       0.00220287      -0.00311549       0.00381516
Se       4.85381924       1.45678632       8.40706163      -0.00220205       0.00311427      -0.00381368
