9
Lattice="5.23962780428152 9.707527194587722e-08 3.0251005589853515 1.746542629764184 4.939968453005163 3.0251006684274313 -6.83260319778089e-08 8.572486170642281e-08 6.050201236314855" Properties=species:S:1:pos:R:3:forces:R:3 energy=-40.459259033203125 free_energy=-40.459259033203125 stress="3.0374036214197986e-05 -6.698225973877925e-08 5.3791575638229006e-09 -6.698225973877925e-08 3.0424365832004696e-05 -1.0087778612444254e-08 5.3791575638229006e-09 -1.0087778612444254e-08 3.0430484912358224e-05" pbc="T T T"
K        1.74654238       1.23499215       3.02510051       0.00002143       0.00001194       0.00002349
K        5.23962739       3.70497630       9.07530113       0.00002252       0.00001210       0.00002421
Pd       0.00002222       0.00001279       0.00002472      -0.00274196      -0.00157243      -0.00303285
O        1.49084095       1.05418396       6.05020173       0.00015700       0.00011629      -0.00005006
O        5.49530726       3.88576873       6.05020187       0.00253701       0.00180203      -0.00005054
O        4.49420579       1.05418737       4.31621076       0.00012389      -0.00026739      -0.00034314
O        2.49197237       3.88577209       7.78418056      -0.00107089       0.00142455       0.00172448
O        2.49196493       3.88578285       4.31620964      -0.00012192       0.00008333      -0.00018239
O        4.49419803       1.05419840       7.78417900       0.00107279      -0.00161034       0.00188696
