9
Lattice="5.652872493859995 -1.5689465752435964e-07 3.263687284738199 1.8842906910884587 5.329579008882995 3.263687271360844 -3.7329521014188146e-08 -4.277996598123876e-08 6.527374634133101" Properties=species:S:1:pos:R:3:forces:R:3 energy=-32.697906494140625 free_energy=-32.697906494140625 stress="-5.492073978530243e-05 1.583643438607396e-08 6.658811724236102e-09 1.583643438607396e-08 -5.491682895808481e-05 -1.890619749644884e-08 6.658811724236102e-09 -1.890619749644884e-08 -5.4902757256058976e-05" pbc="T T T"
K        1.88429071       1.33239470       3.26368730      -0.00000080      -0.00000073      -0.00000016
K        5.65287231       3.99718405       9.79106179       0.00000248       0.00000027       0.00000117
Pd       0.00000009       0.00000020      -0.00000035      -0.00000205      -0.00000057      -0.00000096
S        1.93815612       1.37048281       6.52737479       0.00227404       0.00160837      -0.00000021
S        5.59900696       3.95909598       6.52737480      -0.00227302      -0.00160778      -0.00000106
S        4.68379457       1.37048292       4.94217878      -0.00113726       0.00160807       0.00196987
S        2.85336849       3.95909620       8.11257054       0.00113657      -0.00160742      -0.00196946
S        2.85336873       3.95909587       4.94217886       0.00113717      -0.00160772       0.00196934
S        4.68379443       1.37048269       8.11257027      -0.00113714       0.00160736      -0.00196904
