9
Lattice="5.838135665895281 -9.297328381729192e-08 3.370649206573607 1.9460450350857894 5.504247781309194 3.3706493784333107 -2.4729399688673537e-07 3.5621088928415185e-08 6.741298841472867" Properties=species:S:1:pos:R:3:forces:R:3 energy=-31.926345825195312 free_energy=-31.926345825195312 stress="-2.872527693398297e-05 2.762615025631021e-08 -2.187801229069919e-08 2.762615025631021e-08 -2.8729240511893295e-05 2.747826499671646e-08 -2.187801229069919e-08 2.747826499671646e-08 -2.8762124202330597e-05" pbc="T T T"
K        1.94604521       1.37606208       3.37064930       0.00000022       0.00000027       0.00000049
K        5.83813539       4.12818566      10.11194808      -0.00000039      -0.00000044      -0.00000007
P       -0.00000050       0.00000012      -0.00000023       0.00000280       0.00000112       0.00000507
Se       1.90452041       1.34669910       6.74129850       0.00197867       0.00139916       0.00000041
Se       5.87965991       4.15754830       6.74129810      -0.00198022      -0.00140086       0.00000021
Se       4.88587601       1.34669927       5.02001297      -0.00098974       0.00139970       0.00171426
Se       2.89830504       4.15754869       8.46258513       0.00099075      -0.00140142      -0.00171608
Se       2.89830477       4.15754916       5.02001227       0.00099014      -0.00140092       0.00171500
Se       4.88587556       1.34669838       8.46258567      -0.00099236       0.00140342      -0.00171936
