9
Lattice="5.8489452519003065 6.713027042630437e-07 3.376890190225614 1.9496487682633936 5.514440683679969 3.3768906785724147 2.1733003879579858e-07 7.51775723220109e-07 6.753780004024605" Properties=species:S:1:pos:R:3:forces:R:3 energy=-34.178382873535156 free_energy=-34.178382873535156 stress="1.520048226666404e-05 1.2649513791984646e-07 -6.436015809185847e-08 1.2649513791984646e-07 1.513485585746821e-05 7.659604506216056e-08 -6.436015809185847e-08 7.659604506216056e-08 1.5061259546200745e-05" pbc="T T T"
K        1.94964886       1.37861031       3.37689052      -0.00000038      -0.00000001       0.00000033
K        5.84894538       4.13583177      10.13066981       0.00000177      -0.00000011       0.00000283
P       -0.00000031      -0.00000012      -0.00000166      -0.00000031       0.00000215       0.00002698
S        1.79667279       1.27044013       6.75378047      -0.00260532      -0.00184083       0.00000111
S        6.00192177       4.24400110       6.75378121       0.00260353       0.00184172      -0.00000024
S        4.95060942       1.27044046       4.93285422       0.00130361      -0.00184333      -0.00225890
S        2.84798468       4.24400242       8.57470825      -0.00129342       0.00182855       0.00223863
S        2.84798421       4.24400165       4.93285353      -0.00129873       0.00183666      -0.00224710
S        4.95061033       1.27044040       8.57470805       0.00128949      -0.00182456       0.00223660
