9
Lattice="5.61630929085276 -1.6972367228938223e-07 3.2425775347552683 1.872103012753934 5.29510648571944 3.242577403431074 1.0434174187484432e-07 -8.705778413481536e-08 6.485154888785133" Properties=species:S:1:pos:R:3:forces:R:3 energy=-34.390560150146484 free_energy=-34.390560150146484 stress="-1.8405382434139028e-05 4.068095549314421e-08 9.344097051666722e-09 4.068095549314421e-08 -1.844945472839754e-05 1.5413346154957708e-09 9.344097051666722e-09 1.5413346154957708e-09 -1.8453683878760785e-05" pbc="T T T"
K        1.87210309       1.32377663       3.24257742       0.00000049       0.00000071       0.00000025
K        5.61630965       3.97132934       9.72773236      -0.00000133      -0.00000104      -0.00000123
Pt       0.00000021       0.00000060      -0.00000034      -0.00000022      -0.00000471       0.00000144
S        1.89672370       1.34118543       6.48515511       0.00095105       0.00067249       0.00000004
S        5.59168934       3.95392054       6.48515496      -0.00094950      -0.00067157      -0.00000008
S        4.66794757       1.34118520       4.88518754      -0.00047669       0.00067323       0.00082451
S        2.82046401       3.95392143       8.08512256       0.00047660      -0.00067252      -0.00082272
S        2.82046425       3.95392098       4.88518741       0.00047588      -0.00067151       0.00082228
S        4.66794779       1.34118486       8.08512222      -0.00047657       0.00067481      -0.00082415
