9
Lattice="5.326390823276422 -2.5169594624209025e-08 3.0751931079053483 1.7754635630581328 5.021769567896728 3.075193144227447 -1.5994027229798468e-07 -6.860954119925752e-08 6.150386492835383" Properties=species:S:1:pos:R:3:forces:R:3 energy=-40.63283157348633 free_energy=-40.63283157348633 stress="-2.8665162972174585e-05 -2.870201021298868e-10 -1.1753767958921912e-09 -2.870201021298868e-10 -2.864289672288578e-05 -3.0579560217347534e-08 -1.1753767958921912e-09 -3.0579560217347534e-08 -2.8737742468365468e-05" pbc="T T T"
K        1.77546361       1.25544218       3.07519294      -0.00000026      -0.00000025       0.00000021
K        5.32639060       3.76632706       9.22558007       0.00000039      -0.00000041      -0.00000026
Pt      -0.00000006      -0.00000005      -0.00000019       0.00000177      -0.00000324       0.00000240
O        1.54574968       1.09301030       6.15038649       0.00122344       0.00086486       0.00000029
O        5.55610428       3.92875951       6.15038619      -0.00122213      -0.00086361       0.00000038
O        4.55351610       1.09301022       4.41385147      -0.00061214       0.00086588       0.00106078
O        2.54833802       3.92875929       7.88692102       0.00061172      -0.00086552      -0.00105941
O        2.54833862       3.92875919       4.41385178       0.00060982      -0.00086325       0.00105673
O        4.55351583       1.09301033       7.88692071      -0.00061229       0.00086564      -0.00106049
