9
Lattice="5.915854562291479 6.607939567561916e-08 3.415519793244512 1.9719516152493743 5.577521280636242 3.4155197374980824 3.948360824082875e-08 -4.035615566851858e-08 6.831039518101683" Properties=species:S:1:pos:R:3:forces:R:3 energy=-39.932586669921875 free_energy=-39.932586669921875 stress="-0.00027164057246409357 1.508043290243677e-08 -9.381418308862521e-09 1.508043290243677e-08 -0.0002716861490625888 4.009089238365959e-08 -9.381418308862521e-09 4.009089238365959e-08 -0.0002717202005442232" pbc="T T T"
K        1.97195171       1.39438045       3.41551970      -0.00000004       0.00000056      -0.00000030
K        5.91585467       4.18314110      10.24655915       0.00000003       0.00000110       0.00000008
Re       0.00000082      -0.00000288       0.00000084      -0.00000612       0.00000945      -0.00000450
Se       2.02039270       1.42863342       6.83104037      -0.00212237      -0.00150037      -0.00000156
Se       5.86741158       4.14888657       6.83103984       0.00212723       0.00150329      -0.00000015
Se       4.90565768       1.42863509       5.16523096       0.00106138      -0.00150341      -0.00183842
Se       2.98214920       4.14888830       8.49684724      -0.00106105       0.00150031       0.00183713
Se       2.98214801       4.14888874       5.16523104      -0.00105888       0.00149342      -0.00183207
Se       4.90565839       1.42863452       8.49684704       0.00105976      -0.00150436       0.00183973
