9
Lattice="5.7018986420146245 -2.5272738871240093e-08 3.2919925906297176 1.9006328475255752 5.375801407667292 3.2919926067701515 -1.91045730376758e-07 -1.1532186328950552e-07 6.58398551216047" Properties=species:S:1:pos:R:3:forces:R:3 energy=-42.82640838623047 free_energy=-42.82640838623047 stress="5.112519284011796e-05 5.64479019082853e-10 -4.378134121907351e-08 5.64479019082853e-10 5.11266989633441e-05 3.509023471792716e-08 -4.378134121907351e-08 3.509023471792716e-08 5.1168557547498494e-05" pbc="T T T"
K        1.90063304       1.34395029       3.29199274      -0.00000002       0.00000085       0.00000157
K        5.70189817       4.03185093       9.87597767       0.00000022       0.00000032       0.00000239
Re      -0.00000015      -0.00000060      -0.00000166       0.00000039      -0.00000115      -0.00000221
S        1.88018110       1.32948815       6.58398564      -0.00013149      -0.00009352       0.00000012
S        5.72235050       4.04631276       6.58398573       0.00013119       0.00009263      -0.00000140
S        4.76180798       1.32948847       4.92027748       0.00006732      -0.00009352      -0.00011575
S        2.84072301       4.04631291       8.24769339      -0.00006676       0.00009465       0.00011659
S        2.84072294       4.04631322       4.92027744      -0.00006524       0.00009251      -0.00011402
S        4.76180822       1.32948871       8.24769371       0.00006479      -0.00009280       0.00011271
