9
Lattice="5.578535885714809 1.7863425541761872e-07 3.2207702042472475 1.859512230785897 5.259494686212643 3.2207700302405167 5.590040073322331e-07 1.821615964036484e-07 6.441539440271197" Properties=species:S:1:pos:R:3:forces:R:3 energy=-36.033443450927734 free_energy=-36.033443450927734 stress="-0.00015468023775611073 6.435152499761898e-08 1.9437829124058226e-08 6.435152499761898e-08 -0.00015476849512197077 -5.0349097335811166e-08 1.9437829124058226e-08 -5.0349097335811166e-08 -0.00015484400501009077" pbc="T T T"
K        1.85951219       1.31487405       3.22076972      -0.00000226       0.00000229      -0.00000018
K        5.57853666       3.94462133       9.66230945       0.00000342       0.00000428       0.00000135
Rh      -0.00000098      -0.00000597       0.00000163       0.00000140       0.00000540      -0.00000347
S        1.89038527       1.33670583       6.44153885      -0.00109929      -0.00077850      -0.00000037
S        5.54766128       3.92279240       6.44154010       0.00109559       0.00077322      -0.00000049
S        4.63334454       1.33670287       4.85789030       0.00054461      -0.00077015      -0.00094426
S        2.80470577       3.92279199       8.02518860      -0.00054598       0.00077021       0.00094381
S        2.80470537       3.92279188       4.85789077      -0.00054565       0.00077051      -0.00094405
S        4.63334438       1.33670601       8.02518906       0.00054830      -0.00077736       0.00094742
