9
Lattice="5.423357176687108 -9.434438853676359e-08 3.131176516404912 1.8077856479324679 5.113190516522533 3.1311764967998976 -5.79720799457777e-08 -6.50035324600844e-08 6.2623531332203894" Properties=species:S:1:pos:R:3:forces:R:3 energy=-47.886390686035156 free_energy=-47.886390686035156 stress="0.00011803267989307642 -2.816979076669668e-07 9.474769413486683e-09 -2.816979076669668e-07 0.00011832162999780849 -3.776524337695264e-08 9.474769413486683e-09 -3.776524337695264e-08 0.00011840914521599188" pbc="T T T"
K        1.80778556       1.27829737       3.13117661      -0.00000073       0.00000041      -0.00000031
K        5.42335652       3.83489182       9.39352923      -0.00000081      -0.00000125       0.00000106
Ru      -0.00000033      -0.00000003       0.00000050       0.00001235       0.00000850      -0.00000232
O        1.49856092       1.05964381       6.26235265      -0.00417084      -0.00295144       0.00000043
O        5.73258193       4.05354673       6.26235242       0.00415552       0.00294301       0.00000054
O        4.67407618       1.05964413       4.42897027       0.00209546      -0.00296453      -0.00362706
O        2.55706698       4.05354651       8.09573730      -0.00209218       0.00296399       0.00362653
O        2.55706745       4.05354614       4.42896997      -0.00209641       0.00296915      -0.00363159
O        4.67407628       1.05964438       8.09573671       0.00209767      -0.00296816       0.00363338
