9
Lattice="5.585936567990147 1.2222634545854394e-07 3.2250422213480516 1.8619788239251358 5.266471805462149 3.2250424764923658 -1.827318500467339e-07 1.8327582921967603e-07 6.450084759196866" Properties=species:S:1:pos:R:3:forces:R:3 energy=-37.64842224121094 free_energy=-37.64842224121094 stress="-0.00022621089010499418 -1.7827455067731535e-08 3.86080678538292e-09 -1.7827455067731535e-08 -0.00022621195239480585 6.1395750705628416e-09 3.86080678538292e-09 6.1395750705628416e-09 -0.00022625345445703715" pbc="T T T"
K        1.86197883       1.31661807       3.22504235      -0.00000071      -0.00000071      -0.00000161
K        5.58593625       3.94985408       9.67512696       0.00000089       0.00000055      -0.00000110
Ru       0.00000247      -0.00000229       0.00001692       0.00002137      -0.00002438       0.00016377
S        1.90796013       1.34913204       6.45008343       0.00236839       0.00167695      -0.00000830
S        5.53995477       3.91734047       6.45008328      -0.00237215      -0.00167570      -0.00000837
S        4.63195696       1.34913045       4.87738160      -0.00117266       0.00165889       0.00202143
S        2.81595958       3.91733869       8.02278169       0.00119632      -0.00169200      -0.00208181
S        2.81595727       3.91734238       4.87738081       0.00116402      -0.00164735       0.00201082
S        4.63195460       1.34913459       8.02278107      -0.00120512       0.00170371      -0.00209475
