9
Lattice="5.851735593482331 -2.399901724378985e-07 3.3785006273366447 1.9505784907117012 5.517068700012463 3.3785003054941245 4.4533578964495775e-08 -3.626850218579183e-07 6.757001177538764" Properties=species:S:1:pos:R:3:forces:R:3 energy=-36.203094482421875 free_energy=-36.203094482421875 stress="-2.1702328012906946e-05 2.403517029847535e-08 2.9330877282518486e-08 2.403517029847535e-08 -2.175629197154194e-05 -3.6124102820167536e-08 2.9330877282518486e-08 -3.6124102820167536e-08 -2.174960718548391e-05" pbc="T T T"
K        1.95057850       1.37926717       3.37850074      -0.00000037      -0.00000069       0.00000044
K        5.85173535       4.13780113      10.13550148       0.00000023       0.00000066       0.00000005
Ru       0.00000079      -0.00000087      -0.00000259       0.00000002       0.00000157       0.00000596
Se       2.01852090       1.42731006       6.75700239       0.00095894       0.00067634      -0.00000153
Se       5.78379279       4.08975861       6.75700136      -0.00095931      -0.00067762      -0.00000012
Se       4.84247556       1.42730896       5.12659016      -0.00047996       0.00067934       0.00083215
Se       2.95983874       4.08975849       8.38741127       0.00048197      -0.00068076      -0.00083272
Se       2.95983898       4.08975926       5.12659156       0.00047800      -0.00067788       0.00082735
Se       4.84247490       1.42730951       8.38741206      -0.00047953       0.00067908      -0.00083143
