9
Lattice="5.911787531870959 -4.1398231158163764e-07 3.4131723153286146 1.970595764684175 5.573686141406791 3.413171776603121 4.833734938508776e-07 -3.180047424512168e-07 6.826343793429848" Properties=species:S:1:pos:R:3:forces:R:3 energy=-31.118661880493164 free_energy=-31.118661880493164 stress="-1.9028366295970045e-05 -1.4612943743941287e-07 5.689220827775898e-08 -1.4612943743941287e-07 -1.8895112589234486e-05 -5.4934581328325294e-08 5.689220827775898e-08 -5.4934581328325294e-08 -1.8797094526235014e-05" pbc="T T T"
K        1.97059587       1.39342144       3.41317225       0.00000072       0.00000054      -0.00000059
K        5.91178763       4.18026386      10.23951560       0.00000001      -0.00000041       0.00000086
Se      -0.00000053      -0.00000010       0.00000106       0.00000572      -0.00000172      -0.00002801
S        1.84539938       1.30489359       6.82634330       0.00076461       0.00053981      -0.00000031
S        6.03698427       4.26879167       6.82634339      -0.00076699      -0.00054312      -0.00000109
S        4.98908837       1.30489413       5.01133569      -0.00038317       0.00054303       0.00066304
S        2.89329660       4.26879055       8.64135193       0.00037149      -0.00052580      -0.00064498
S        2.89329599       4.26879166       5.01133617       0.00037840      -0.00053522       0.00065321
S        4.98908764       1.30489485       8.64135200      -0.00037035       0.00052327      -0.00064242
