9
Lattice="5.394123976827333 2.4256029376828194e-07 3.114299100551982 1.798041535682281 5.085629342391244 3.1142991327938203 1.8734172014738082e-07 1.7195862245796228e-07 6.228597876618562" Properties=species:S:1:pos:R:3:forces:R:3 energy=-38.76256561279297 free_energy=-38.76256561279297 stress="-0.0002484839642420411 6.681829489707525e-08 -3.536620951649638e-08 6.681829489707525e-08 -0.0002485618751961738 -1.363876034332634e-08 -3.536620951649638e-08 -1.363876034332634e-08 -0.00024846664746291935" pbc="T T T"
K        1.79804133       1.27140778       3.11429928      -0.00001058       0.00000380       0.00001077
K        5.39412375       3.81422250       9.34289805      -0.00001279       0.00000096       0.00001174
Se      -0.00003595       0.00000353       0.00003192      -0.00084052       0.00008255       0.00073371
O        1.48441716       1.04963401       6.22858956      -0.00547147      -0.00399971      -0.00014246
O        5.70775585       4.03598543       6.22858935       0.00572610       0.00391722      -0.00014379
O        4.65192176       1.04964599       4.39983890       0.00293458      -0.00393558      -0.00494373
O        2.54025367       4.03599439       8.05735621      -0.00266016       0.00397336       0.00474691
O        2.54025978       4.03598673       4.39983324      -0.00262952       0.00393414      -0.00498033
O        4.65192660       1.04963862       8.05734899       0.00296390      -0.00397599       0.00470865
