9
Lattice="5.246680081585127 4.383624294946669e-08 3.0291723504609798 1.748893511379116 4.946621285298427 3.029172160764761 -3.2204520062306316e-08 -2.55101652250378e-07 6.058344756701618" Properties=species:S:1:pos:R:3:forces:R:3 energy=-45.56325912475586 free_energy=-45.56325912475586 stress="-3.370394915691577e-05 4.0406962398265023e-07 -3.388547895610827e-07 4.0406962398265023e-07 -3.3871750929392874e-05 3.2860452847671695e-07 -3.388547895610827e-07 3.2860452847671695e-07 -3.408753764233552e-05" pbc="T T T"
K        1.74889316       1.23665517       3.02917277      -0.00000027       0.00000083      -0.00000200
K        5.24668042       3.70996521       9.08751672      -0.00000011      -0.00000040      -0.00000001
Si      -0.00000137      -0.00000059      -0.00000174      -0.00000316      -0.00000101       0.00002846
O        1.42330781       1.00643108       6.05834790       0.00027835       0.00020087      -0.00000273
O        5.57226234       3.94019026       6.05834498      -0.00026286      -0.00018477      -0.00000153
O        4.53502820       1.00643202       4.26179352      -0.00014400       0.00019503       0.00023854
O        2.46054699       3.94018798       7.85489565       0.00013959      -0.00020730      -0.00025189
O        2.46055062       3.94019050       4.26178733       0.00015718      -0.00023031       0.00027490
O        4.53502718       1.00643244       7.85489774      -0.00016391       0.00022709      -0.00028348
