9
Lattice="5.875493896788752 -6.054560318312673e-08 3.3922183378230852 1.9584979276468752 5.539468737995781 3.392218304682865 7.9475960502734e-08 1.5609586105663776e-08 6.784436537989834" Properties=species:S:1:pos:R:3:forces:R:3 energy=-31.973432540893555 free_energy=-31.973432540893555 stress="-0.00017121154814958572 2.144028066197734e-09 1.153639317408306e-08 2.144028066197734e-09 -0.00017121380369644612 1.987282338689056e-08 1.153639317408306e-08 1.987282338689056e-08 -0.0001712289813440293" pbc="T T T"
K        1.95849798       1.38486730       3.39221829      -0.00000028       0.00000038      -0.00000020
K        5.87549401       4.15460139      10.17665491       0.00000222      -0.00000149      -0.00000079
Si      -0.00000071      -0.00000004      -0.00000019      -0.00000116       0.00000078      -0.00000153
Se       1.98449173       1.40324639       6.78443666       0.00597395       0.00422572       0.00000006
Se       5.84950038       4.13622151       6.78443648      -0.00597477      -0.00422431      -0.00000022
Se       4.88324837       1.40324746       5.11083879      -0.00298790       0.00422446       0.00517347
Se       2.95074389       4.13622136       8.45803488       0.00298694      -0.00422334      -0.00517302
Se       2.95074392       4.13622203       5.11083801       0.00298773      -0.00422548       0.00517557
Se       4.88324807       1.40324732       8.45803492      -0.00298671       0.00422330      -0.00517339
