9
Lattice="6.374269211635385 5.8954894421185306e-06 3.6800666751215028 2.124740379152489 6.009847643441387 3.680104058070537 1.0633034962915658e-05 5.330325333928094e-05 7.360114933325168" Properties=species:S:1:pos:R:3:forces:R:3 energy=-28.827329635620117 free_energy=-28.827329635620117 stress="-5.745259841205552e-05 -4.977154048901866e-07 -4.1057333532990015e-07 -4.977154048901866e-07 -5.262450213194825e-05 8.6778436525492e-07 -4.1057333532990015e-07 8.6778436525492e-07 -6.0754999140044674e-05" pbc="T T T"
K        2.12467398       1.50242265       3.68012194      -0.00000618      -0.00019974       0.00008636
K        6.37431107       4.50742134      11.04024903       0.00016958       0.00031522       0.00004554
Si      -0.00002327      -0.00036064       0.00071820       0.00009378       0.00025434      -0.00028679
Te       2.24698043       1.58906922       7.36018154      -0.00429440      -0.00306600       0.00010890
Te       6.25206753       4.42092594       7.36011961       0.00446197       0.00299631       0.00014416
Te       5.25096986       1.58901288       5.62569347       0.00207685      -0.00320793      -0.00373328
Te       3.24849836       4.42050449       9.09441227      -0.00218749       0.00289562       0.00378089
Te       3.24803931       4.42109408       5.62547677      -0.00226221       0.00305042      -0.00384602
Te       5.25057324       1.58953798       9.09419417       0.00194805      -0.00303822       0.00370020
