9
Lattice="5.757445803362455 1.530058741793169e-07 3.3240633951663465 1.9191486399645181 5.428171779545083 3.324063577744535 -3.672112406396463e-08 1.976461095182959e-07 6.648126853935539" Properties=species:S:1:pos:R:3:forces:R:3 energy=-33.44754409790039 free_energy=-33.44754409790039 stress="-3.128634125459939e-05 -5.855972595725234e-09 -3.487763322596038e-08 -5.855972595725234e-09 -3.128279058728367e-05 1.7362301818479864e-08 -3.487763322596038e-08 1.7362301818479864e-08 -3.129890683339909e-05" pbc="T T T"
K        1.91914849       1.35704299       3.32406349      -0.00000035       0.00000077      -0.00000108
K        5.75744581       4.07112929       9.97219050      -0.00000004      -0.00000079      -0.00000041
Si       0.00000113       0.00000011       0.00000019      -0.00000034      -0.00000442       0.00000113
S        1.87858243       1.32835916       6.64812641       0.00040847       0.00028780       0.00000045
S        5.79801115       4.09981339       6.64812671      -0.00040257      -0.00028580       0.00000188
S        4.81815435       1.32835857       4.95096362      -0.00020373       0.00028628       0.00035262
S        2.85843975       4.09981343       8.34528962       0.00020280      -0.00028726      -0.00034946
S        2.85843990       4.09981270       4.95096425       0.00020042      -0.00028470       0.00034839
S        4.81815462       1.32835923       8.34529088      -0.00020429       0.00028807      -0.00035340
