9
Lattice="6.030159347679987 -2.466651129031814e-07 3.4815153867066053 2.010052683264567 5.685295190366015 3.481515733238888 -9.567885403530315e-07 -2.521379614618516e-07 6.963032430619414" Properties=species:S:1:pos:R:3:forces:R:3 energy=-30.333297729492188 free_energy=-30.333297729492188 stress="-6.414519157260656e-05 -5.510215217441328e-08 9.268307366028239e-08 -5.510215217441328e-08 -6.514312553917989e-05 4.909377437911644e-08 9.268307366028239e-08 4.909377437911644e-08 -6.457546260207891e-05" pbc="T T T"
K        2.01005262       1.42132312       3.48151620      -0.00000109       0.00000018       0.00000165
K        6.03015832       4.26397010      10.44454782       0.00000097      -0.00000284       0.00000132
Sn       0.00000022      -0.00000330       0.00000345       0.00000017       0.00000333      -0.00000581
Se       2.36152409       1.66984283       6.96303468      -0.00371173      -0.00265272       0.00000971
Se       5.67869377       4.01545184       6.96303134       0.00373197       0.00265031       0.00000316
Se       4.84939837       1.66984234       5.52665179       0.00186147      -0.00265552      -0.00322689
Se       3.19081160       4.01545058       8.39941445      -0.00186248       0.00264178       0.00323951
Se       3.19081125       4.01545527       5.52664640      -0.00186700       0.00265889      -0.00324357
Se       4.84939417       1.66984594       8.39940808       0.00184771      -0.00264336       0.00322078
