9
Lattice="6.601694265369386 -7.131355793781979e-07 3.811489307845703 2.200564126254669 6.224137317904684 3.8114892325321383 -1.2541601749767746e-08 -1.0110801855815995e-07 7.622978637414135" Properties=species:S:1:pos:R:3:forces:R:3 energy=-28.497888565063477 free_energy=-28.497888565063477 stress="-8.36809485917911e-05 1.2728065712508396e-08 2.1230189162224633e-08 1.2728065712508396e-08 -8.36939289001748e-05 -1.1176305214632976e-08 2.1230189162224633e-08 -1.1176305214632976e-08 -8.361504296772182e-05" pbc="T T T"
K        2.20056520       1.55603401       3.81148931       0.00000001       0.00000084      -0.00000031
K        6.60169321       4.66810254      11.43446781      -0.00000044      -0.00000030      -0.00000068
Sn      -0.00000028       0.00000215      -0.00000112       0.00000042      -0.00000682       0.00000220
Te       2.44168166       1.72653038       7.62297851      -0.00024453      -0.00017293       0.00000076
Te       6.36057572       4.49760659       7.62297812       0.00024465       0.00017311       0.00000089
Te       5.38085346       1.72652892       5.92604862       0.00012264      -0.00017299      -0.00021094
Te       3.42140434       4.49760773       9.31990747      -0.00012085       0.00017312       0.00021237
Te       3.42140596       4.49760631       5.92605056      -0.00012340       0.00017571      -0.00021446
Te       5.38085430       1.72652734       9.31990946       0.00012137      -0.00016974       0.00021014
