9
Lattice="5.932161334024965 -4.5919647222286744e-07 3.4249351809850936 1.9773867687826845 5.5928945740302165 3.424935024449979 8.80872575254371e-08 -1.294284819758334e-07 6.849870209398584" Properties=species:S:1:pos:R:3:forces:R:3 energy=-31.472572326660156 free_energy=-31.472572326660156 stress="7.04504236637149e-06 -3.7114954665184996e-08 9.850153581680843e-09 -3.7114954665184996e-08 7.1256799856200814e-06 -2.6073516679048225e-08 9.850153581680843e-09 -2.6073516679048225e-08 7.092849045875482e-06" pbc="T T T"
K        1.97738703       1.39822332       3.42493501       0.00000023      -0.00000023      -0.00000027
K        5.93216126       4.19467064      10.27480553       0.00000004       0.00000079       0.00000018
Sn       0.00000004       0.00000012       0.00000060       0.00000552      -0.00000087      -0.00001427
S        2.04560068       1.44645809       6.84987015      -0.00078401      -0.00055283      -0.00000105
S        5.86394769       4.14643611       6.84986991       0.00077817       0.00054994      -0.00000179
S        4.90936121       1.44645740       5.19647741       0.00038902      -0.00054902      -0.00067216
S        3.00018761       4.14643617       8.50326265      -0.00039297       0.00055787       0.00068250
S        3.00018699       4.14643585       5.19647709      -0.00038970       0.00055078      -0.00067580
S        4.90936042       1.44645840       8.50326318       0.00039358      -0.00055623       0.00068247
