9
Lattice="5.1964269142688595 1.5057201596211644e-07 3.000158124181203 1.7321423132944245 4.899238599065354 3.000158355275722 -3.056627945248171e-07 6.689564117221352e-08 6.0003167777859225" Properties=species:S:1:pos:R:3:forces:R:3 energy=-42.405887603759766 free_energy=-42.405887603759766 stress="6.729166557306598e-07 -6.116983541915033e-08 -6.010957065427647e-09 -6.116983541915033e-08 7.146056759665953e-07 -2.914915775420468e-08 -6.010957065427647e-09 -2.914915775420468e-08 8.781183282735583e-07" pbc="T T T"
K        1.73214200       1.22480971       3.00015843       0.00000015      -0.00000000      -0.00000010
K        5.19642663       3.67442889       9.00047563      -0.00000001       0.00000033      -0.00000104
S        0.00000007       0.00000126       0.00000023       0.00000031      -0.00000060       0.00000495
O        1.33151686       0.94152478       6.00031678      -0.00079489      -0.00056303      -0.00000068
O        5.59705324       3.95771415       6.00031642       0.00079727       0.00056529       0.00000070
O        4.53066846       0.94152515       4.15328584       0.00039816      -0.00056505      -0.00069666
O        2.39789965       3.95771394       7.84734826      -0.00039804       0.00056529       0.00069284
O        2.39790001       3.95771451       4.15328583      -0.00039887       0.00056374      -0.00069475
O        4.53066818       0.94152421       7.84734623       0.00039661      -0.00056374       0.00069427
