9
Lattice="5.465618083606033 -7.205342108326695e-08 3.1555759468482956 1.8218726500668587 5.153034231362869 3.155575906206922 1.3122595776495237e-07 4.3015529078557864e-08 6.311151666406558" Properties=species:S:1:pos:R:3:forces:R:3 energy=-54.02098083496094 free_energy=-54.02098083496094 stress="-7.822729344297841e-07 3.76990705319713e-08 1.13206501950458e-08 3.76990705319713e-08 -6.392796194631956e-07 1.0149352469568385e-08 1.13206501950458e-08 1.0149352469568385e-08 -8.109607847472944e-07" pbc="T T T"
K        1.82187251       1.28825845       3.15557538       0.00000231      -0.00000072       0.00000104
K        5.46561770       3.86477588       9.46672825      -0.00000022      -0.00000037       0.00000080
Ta       0.00000041       0.00000025       0.00000007       0.00000070      -0.00000535       0.00000966
O        1.59973743       1.13118501       6.31115165       0.00009787       0.00006962       0.00000000
O        5.68775434       4.02184922       6.31115152      -0.00009584      -0.00006819       0.00000115
O        4.66574973       1.13118503       4.54098913      -0.00004894       0.00006956       0.00008553
O        2.62174107       4.02184871       8.08131493       0.00005114      -0.00007391      -0.00008851
O        2.62174136       4.02184894       4.54098937       0.00004435      -0.00006348       0.00007838
O        4.66574942       1.13118518       8.08131500      -0.00005135       0.00007296      -0.00008792
