9
Lattice="6.463500244971639 -4.439598576029492e-06 3.7317100016934064 2.154494609975005 6.093843305621266 3.7317122290904705 -1.127541603161663e-06 1.9307025766350693e-06 7.463421956345389" Properties=species:S:1:pos:R:3:forces:R:3 energy=-37.45687484741211 free_energy=-37.45687484741211 stress="-1.3347282219910994e-05 -6.05867285230488e-08 -2.6093343308275507e-07 -6.05867285230488e-08 -1.337699268333381e-05 3.2792155479910434e-07 -2.6093343308275507e-07 3.2792155479910434e-07 -1.3492356629285496e-05" pbc="T T T"
K        2.15450021       1.52346216       3.73171477      -0.00000623      -0.00000392      -0.00000376
K        6.46349650       4.57038033      11.19513167       0.00000699       0.00000162       0.00000098
Ta      -0.00001430      -0.00000557      -0.00001839       0.00005227       0.00002244       0.00007115
Te       2.28220127       1.61375413       7.46342450       0.00503688       0.00357654       0.00000472
Te       6.33580017       4.48008960       7.46341261      -0.00507739      -0.00359101       0.00000910
Te       5.32238808       1.61375854       5.70815318      -0.00249759       0.00354323       0.00435457
Te       3.29559881       4.48008756       9.21870633       0.00252082      -0.00358105      -0.00440619
Te       3.29559217       4.48008515       5.70814874       0.00252207      -0.00356992       0.00439552
Te       5.32241064       1.61375287       9.21870392      -0.00255774       0.00360208      -0.00442604
