9
Lattice="5.736380370148124 -2.6848630572627483e-07 3.3119003941909124 1.9121265041751614 5.408310419863625 3.3119004509033054 5.19159844819174e-07 4.3655989418073457e-07 6.623799889170363" Properties=species:S:1:pos:R:3:forces:R:3 energy=-43.10651779174805 free_energy=-43.10651779174805 stress="-0.00012917305866722018 -3.8768726540183707e-07 -3.323867847626616e-09 -3.8768726540183707e-07 -0.00012877369590569288 2.0277777679211795e-08 -3.323867847626616e-09 2.0277777679211795e-08 -0.0001285211619688198" pbc="T T T"
K        1.91212635       1.35207761       3.31190013       0.00000170       0.00000212      -0.00000015
K        5.73638079       4.05623322       9.93570072      -0.00000105       0.00000328      -0.00000030
Ta      -0.00000064      -0.00000676      -0.00000064       0.00000714       0.00003451       0.00000531
S        1.96398314       1.38874818       6.62379934      -0.00284404      -0.00201109       0.00000059
S        5.68452548       4.01956497       6.62380074       0.00282228       0.00199395       0.00000003
S        4.75438775       1.38874932       5.01276185       0.00143179      -0.00202855      -0.00248268
S        2.89411922       4.01956438       8.23483792      -0.00142369       0.00201359       0.00246888
S        2.89411948       4.01956337       5.01276305      -0.00142610       0.00201616      -0.00246981
S        4.75438801       1.38874906       8.23483943       0.00143194      -0.00202397       0.00247800
