9
Lattice="5.98607956277053 -4.021914171704206e-06 3.4560550227832247 1.9953615813371375 5.643724179304848 3.4560454636250855 -7.76751609867945e-06 -1.7199991230529114e-05 6.912123499266947" Properties=species:S:1:pos:R:3:forces:R:3 energy=-40.300758361816406 free_energy=-40.300758361816406 stress="-4.047372567583807e-05 4.376927336124936e-06 1.6145185099958326e-06 4.376927336124936e-06 -4.464637822820805e-05 -1.835293801377702e-06 1.6145185099958326e-06 -1.835293801377702e-06 -4.6828979975543916e-05" pbc="T T T"
K        1.99535967       1.41093557       3.45605685      -0.00000318       0.00002515       0.00001456
K        5.98607281       4.23276949      10.36817193       0.00001644      -0.00001614      -0.00000217
Ta      -0.00000526      -0.00001393      -0.00005538      -0.00001398       0.00003774       0.00029480
Se       2.08456877       1.47398436       6.91213320      -0.00248259      -0.00172655      -0.00002432
Se       5.89684894       4.16969426       6.91210530       0.00252413       0.00176159      -0.00000584
Se       4.94379305       1.47394414       5.26131125       0.00109546      -0.00150635      -0.00188807
Se       3.03764189       4.16976362       8.56291853      -0.00104829       0.00138044       0.00174186
Se       3.03767106       4.16977511       5.26133434      -0.00120702       0.00157899      -0.00203132
Se       4.94377819       1.47395262       8.56291269       0.00111909      -0.00153493       0.00190072
