9
Lattice="5.423848213014639 -3.6720915739025985e-09 3.131460061785286 1.8079494502838391 5.113652845557227 3.131459976208567 2.4466959012540066e-07 6.81979138231931e-08 6.262919699790358" Properties=species:S:1:pos:R:3:forces:R:3 energy=-40.730194091796875 free_energy=-40.730194091796875 stress="-2.7471789962874027e-06 1.0509445758088987e-07 -2.9214509922326215e-08 1.0509445758088987e-07 -2.8277675028220983e-06 3.5424726263499906e-08 -2.9214509922326215e-08 3.5424726263499906e-08 -2.954710907943081e-06" pbc="T T T"
K        1.80794928       1.27841290       3.13145998       0.00000033      -0.00000098       0.00000037
K        5.42384827       3.83523969       9.39438013      -0.00000101      -0.00000039       0.00000060
Te       0.00000002      -0.00000013       0.00000027       0.00000006       0.00000428      -0.00000688
O        1.57264626       1.11202857       6.26291990      -0.00005090      -0.00003600       0.00000020
O        5.65915166       4.00162476       6.26292005       0.00004864       0.00003523      -0.00000040
O        4.63752572       1.11202855       4.49341075       0.00002146      -0.00002980      -0.00003797
O        2.59427243       4.00162467       8.03242908      -0.00002259       0.00003213       0.00003928
O        2.59427239       4.00162447       4.49341021      -0.00001889       0.00002807      -0.00003427
O        4.63752614       1.11202815       8.03242905       0.00002307      -0.00003242       0.00003928
