9
Lattice="6.081986068373181 2.432761560410958e-07 3.511436384021518 2.0273287194692804 5.734150337117144 3.511436729308431 -1.8457571236898596e-07 2.923734592335369e-07 7.022873087737634" Properties=species:S:1:pos:R:3:forces:R:3 energy=-29.631153106689453 free_energy=-29.631153106689453 stress="-8.117851393762976e-05 -5.5801119280829425e-09 8.478856727833772e-09 -5.5801119280829425e-09 -8.100027480395511e-05 1.5797823493812757e-08 8.478856727833772e-09 1.5797823493812757e-08 -8.121686551021412e-05" pbc="T T T"
K        2.02732866       1.43353777       3.51143638      -0.00000006      -0.00000003       0.00000089
K        6.08198602       4.30061343      10.53430961       0.00000000       0.00000027       0.00000027
Te      -0.00000012      -0.00000025       0.00000049       0.00000085       0.00000153      -0.00000307
Se       2.44052645       1.72571505       7.02287335      -0.00172520      -0.00121579      -0.00000038
Se       5.66878907       4.00843605       7.02287345       0.00172329       0.00121367      -0.00000110
Se       4.86172268       1.72571525       5.62499381       0.00086108      -0.00121266      -0.00149301
Se       3.24759202       4.00843493       8.42075205      -0.00086273       0.00121582       0.00149435
Se       3.24759185       4.00843567       5.62499401      -0.00086026       0.00121292      -0.00149369
Se       4.86172182       1.72571565       8.42075168       0.00086288      -0.00121576       0.00149575
