9
Lattice="6.032137311047935 -3.971313270537368e-08 3.4826562664039424 2.0107124719028873 5.687153716821852 3.48265614112675 3.9619558523297886e-08 -1.2541738940983705e-07 6.965312464184906" Properties=species:S:1:pos:R:3:forces:R:3 energy=-30.622106552124023 free_energy=-30.622106552124023 stress="-7.863868813728914e-05 -8.002742646340266e-08 -7.431514514877335e-09 -8.002742646340266e-08 -7.856320007704198e-05 1.0572453135182514e-08 -7.431514514877335e-09 1.0572453135182514e-08 -7.85137017373927e-05" pbc="T T T"
K        2.01071234       1.42178845       3.48265654       0.00000006       0.00000007      -0.00000068
K        6.03213736       4.26536534      10.44796849       0.00000001       0.00000024       0.00000009
Te      -0.00000035       0.00000001      -0.00000009       0.00001412       0.00000064       0.00002048
S        1.95592765       1.38304938       6.96531200      -0.00169927      -0.00120175      -0.00000020
S        6.08692204       4.30410417       6.96531203       0.00168937       0.00119525      -0.00000055
S        5.05417317       1.38305015       5.17654004       0.00085360      -0.00120723      -0.00147796
S        2.98867649       4.30410388       8.75408524      -0.00084984       0.00120145       0.00147235
S        2.98867670       4.30410331       5.17653993      -0.00085539       0.00120926      -0.00148040
S        5.05417382       1.38304959       8.75408526       0.00084740      -0.00119776       0.00146663
