9
Lattice="5.377463982816899 1.4626026287610085e-07 3.104680568646842 1.7924879656356696 5.069922645016678 3.1046808570891042 -3.61751572936765e-07 9.747113948467847e-08 6.209361763865697" Properties=species:S:1:pos:R:3:forces:R:3 energy=-48.67071533203125 free_energy=-48.67071533203125 stress="-1.153713310486637e-05 -1.1593672155640888e-07 -8.383145733148467e-09 -1.1593672155640888e-07 -1.1462962902442086e-05 2.11297024321766e-09 -8.383145733148467e-09 2.11297024321766e-09 -1.1339217053318862e-05" pbc="T T T"
K        1.79248826       1.26748067       3.10468096      -0.00000044       0.00000073       0.00000122
K        5.37746322       3.80244253       9.31404290       0.00000034      -0.00000052       0.00000022
Ti      -0.00000039      -0.00000020      -0.00000044      -0.00000060       0.00001077      -0.00000391
O        1.54750409       1.09425039       6.20936250       0.00033641       0.00023705      -0.00000012
O        5.62244789       3.97567180       6.20936091      -0.00034261      -0.00024241      -0.00000052
O        4.60371256       1.09425092       4.44486008      -0.00016427       0.00023207       0.00028431
O        2.56623981       3.97567147       7.97386349       0.00016701      -0.00023505      -0.00028887
O        2.56623988       3.97567207       4.44485910       0.00016746      -0.00023445       0.00029027
O        4.60371065       1.09425185       7.97386334      -0.00016323       0.00023195      -0.00028226
