9
Lattice="6.3956342579866785 8.425683978855495e-07 3.69251957420843 2.131878332505697 6.029861061781675 3.69252052314835 -1.0184804076540214e-07 1.090192027262229e-06 7.385039324822416" Properties=species:S:1:pos:R:3:forces:R:3 energy=-34.0777473449707 free_energy=-34.0777473449707 stress="-3.73253678844776e-05 8.896329006802262e-08 -8.256436245801524e-08 8.896329006802262e-08 -3.7359248381108046e-05 9.42868751963033e-08 -8.256436245801524e-08 9.42868751963033e-08 -3.742885382962413e-05" pbc="T T T"
K        2.13187842       1.50746602       3.69252006      -0.00000006      -0.00000098      -0.00000039
K        6.39563477       4.52239738      11.07755935       0.00000012      -0.00000015       0.00000032
Ti       0.00000101      -0.00000209      -0.00000585      -0.00000334       0.00000571       0.00001847
Te       2.26882714       1.60430469       7.38503970       0.00084101       0.00059484       0.00000003
Te       6.25868548       4.42555675       7.38504027      -0.00084111      -0.00059150      -0.00000025
Te       5.26121812       1.60430450       5.65738305      -0.00041672       0.00059097       0.00072287
Te       3.26629098       4.42556096       9.11270022       0.00042441      -0.00060105      -0.00073662
Te       3.26629131       4.42556046       5.65738011       0.00042424      -0.00060094       0.00073723
Te       5.26122295       1.60430313       9.11270108      -0.00042841       0.00060315      -0.00074159
