9
Lattice="5.961901378570188 1.0057104858293969e-07 3.442104354101868 1.987300493337212 5.620934379728479 3.442104459766453 1.101135072679541e-07 2.0727416970096686e-07 6.884208517481657" Properties=species:S:1:pos:R:3:forces:R:3 energy=-36.57200622558594 free_energy=-36.57200622558594 stress="-8.576601248933002e-05 6.489192116987397e-08 2.226328454923987e-08 6.489192116987397e-08 -8.579922723583877e-05 5.9125864204645495e-09 2.226328454923987e-08 5.9125864204645495e-09 -8.588260971009731e-05" pbc="T T T"
K        1.98730035       1.40523363       3.44210442       0.00000076      -0.00000042       0.00000155
K        5.96190154       4.21570105      10.32631307      -0.00000011      -0.00000062       0.00000174
Ti      -0.00000037       0.00000062      -0.00000365       0.00000490      -0.00000222       0.00001390
Se       2.02885369       1.43461640       6.88421058       0.00334993       0.00236773      -0.00000032
Se       5.92034924       4.18631858       6.88421002      -0.00335277      -0.00237083      -0.00000151
Se       4.94747570       1.43461414       5.19914234      -0.00167936       0.00237567       0.00290334
Se       3.00172748       4.18631825       8.56927488       0.00167630      -0.00237136      -0.00290848
Se       3.00172571       4.18631999       5.19914290       0.00167912      -0.00237354       0.00290017
Se       4.94747464       1.43461606       8.56927475      -0.00167877       0.00237560      -0.00291041
