9
Lattice="5.382461204239466 -1.8210055419201334e-07 3.107565713733266 1.7941535918439302 5.074633492855303 3.107565663878796 -1.5026807156402884e-07 -1.673145682076772e-07 6.215131687738445" Properties=species:S:1:pos:R:3:forces:R:3 energy=-47.04433059692383 free_energy=-47.04433059692383 stress="-1.224363313667709e-05 -5.98702030174536e-08 2.803216325730773e-08 -5.98702030174536e-08 -1.2216902177897282e-05 -5.578836592690095e-08 2.803216325730773e-08 -5.578836592690095e-08 -1.2225861610204447e-05" pbc="T T T"
K        1.79415395       1.26865855       3.10756528      -0.00000040       0.00000052      -0.00000079
K        5.38246129       3.80597443       9.32269772       0.00000110      -0.00000004      -0.00000098
V        0.00000014       0.00000006      -0.00000087       0.00000301      -0.00000032       0.00000510
O        1.49410059       1.05648792       6.21513234       0.00048554       0.00034285       0.00000065
O        5.68251462       4.01814458       6.21513222      -0.00048858      -0.00034493       0.00000034
O        4.63541075       1.05648840       4.40149423      -0.00024226       0.00034273       0.00041974
O        2.54120378       4.01814439       8.02876815       0.00024384      -0.00034392      -0.00042176
O        2.54120316       4.01814473       4.40149431       0.00023979      -0.00033832       0.00041652
O        4.63541046       1.05648860       8.02876836      -0.00024202       0.00034165      -0.00041807
