9
Lattice="5.911397650995466 3.613881568320097e-07 3.4129465612726153 1.9704661223313304 5.57331922089857 3.412946738035181 -2.8387655692011296e-07 1.575790382172663e-08 6.8258936142337445" Properties=species:S:1:pos:R:3:forces:R:3 energy=-36.31072235107422 free_energy=-36.31072235107422 stress="-0.00022967641416471452 -2.206253135739189e-08 -1.2099330426451615e-08 -2.206253135739189e-08 -0.0002296719903824851 1.4440530549109099e-08 -1.2099330426451615e-08 1.4440530549109099e-08 -0.00022961257491260767" pbc="T T T"
K        1.97046587       1.39332982       3.41294691      -0.00000147      -0.00000259      -0.00000048
K        5.91139765       4.17998954      10.23884012      -0.00000061      -0.00000046      -0.00000041
V        0.00000081       0.00000165      -0.00000032       0.00000206       0.00000355      -0.00000122
Se       1.97671251       1.39774706       6.82589361       0.00429115       0.00303365      -0.00000014
Se       5.90515272       4.17557227       6.82589386      -0.00429195      -0.00303559       0.00000067
Se       4.92304045       1.39774730       5.12482981      -0.00214466       0.00303327       0.00371569
Se       2.95882190       4.17557111       8.52695741       0.00214441      -0.00303133      -0.00371617
Se       2.95882206       4.17557253       5.12482903       0.00214605      -0.00303462       0.00371739
Se       4.92304021       1.39774712       8.52695681      -0.00214492       0.00303411      -0.00371543
