9
Lattice="5.683847587878671 1.2198246409558698e-08 3.2815710639015396 1.894616050020516 5.358783054417696 3.28157075924484 -2.8680308238231643e-07 -5.759270058843794e-07 6.563142624560816" Properties=species:S:1:pos:R:3:forces:R:3 energy=-39.42234802246094 free_energy=-39.42234802246094 stress="-3.598381590563804e-05 5.0612822377615885e-08 1.2585308795109995e-08 5.0612822377615885e-08 -3.600066702347249e-05 6.9404189062538535e-09 1.2585308795109995e-08 6.9404189062538535e-09 -3.6073761293664575e-05" pbc="T T T"
K        1.89461583       1.33969539       3.28157073      -0.00000007      -0.00000150      -0.00000168
K        5.68384744       4.01908647       9.84471348       0.00000084      -0.00000113      -0.00000143
V       -0.00000003       0.00000277      -0.00000064      -0.00000069       0.00000581       0.00003146
S        1.83472814       1.29734671       6.56314243       0.00089169       0.00062984       0.00000324
S        5.74373809       4.06143478       6.56314184      -0.00088978      -0.00062960       0.00000343
S        4.76648129       1.29734846       4.87049198      -0.00044146       0.00062335       0.00076681
S        2.81197790       4.06143643       8.25579463       0.00045294      -0.00064331      -0.00078362
S        2.81197976       4.06143374       4.87048963       0.00044027      -0.00062412       0.00076479
S        4.76648435       1.29734554       8.25579259      -0.00045368       0.00064015      -0.00078297
