9
Lattice="6.325776085471132 -1.7536673728176965e-07 3.6521801371509643 2.108590070452405 5.964010914877437 3.652183242166769 1.7468894781251758e-07 3.926398103262901e-06 7.304359971718934" Properties=species:S:1:pos:R:3:forces:R:3 energy=-33.635765075683594 free_energy=-33.635765075683594 stress="-0.0003019590221811086 -1.666360276431078e-07 -4.527597496917224e-08 -1.666360276431078e-07 -0.00030214720754884183 -1.8285250291683042e-07 -4.527597496917224e-08 -1.8285250291683042e-07 -0.000302188447676599" pbc="T T T"
K        2.10859291       1.49100341       3.65217254      -0.00001559      -0.00000391       0.00002080
K        6.32577414       4.47300991      10.95656214       0.00001228       0.00000209       0.00000630
V       -0.00000087      -0.00000101      -0.00003624      -0.00000059      -0.00000021       0.00001864
Te       2.25499341       1.59451744       7.30437167       0.00632866       0.00447964      -0.00004601
Te       6.17938093       4.36950541       7.30439894      -0.00634790      -0.00449958      -0.00005131
Te       5.19828695       1.59451504       5.60503832      -0.00319458       0.00451640       0.00551762
Te       3.23609993       4.36948496       9.00367223       0.00314479      -0.00442971      -0.00548884
Te       3.23607805       4.36948625       5.60504533       0.00319457      -0.00450447       0.00550566
Te       5.19826848       1.59453338       9.00366493      -0.00312168       0.00443984      -0.00548302
