9
Lattice="5.502460873370424 -1.9152073553719515e-08 3.176847009094876 1.8341535870385006 5.187769736815696 3.176847042630024 5.334329622012712e-08 7.879145447367157e-08 6.353693925796409" Properties=species:S:1:pos:R:3:forces:R:3 energy=-48.84278869628906 free_energy=-48.84278869628906 stress="-1.8482160157873295e-05 2.839714454694331e-07 1.109309533120495e-08 2.839714454694331e-07 -1.856708331615664e-05 1.2359932632932669e-08 1.109309533120495e-08 1.2359932632932669e-08 -1.882308060885407e-05" pbc="T T T"
K        1.83415358       1.29694204       3.17684744      -0.00000056       0.00000011       0.00000056
K        5.50246082       3.89082801       9.53054107       0.00000057      -0.00000058       0.00000103
W        0.00000036      -0.00000060      -0.00000062      -0.00001239       0.00000707       0.00002221
O        1.53802683       1.08755021       6.35369503       0.00094396       0.00066727       0.00000037
O        5.79858713       4.10021996       6.35369425      -0.00093770      -0.00065947       0.00000261
O        4.73344797       1.08754925       4.50881750      -0.00047895       0.00067180       0.00082320
O        2.60316688       4.10022048       8.19857014       0.00049102      -0.00069088      -0.00084591
O        2.60316710       4.10022067       4.50881788       0.00047964      -0.00067836       0.00083143
O        4.73344743       1.08754904       8.19857009      -0.00048566       0.00068325      -0.00083554
