9
Lattice="5.937772360614683 -1.2416187613939356e-07 3.4281743970133145 1.979257469691346 5.598185352094087 3.4281741662798395 2.507714955522127e-07 -1.0526724692638293e-07 6.856348359677541" Properties=species:S:1:pos:R:3:forces:R:3 energy=-44.48590087890625 free_energy=-44.48590087890625 stress="-5.2074319683015347e-05 -9.22260170455047e-08 7.514376676454049e-09 -9.22260170455047e-08 -5.201010571909137e-05 -2.4338447701666155e-08 7.514376676454049e-09 -2.4338447701666155e-08 -5.1935898227384314e-05" pbc="T T T"
K        1.97925779       1.39954615       3.42817430      -0.00000009       0.00000044       0.00000044
K        5.93777257       4.19863912      10.28452309      -0.00000009       0.00000002       0.00000026
W        0.00000012      -0.00000031      -0.00000125      -0.00000507      -0.00000176       0.00000636
S        1.84597319       1.30529991       6.85634894      -0.00019673      -0.00013887      -0.00000084
S        6.07105613       4.29288566       6.85634885       0.00020258       0.00014225       0.00000072
S        5.01478614       1.30529968       5.02683457       0.00010395      -0.00014821      -0.00018208
S        2.90224448       4.29288428       8.68586254      -0.00010262       0.00014492       0.00017800
S        2.90224425       4.29288527       5.02683436      -0.00010571       0.00014839      -0.00018351
S        5.01478587       1.30530071       8.68586253       0.00010393      -0.00014713       0.00018049
