9
Lattice="6.263095811487784 8.474698910568634e-07 3.6159994783758633 2.0876991149714943 5.904902422758379 3.615999976964372 -2.558593526253458e-07 4.297237042981013e-07 7.231999399913035" Properties=species:S:1:pos:R:3:forces:R:3 energy=-40.74523162841797 free_energy=-40.74523162841797 stress="-2.8092923457734287e-05 3.124102647689142e-07 -1.0936219752011311e-07 3.124102647689142e-07 -2.8322212529019453e-05 1.5129288044590794e-07 -1.0936219752011311e-07 1.5129288044590794e-07 -2.851738827303052e-05" pbc="T T T"
K        2.08769877       1.47622562       3.61599964      -0.00000042      -0.00000021       0.00000005
K        6.26309606       4.42867807      10.84799877       0.00000000       0.00000018       0.00000071
W        0.00000095      -0.00000022      -0.00000117      -0.00000731       0.00000723       0.00002354
Se       1.93751783       1.37003290       7.23199879       0.00057840       0.00040828       0.00000070
Se       6.41327759       4.53487147       7.23200014      -0.00057642      -0.00040700      -0.00000047
Se       5.29433760       1.37003185       5.29393704      -0.00029378       0.00041540       0.00051020
Se       3.05645639       4.53487148       9.17006260       0.00030452      -0.00043029      -0.00052811
Se       3.05645510       4.53487214       5.29393616       0.00030598      -0.00043197       0.00053126
Se       5.29433808       1.37003144       9.17006360      -0.00031095       0.00043833      -0.00053795
