9
Lattice="6.099470567187497 4.3931399874284565e-07 3.5215305621551205 2.0331572878324775 5.750636453897187 3.5215305311269747 4.454088218049649e-08 -6.506401263425688e-09 7.043061047163197" Properties=species:S:1:pos:R:3:forces:R:3 energy=-37.1281852722168 free_energy=-37.1281852722168 stress="-0.00023744325153529644 5.1608083140308736e-08 5.206975295379834e-09 5.1608083140308736e-08 -0.00023753529239911586 -7.2960726349435845e-09 5.206975295379834e-09 -7.2960726349435845e-09 -0.0002375481417402625" pbc="T T T"
K        2.03315703       1.43765927       3.52153053       0.00000003       0.00000053       0.00000052
K        6.09947085       4.31297761      10.56459157       0.00000163      -0.00000180       0.00000123
Zr       0.00000003      -0.00000077      -0.00000147       0.00000055       0.00000511       0.00000577
Se       2.19355338       1.55107571       7.04306128      -0.00666619      -0.00471272      -0.00000155
Se       5.93907526       4.19956142       7.04306144       0.00666331       0.00471133      -0.00000084
Se       5.00269413       1.55107541       5.42120198       0.00333144      -0.00470981      -0.00577000
Se       3.12993346       4.19956185       8.66492126      -0.00333022       0.00470801       0.00576603
Se       3.12993336       4.19956140       5.42120193      -0.00333039       0.00470946      -0.00576836
Se       5.00269419       1.55107561       8.66492007       0.00332987      -0.00471020       0.00576747
