9
Lattice="5.187051356606873 -1.2410139574408484e-07 2.994745543021811 1.729016951677659 4.890398967865665 2.9947456299489845 2.2114616598364333e-08 1.221010249042841e-07 5.989491047739982" Properties=species:S:1:pos:R:3:forces:R:3 energy=-48.433349609375 free_energy=-48.433349609375 stress="2.673117160156835e-05 -2.4239423623839684e-07 1.6452746720574396e-08 -2.4239423623839684e-07 2.6915497073787265e-05 -9.937606293419776e-09 1.6452746720574396e-08 -9.937606293419776e-09 2.704765574890189e-05" pbc="T T T"
K        1.72901721       1.22259965       2.99474571       0.00000004       0.00000012       0.00000013
K        5.18705118       3.66779937       8.98423664       0.00000014      -0.00000060       0.00000114
Zr      -0.00000012      -0.00000037       0.00000056       0.00000102       0.00000852      -0.00000682
O        1.69169522       1.19620921       5.98949105       0.00032711       0.00023174      -0.00000075
O        5.22437384       3.69418986       5.98949105      -0.00033349      -0.00023511      -0.00000061
O        4.34120314       1.19620956       4.45979717      -0.00015897       0.00022507       0.00027418
O        2.57486504       3.69418910       7.51918522       0.00015846      -0.00022328      -0.00027508
O        2.57486475       3.69418940       4.45979688       0.00016120      -0.00022715       0.00027889
O        4.34120314       1.19621013       7.51918466      -0.00015530       0.00022101      -0.00027084
