9
Lattice="5.468437163976622 1.6574532105177913e-07 3.1572037704917477 1.8228124808380128 5.15569207500277 3.1572038803391416 -1.0853218657430177e-08 1.268606386263323e-07 6.314407559781737" Properties=species:S:1:pos:R:3:forces:R:3 energy=-35.79625701904297 free_energy=-35.79625701904297 stress="7.08961088093929e-05 -4.4993577752450165e-09 -3.243560442456328e-08 -4.4993577752450165e-09 7.089191058184952e-05 3.280603877442445e-08 -3.243560442456328e-08 3.280603877442445e-08 7.089038263075054e-05" pbc="T T T"
Li       1.82281212       1.28892323       3.15720393      -0.00000021       0.00000058       0.00000059
Li       5.46843770       3.86676966       9.47161185       0.00000037      -0.00000007       0.00000047
Cr       0.00000010      -0.00000060      -0.00000059      -0.00000184       0.00000341       0.00000394
Se       1.97266386       1.39488410       6.31440743       0.00777502       0.00549790       0.00000020
Se       5.31858580       3.76080795       6.31440749      -0.00777503      -0.00549815      -0.00000016
Se       4.48210496       1.39488463       4.86558147      -0.00388592       0.00549519       0.00673129
Se       2.80914417       3.76080824       7.76323414       0.00388849      -0.00550039      -0.00673576
Se       2.80914425       3.76080806       4.86558075       0.00388776      -0.00549815       0.00673420
Se       4.48210555       1.39488418       7.76323446      -0.00388862       0.00549968      -0.00673480
