9
Lattice="6.034764715054538 -1.5161397437758805e-06 3.484174401679478 2.0115872760143465 5.689629885006538 3.4841735926504884 3.826513137381153e-08 -9.637966005692247e-07 6.968348737082016" Properties=species:S:1:pos:R:3:forces:R:3 energy=-31.644611358642578 free_energy=-31.644611358642578 stress="-0.00026696835993789136 -2.7269987157296782e-08 6.2785829868516885e-09 -2.7269987157296782e-08 -0.00026695994893088937 7.059927309427394e-09 6.2785829868516885e-09 7.059927309427394e-09 -0.00026697199791669846" pbc="T T T"
Li       2.01158864       1.42240759       3.48417420       0.00000031       0.00000210       0.00000049
Li       6.03476389       4.26721976      10.45252214       0.00000021      -0.00000043       0.00000067
Co      -0.00000061       0.00000122       0.00000132       0.00000814      -0.00000244      -0.00000243
Te       2.01144901       1.42230632       6.96834733       0.00088982       0.00062740      -0.00000053
Te       6.03490616       4.26732035       6.96834682      -0.00089085      -0.00063085      -0.00000069
Te       5.02904013       1.42230828       5.22614062      -0.00044549       0.00062982       0.00077031
Te       3.01730974       4.26732019       8.71055764       0.00044144      -0.00062753      -0.00076661
Te       3.01730981       4.26731970       5.22613921       0.00044107      -0.00062721       0.00076770
Te       5.02904147       1.42230579       8.71055753      -0.00044467       0.00062919      -0.00076896
