9
Lattice="4.591934850825201 6.315643397413066e-09 2.651154837719064 1.5306449485078206 4.329317743447327 2.6511548510934273 -3.2063630767248596e-09 1.4112942298739873e-08 5.302309680991711" Properties=species:S:1:pos:R:3:forces:R:3 energy=-45.402099609375 free_energy=-45.402099609375 stress="0.00033511072979308665 -9.194547345714454e-09 2.247979402625333e-08 -9.194547345714454e-09 0.0003351556370034814 5.1548521895483645e-08 2.247979402625333e-08 5.1548521895483645e-08 0.0003351526102051139" pbc="T T T"
Li       1.53064497       1.08232940       2.65115487      -0.00000003      -0.00000021       0.00000015
Li       4.59193487       3.24698834       7.95346454      -0.00000011       0.00000010       0.00000030
Cr      -0.00000004       0.00000010       0.00000001      -0.00000006       0.00000155       0.00000119
O        1.46102623       1.03310161       5.30230965       0.00048196       0.00034174       0.00000081
O        4.66155361       3.29621612       5.30230970      -0.00048161      -0.00033960       0.00000018
O        3.86142168       1.03310156       3.91644067      -0.00024021       0.00033909       0.00041479
O        2.26115802       3.29621617       6.68817867       0.00024191      -0.00034195      -0.00041711
O        2.26115806       3.29621619       3.91644068       0.00024053      -0.00034133       0.00041664
O        3.86142179       1.03310158       6.68817871      -0.00024253       0.00034091      -0.00041711
