9
Lattice="5.538916162695179 -1.206762459206943e-07 3.1978945594104355 1.8463053102756808 5.222140000777951 3.1978944962159974 -2.1263649967187706e-08 -9.243273735888269e-08 6.395789155650606" Properties=species:S:1:pos:R:3:forces:R:3 energy=-33.43368911743164 free_energy=-33.43368911743164 stress="-7.64235755923437e-06 1.2127054027644135e-08 -1.226669255061097e-08 1.2127054027644135e-08 -7.613602065248415e-06 7.1560255499036884e-09 -1.226669255061097e-08 7.1560255499036884e-09 -7.636860573256854e-06" pbc="T T T"
Li       1.84630550       1.30553515       3.19789452      -0.00000019       0.00000081       0.00000002
Li       5.53891613       3.91660474       9.59368349       0.00000028      -0.00000007      -0.00000075
Co      -0.00000022      -0.00000010       0.00000057       0.00000076       0.00000006      -0.00000143
Se       1.87978067       1.32920579       6.39578918       0.00841163       0.00594766       0.00000022
Se       5.50544055       3.89293392       6.39578910      -0.00841135      -0.00594783       0.00000042
Se       4.59902580       1.32920576       4.82583260      -0.00420639       0.00594801       0.00728507
Se       2.78619607       3.89293384       7.96574561       0.00420538      -0.00594747      -0.00728399
Se       2.78619576       3.89293407       4.82583220       0.00420558      -0.00594856       0.00728516
Se       4.59902558       1.32920594       7.96574542      -0.00420559       0.00594725      -0.00728445
