9
Lattice="5.1858214476763 -5.36511837588831e-08 2.994035518299089 1.7286070923598054 4.889238864263633 2.9940355291812724 -5.2216771390487675e-08 -2.3594994491304016e-08 5.9880711270403175" Properties=species:S:1:pos:R:3:forces:R:3 energy=-38.5451545715332 free_energy=-38.5451545715332 stress="-0.000507343269418925 -6.989046852368119e-08 -1.1132879507158577e-08 -6.989046852368119e-08 -0.0005071712075732648 2.5259996316862043e-09 -1.1132879507158577e-08 2.5259996316862043e-09 -0.0005072018248029053" pbc="T T T"
Li       1.72860694       1.22230974       2.99403579      -0.00000055      -0.00000062       0.00000009
Li       5.18582156       3.66692884       8.98210680      -0.00000005      -0.00000134       0.00000119
Cr      -0.00000028      -0.00000132       0.00000125       0.00000226       0.00000700      -0.00001826
S        1.77711645       1.25661147       5.98807070       0.00468886       0.00331795      -0.00000536
S        5.13731180       3.63262748       5.98807040      -0.00469619      -0.00332126      -0.00000633
S        4.29726306       1.25661121       4.53306395      -0.00234896       0.00332391       0.00406632
S        2.61716630       3.63262707       7.44307746       0.00234175      -0.00331089      -0.00405735
S        2.61716551       3.63262839       4.53306427       0.00235163      -0.00332448       0.00407180
S        4.29726278       1.25661234       7.44307820      -0.00233890       0.00330961      -0.00405204
