9
Lattice="5.203079265986912 1.1077546666146719e-07 3.0039992430905076 1.7343598188549831 4.905510194254022 3.0039993139559504 -6.70901333272532e-09 8.204807150392302e-08 6.007998497801442" Properties=species:S:1:pos:R:3:forces:R:3 energy=-36.29578399658203 free_energy=-36.29578399658203 stress="-1.774994598235935e-05 2.7639849520255666e-08 1.2933229598388607e-08 2.7639849520255666e-08 -1.781124410626944e-05 -6.295322485527777e-09 1.2933229598388607e-08 -6.295322485527777e-09 -1.778828118403908e-05" pbc="T T T"
Li       1.73435988       1.22637822       3.00399937      -0.00000013       0.00000179       0.00000024
Li       5.20307945       3.67913266       9.01199725       0.00000005      -0.00000034      -0.00000134
Co       0.00000019      -0.00000005       0.00000020       0.00000062      -0.00000040       0.00000480
S        1.75044355       1.23775066       6.00799845      -0.00034130      -0.00024098      -0.00000037
S        5.18699561       3.66775966       6.00799874       0.00034156       0.00024024       0.00000110
S        4.32785733       1.23775054       4.51992790       0.00017011      -0.00024110      -0.00029528
S        2.60958128       3.66775971       7.49606942      -0.00016926       0.00023848       0.00029349
S        2.60958124       3.66775942       4.51992777      -0.00017163       0.00024050      -0.00029612
S        4.32785781       1.23775079       7.49606920       0.00016989      -0.00023842       0.00029337
