9
Lattice="4.069377136588996 4.288140689525848e-08 2.3494562924877753 1.356459066912863 3.8366454756482726 2.3494563254760563 1.6533665374243174e-08 5.2093292280927625e-08 4.698912556338447" Properties=species:S:1:pos:R:3:forces:R:3 energy=-45.65294647216797 free_energy=-45.65294647216797 stress="-1.3794322512694634e-05 -1.326244927213338e-07 -1.0779064751886835e-08 -1.326244927213338e-07 -1.3680479241884314e-05 -5.973551253646292e-08 -1.0779064751886835e-08 -5.973551253646292e-08 -1.407327363267541e-05" pbc="T T T"
Li       1.35645906       0.95916129       2.34945619       0.00000028       0.00000025      -0.00000008
Li       4.06937720       2.87748438       7.04836932       0.00000046       0.00000091       0.00000117
C        0.00000007      -0.00000020      -0.00000033       0.00000380       0.00000191       0.00000252
O        1.22070690       0.86317039       4.69891248      -0.00001115      -0.00000507      -0.00000327
O        4.20512945       2.97347527       4.69891279      -0.00000662      -0.00000390       0.00000634
O        3.45902378       0.86317021       3.40661938       0.00000539      -0.00000682      -0.00000042
O        1.96681240       2.97347545       5.99120576       0.00000811       0.00000101      -0.00000882
O        1.96681303       2.97347531       3.40661912      -0.00000399       0.00000814       0.00000203
O        3.45902326       0.86316990       5.99120583       0.00000468       0.00000420       0.00000137
