9
Lattice="4.358268329677241 -2.5290366079274887e-07 2.5162475559819804 1.4527559671713808 4.109014159346751 2.5162473901920377 5.6941347776072036e-08 -1.6278668005064285e-07 5.03249501333867" Properties=species:S:1:pos:R:3:forces:R:3 energy=-42.41469192504883 free_energy=-42.41469192504883 stress="-2.3574168153572828e-05 -1.343333053682727e-07 -4.284940047227792e-08 -1.343333053682727e-07 -2.379124089202378e-05 1.765289781019419e-08 -4.284940047227792e-08 1.765289781019419e-08 -2.348748967051506e-05" pbc="T T T"
Li       1.45275593       1.02725324       2.51624778       0.00000016      -0.00000089      -0.00000019
Li       4.35826819       3.08176043       7.54874252      -0.00000014       0.00000098      -0.00000020
Fe      -0.00000009       0.00000001      -0.00000001       0.00000609       0.00000001       0.00000723
O        1.50523944       1.06436386       5.03249490      -0.00117144      -0.00082785       0.00000014
O        4.30578503       3.04464962       5.03249510       0.00116794       0.00082514      -0.00000047
O        3.60564883       1.06436429       3.81982274       0.00058665      -0.00082955      -0.00101646
O        2.20537546       3.04464947       6.24516709      -0.00058642       0.00082789       0.00101420
O        2.20537534       3.04464952       3.81982267      -0.00058683       0.00082857      -0.00101515
O        3.60564926       1.06436412       6.24516707       0.00058411      -0.00082395       0.00101057
