9
Lattice="6.245500478835892 -3.0650424444411105e-08 3.605841284912105 2.081833228662323 5.8883149577267355 3.6058416926120658 -2.9590117698486996e-07 2.9009442564581274e-07 7.211683082340394" Properties=species:S:1:pos:R:3:forces:R:3 energy=-33.36895751953125 free_energy=-33.36895751953125 stress="-1.7055448552127928e-05 1.4524480285160735e-08 -5.265196278969597e-08 1.4524480285160735e-08 -1.6977939594653435e-05 6.378395767114853e-08 -5.265196278969597e-08 6.378395767114853e-08 -1.702108966128435e-05" pbc="T T T"
Li       2.08183282       1.47207830       3.60584167      -0.00000015      -0.00000164       0.00000021
Li       6.24549983       4.41623634      10.81752532      -0.00000084       0.00000050       0.00000052
Fe      -0.00000037       0.00000055       0.00000030       0.00000005      -0.00001821      -0.00000036
Te       1.95068065       1.37933983       7.21168298       0.00049712       0.00035092      -0.00000022
Te       6.37665082       4.50897535       7.21168215      -0.00049297      -0.00034548      -0.00000111
Te       5.27015983       1.37934013       5.29518105      -0.00024739       0.00035046       0.00042871
Te       3.05717500       4.50897584       9.12818464       0.00024487      -0.00034131      -0.00042161
Te       3.05717529       4.50897547       5.29518091       0.00024953      -0.00034867       0.00042839
Te       5.27015980       1.37933902       9.12818532      -0.00025021       0.00035343      -0.00043457
