9
Lattice="5.293525515252378 -2.731892327427987e-07 3.0562184508310866 1.7645083816781286 4.990783139168736 3.0562182184604536 1.2822865780164225e-07 -1.9392347642685446e-07 6.112436679563608" Properties=species:S:1:pos:R:3:forces:R:3 energy=-37.90794372558594 free_energy=-37.90794372558594 stress="5.557307304115966e-05 -1.714235935423858e-07 5.669483726933322e-08 -1.714235935423858e-07 5.573478483711369e-05 -8.280285612727312e-08 5.669483726933322e-08 -8.280285612727312e-08 5.584879545494914e-05" pbc="T T T"
Li       1.76450838       1.24769584       3.05621824      -0.00000078       0.00000003       0.00000026
Li       5.29352542       3.74308681       9.16865464      -0.00000013       0.00000030      -0.00000045
Fe      -0.00000037      -0.00000023      -0.00000005       0.00001267       0.00000605       0.00000345
S        1.76685032       1.24935138       6.11243651      -0.00092512      -0.00065333       0.00000045
S        5.29118452       3.74143167       6.11243648       0.00091147       0.00064313       0.00000066
S        4.41010025       1.24935134       4.58635618       0.00046527      -0.00065565      -0.00080240
S        2.64793339       3.74143136       7.63851802      -0.00046167       0.00065362       0.00080132
S        2.64793384       3.74143071       4.58635612      -0.00046730       0.00066197      -0.00080895
S        4.41010049       1.24935157       7.63851736       0.00046557      -0.00065613       0.00080591
