9
Lattice="5.682312489629742 -1.3163953286605265e-07 3.2806848229733827 1.8941041511071315 5.3573352630128195 3.2806846289695653 1.6848511957307086e-07 -1.1846820800535429e-07 6.561369354121988" Properties=species:S:1:pos:R:3:forces:R:3 energy=-35.82735061645508 free_energy=-35.82735061645508 stress="-7.879583790781908e-06 -7.414991642917812e-08 9.305713533080961e-09 -7.414991642917812e-08 -7.817612640792504e-06 -4.742619186259844e-09 9.305713533080961e-09 -4.742619186259844e-09 -7.756201739539392e-06" pbc="T T T"
Li       1.89410413       1.33933371       3.28068483      -0.00000053      -0.00000062       0.00000070
Li       5.68231227       4.01800138       9.84205404      -0.00000028       0.00000059       0.00000035
Fe       0.00000017      -0.00000024      -0.00000003       0.00000357       0.00000809      -0.00000170
Se       1.85501767       1.31169506       6.56136944      -0.00001281      -0.00000927       0.00000060
Se       5.72139922       4.04564009       6.56136959       0.00000712       0.00000492      -0.00000044
Se       4.75480383       1.31169528       4.88717710       0.00000803      -0.00001130      -0.00001341
Se       2.82161312       4.04563983       8.23556155      -0.00000690       0.00001007       0.00001204
Se       2.82161303       4.04563972       4.88717703      -0.00000691       0.00001010      -0.00001305
Se       4.75480401       1.31169513       8.23556170       0.00000870      -0.00001284       0.00001472
