9
Lattice="6.346202299293349 1.9827778045855164e-08 3.663981573064593 2.1154008056845455 5.98325680026408 3.6639815374542444 -3.910302084221029e-08 -7.126359862597115e-08 7.327963213857656" Properties=species:S:1:pos:R:3:forces:R:3 energy=-28.130355834960938 free_energy=-28.130355834960938 stress="-6.318657688098028e-05 7.961400427802801e-10 5.847531792113614e-09 7.961400427802801e-10 -6.32004885119386e-05 1.1103762354025548e-09 5.847531792113614e-09 1.1103762354025548e-09 -6.319704698398709e-05" pbc="T T T"
Li       2.11540070       1.49581412       3.66398159       0.00000023      -0.00000003       0.00000019
Li       6.34620225       4.48744281      10.99194471      -0.00000015       0.00000046      -0.00000031
Ge       0.00000079      -0.00000052      -0.00000043      -0.00000183       0.00000048      -0.00000040
Te       2.30987509       1.63332791       7.32796309      -0.00105673      -0.00074746      -0.00000010
Te       6.15172789       4.34992851       7.32796299       0.00105700       0.00074793       0.00000039
Te       5.19126460       1.63332838       5.66439232       0.00052910      -0.00074832      -0.00091590
Te       3.27033804       4.34992894       8.99153496      -0.00052740       0.00074670       0.00091486
Te       3.27033818       4.34992876       5.66439177      -0.00052858       0.00074807      -0.00091462
Te       5.19126471       1.63332809       8.99153418       0.00052827      -0.00074781       0.00091594
