9
Lattice="5.596125588640823 9.887400632353105e-08 3.2309244443964853 1.8653752427325891 5.276078212866241 3.230924525283848 -7.330681904783027e-08 4.7230668478296306e-08 6.461849015763929" Properties=species:S:1:pos:R:3:forces:R:3 energy=-30.31265640258789 free_energy=-30.31265640258789 stress="6.522763578686863e-05 6.610240355087171e-09 1.035926988635083e-08 6.610240355087171e-09 6.526313518406823e-05 1.0720775378558756e-09 1.035926988635083e-08 1.0720775378558756e-09 6.525627395603806e-05" pbc="T T T"
Li       1.86537531       1.31902020       3.23092452       0.00000020       0.00000084      -0.00000002
Li       5.59612556       3.95705813       9.69277337       0.00000055      -0.00000033       0.00000005
Ge      -0.00000015       0.00000017      -0.00000020      -0.00000108      -0.00000100      -0.00000071
Se       2.11701944       1.49695958       6.46184904       0.00054455       0.00038517       0.00000034
Se       5.34448145       3.77911923       6.46184902      -0.00054571      -0.00038615      -0.00000005
Se       4.53761570       1.49695908       5.06431722      -0.00027229       0.00038652       0.00047256
Se       2.92388480       3.77911898       7.85938082       0.00027287      -0.00038567      -0.00047147
Se       2.92388505       3.77911899       5.06431725       0.00027339      -0.00038548       0.00047173
Se       4.53761583       1.49695913       7.85938091      -0.00027241       0.00038618      -0.00047234
