9
Lattice="4.383537062098074 -4.225199840310083e-08 2.5308360069906715 1.461179034274294 4.132838045206397 2.5308359144809605 6.078258825216994e-08 -7.032101912782954e-08 5.061671908702812" Properties=species:S:1:pos:R:3:forces:R:3 energy=-41.242069244384766 free_energy=-41.242069244384766 stress="0.000684828613884747 1.0468457212198246e-08 6.332585655854928e-08 1.0468457212198246e-08 0.0006846470641903579 -5.0009084873181564e-08 6.332585655854928e-08 -5.0009084873181564e-08 0.0006846318719908595" pbc="T T T"
Li       1.46117918       1.03320988       2.53083581       0.00000065       0.00000097      -0.00000025
Li       4.38353700       3.09962815       7.59250811      -0.00000062      -0.00000030       0.00000075
Ge       0.00000000      -0.00000015       0.00000003      -0.00000103       0.00000176       0.00000482
O        1.53517217       1.08553058       5.06167192       0.00258714       0.00183082      -0.00000020
O        4.30954394       3.04730720       5.06167191      -0.00258780      -0.00182968       0.00000067
O        3.61595098       1.08553070       3.86033393      -0.00129279       0.00182766       0.00224000
O        2.22876516       3.04730731       6.26300993       0.00129443      -0.00183129      -0.00224388
O        2.22876543       3.04730736       3.86033370       0.00129312      -0.00182962       0.00224066
O        3.61595077       1.08553058       6.26300995      -0.00129318       0.00182956      -0.00224209
