9
Lattice="5.537209734862306 1.261803859617485e-07 3.196909428968289 1.8457367011507093 5.220530310561692 3.1969094222145142 6.613161557123601e-08 3.849050494976737e-08 6.3938187433933" Properties=species:S:1:pos:R:3:forces:R:3 energy=-31.40140151977539 free_energy=-31.40140151977539 stress="-3.175402753186063e-06 -6.426143528415196e-08 -3.213486010622546e-08 -6.426143528415196e-08 -2.966551164718112e-06 4.3487510481554636e-08 -3.213486010622546e-08 4.3487510481554636e-08 -3.118806034763111e-06" pbc="T T T"
Li       1.84573731       1.30513376       3.19690907       0.00000250       0.00000625      -0.00000051
Li       5.53720918       3.91539702       9.59072838      -0.00000263      -0.00000511       0.00000017
Ge       0.00000013      -0.00000069      -0.00000055       0.00000002       0.00001166       0.00000369
S        1.89478015       1.33981198       6.39381800      -0.00657064      -0.00464368      -0.00000405
S        5.48816695       3.88071809       6.39381821       0.00656563       0.00463605      -0.00000338
S        4.58982027       1.33981357       4.83783728       0.00329080      -0.00464255      -0.00569540
S        2.79312735       3.88071743       7.94980147      -0.00328049       0.00463879       0.00568992
S        2.79312582       3.88071772       4.83783676      -0.00328708       0.00463843      -0.00568604
S        4.58981887       1.33981307       7.94980199       0.00328198      -0.00463986       0.00569570
