9
Lattice="5.816117698369457 -1.067302427003906e-06 3.3579367651497964 1.938704956018153 5.483488965836168 3.357936656335249 -1.340537844969181e-07 -2.2806049202796517e-07 6.715873762487492" Properties=species:S:1:pos:R:3:forces:R:3 energy=-37.14028549194336 free_energy=-37.14028549194336 stress="0.0001626475714147091 1.027574327849834e-07 5.169639649693636e-08 1.027574327849834e-07 0.0001626256707822904 -2.996374348640529e-08 5.169639649693636e-08 -2.996374348640529e-08 0.00016270678315777332" pbc="T T T"
Li       1.93870462       1.37087196       3.35793726      -0.00000428      -0.00000094       0.00000035
Li       5.81611255       4.11261137      10.07380927      -0.00000742      -0.00000855      -0.00000165
Hf       0.00000096       0.00000112      -0.00000086      -0.00000045      -0.00000366       0.00000553
Se       2.12945982       1.50575687       6.71587459       0.00514945       0.00364723       0.00000001
Se       5.62535959       3.97773165       6.71587350      -0.00515760      -0.00364259      -0.00000006
Se       4.75138933       1.50575567       5.20210402      -0.00257179       0.00364707       0.00446257
Se       3.00343677       3.97773241       8.22964306       0.00258129      -0.00364403      -0.00446521
Se       3.00343734       3.97773182       5.20210426       0.00258065      -0.00364313       0.00445906
Se       4.75138913       1.50575774       8.22964339      -0.00256978       0.00364860      -0.00446058
