9
Lattice="4.5913598375324 -5.715026975602699e-08 2.650822909873904 1.530453216677863 4.3287755618463 2.6508229248003734 -2.0409360148464474e-08 3.849571837260073e-09 5.301645855097797" Properties=species:S:1:pos:R:3:forces:R:3 energy=-50.61672592163086 free_energy=-50.61672592163086 stress="-6.108290835982189e-05 -3.1610426276529324e-08 -3.791840086364573e-08 -3.1610426276529324e-08 -6.109778769314289e-05 -6.049614853509411e-08 -3.791840086364573e-08 -6.049614853509411e-08 -6.100285463617183e-05" pbc="T T T"
Li       1.53045311       1.08219401       2.65082286      -0.00000092      -0.00000008      -0.00000008
Li       4.59135977       3.24658149       7.95246866       0.00000017      -0.00000069       0.00000018
Hf      -0.00000017      -0.00000082      -0.00000004       0.00000156       0.00000242      -0.00000019
O        1.67845891       1.18684948       5.30164574      -0.00057316      -0.00040504      -0.00000001
O        4.44335476       3.14192614       5.30164593       0.00057304       0.00040469      -0.00000024
O        3.75213048       1.18684959       4.10441083       0.00028598      -0.00040436      -0.00049603
O        2.36968228       3.14192616       6.49888119      -0.00028655       0.00040370       0.00049627
O        2.36968222       3.14192640       4.10441053      -0.00028515       0.00040433      -0.00049460
O        3.75213066       1.18684958       6.49888091       0.00028521      -0.00040427       0.00049496
