9
Lattice="6.495584138882154 4.3184461899227775e-08 3.7502272849005056 2.1651947599656323 6.124095259234065 3.750227274005487 1.6909311337078346e-08 -1.3869123084648629e-09 7.500454540513236" Properties=species:S:1:pos:R:3:forces:R:3 energy=-35.95757293701172 free_energy=-35.95757293701172 stress="-4.283483940525912e-05 6.059120760681935e-09 -2.7552304882050294e-09 6.059120760681935e-09 -4.283860107534565e-05 -3.042831098198917e-09 -2.7552304882050294e-09 -3.042831098198917e-09 -4.283158705220558e-05" pbc="T T T"
Li       2.16519483       1.53102385       3.75022716       0.00000001       0.00000017      -0.00000028
Li       6.49558408       4.59307146      11.25068210      -0.00000013      -0.00000008       0.00000010
Hf       0.00000049       0.00000008      -0.00000071      -0.00000230      -0.00000160       0.00000394
Te       2.32415348       1.64342478       7.50045486       0.00083421       0.00058961      -0.00000062
Te       6.33662500       4.48067043       7.50045429      -0.00083141      -0.00058818       0.00000060
Te       5.33350741       1.64342492       5.76300366      -0.00041634       0.00058799       0.00071979
Te       3.32727116       4.48067045       9.23790568       0.00041665      -0.00058892      -0.00072123
Te       3.32727185       4.48067051       5.76300362       0.00041574      -0.00058890       0.00071992
Te       5.33350732       1.64342472       9.23790575      -0.00041647       0.00058994      -0.00072223
