9
Lattice="4.927370547474097 -1.1474002062407896e-06 2.8448185972401956 1.642456113373184 4.645568158379847 2.8448179979605723 5.141125654772722e-07 -3.7043210571064585e-07 5.689636304011321" Properties=species:S:1:pos:R:3:forces:R:3 energy=-45.850494384765625 free_energy=-45.850494384765625 stress="-0.00022801711747888476 3.4112918001483195e-07 4.914200157912774e-09 3.4112918001483195e-07 -0.00022815814008936286 -9.68719717775457e-08 4.914200157912774e-09 -9.68719717775457e-08 -0.00022843510669190437" pbc="T T T"
Li       1.64245502       1.16138884       2.84481900      -0.00000414      -0.00000731       0.00000220
Li       4.92737026       3.48417523       8.53445844       0.00000076      -0.00000365       0.00000374
Ir       0.00000049      -0.00000082      -0.00000255      -0.00000759      -0.00001669       0.00004474
O        1.52324666       1.07709907       5.68963724       0.00612772       0.00432700       0.00000288
O        5.04657779       3.56847034       5.68963862      -0.00610167      -0.00431347      -0.00000322
O        4.16575055       1.07709653       4.16398597      -0.00306457       0.00433838       0.00531560
O        2.40408005       3.56847232       7.21528376       0.00307000      -0.00434303      -0.00532120
O        2.40407835       3.56846973       4.16398656       0.00305918      -0.00432521       0.00529116
O        4.16574859       1.07709551       7.21528507      -0.00307965       0.00434387      -0.00533593
