9
Lattice="5.704238564814478 -9.36026350747701e-08 3.29334360486093 1.9014127909463163 5.378007738471353 3.2933435628456045 -2.031148004028469e-08 -6.58204746126926e-08 6.586687244902354" Properties=species:S:1:pos:R:3:forces:R:3 energy=-34.94263458251953 free_energy=-34.94263458251953 stress="-0.00017365584790240973 -5.0906754367474605e-09 7.385390521363888e-09 -5.0906754367474605e-09 -0.00017367444525007159 -9.029623271317178e-09 7.385390521363888e-09 -9.029623271317178e-09 -0.000173641717992723" pbc="T T T"
Li       1.90141236       1.34450165       3.29334361      -0.00000091      -0.00000074       0.00000029
Li       5.70423873       4.03350589       9.88003100       0.00000057       0.00000018       0.00000029
Ir      -0.00000032       0.00000002      -0.00000007       0.00000217       0.00000036       0.00000127
Se       2.02041009       1.42864538       6.58668725       0.00102516       0.00072443      -0.00000011
Se       5.58524156       3.94936228       6.58668731      -0.00102718      -0.00072586       0.00000005
Se       4.69403341       1.42864567       5.04307033      -0.00051260       0.00072555       0.00088839
Se       2.91161760       3.94936228       8.13030402       0.00051327      -0.00072519      -0.00088915
Se       2.91161806       3.94936192       5.04307013       0.00051218      -0.00072398       0.00088762
Se       4.69403385       1.42864522       8.13030400      -0.00051254       0.00072522      -0.00088858
