9
Lattice="5.376658976868563 -1.2657470937188376e-07 3.1042155432305054 1.7922195910272192 5.069162320439167 3.104215454191254 -4.8001459509116424e-08 -1.42992516684873e-07 6.208431169601921" Properties=species:S:1:pos:R:3:forces:R:3 energy=-37.19890594482422 free_energy=-37.19890594482422 stress="-1.2949524716532324e-05 1.5872048564347097e-08 3.825626482267808e-09 1.5872048564347097e-08 -1.291535227210261e-05 2.6445780676453978e-08 3.825626482267808e-09 2.6445780676453978e-08 -1.2973031516594347e-05" pbc="T T T"
Li       1.79221965       1.26729083       3.10421538       0.00000023       0.00000009      -0.00000010
Li       5.37665880       3.80187142       9.31264705       0.00000010       0.00000001       0.00000042
Ir       0.00000021       0.00000167       0.00000230       0.00000150       0.00001336       0.00001660
S        1.86720984       1.32031643       6.20843113       0.00006437       0.00004441      -0.00000164
S        5.30166815       3.74884499       6.20843078      -0.00006616      -0.00004864      -0.00000268
S        4.44305398       1.32031634       4.72126614      -0.00003201       0.00004429       0.00005311
S        2.72582476       3.74884499       7.69559474       0.00003275      -0.00004947      -0.00005990
S        2.72582479       3.74884528       4.72126609       0.00003263      -0.00004858       0.00005323
S        4.44305390       1.32031624       7.69559518      -0.00003400       0.00004447      -0.00005901
