9
Lattice="4.484062252369678 -7.253873380729044e-08 2.588874575781428 1.4946873585342064 4.227614649231147 2.5888745593827007 1.5458108635908532e-07 8.922107394933227e-08 5.177748883820529" Properties=species:S:1:pos:R:3:forces:R:3 energy=-48.511680603027344 free_energy=-48.511680603027344 stress="6.334875797620043e-05 2.833066332641465e-07 2.760726047768003e-08 2.833066332641465e-07 6.335242505883798e-05 7.925437017775039e-08 2.760726047768003e-08 7.925437017775039e-08 6.321655382635072e-05" pbc="T T T"
Li       1.49468751       1.05690347       2.58887457       0.00000081       0.00000194      -0.00000071
Li       4.48406240       3.17071081       7.76662349      -0.00000138      -0.00000298       0.00000182
Mn      -0.00000097      -0.00000016      -0.00000021       0.00013585      -0.00000240       0.00001438
O        1.53873714       1.08805143       5.17774931      -0.00062418      -0.00044608       0.00000528
O        4.44001331       3.13956408       5.17774881       0.00050688       0.00036240       0.00000401
O        3.71469426       1.08805110       3.92145931       0.00028515      -0.00039482      -0.00047779
O        2.26405565       3.13956375       6.43403829      -0.00028133       0.00042653       0.00051332
O        2.26405549       3.13956342       3.92145977      -0.00030041       0.00043917      -0.00052285
O        3.71469430       1.08805081       6.43403856       0.00027752      -0.00038290       0.00046301
