9
Lattice="5.3702872617598185 -2.901139510757834e-07 3.100536399572442 1.7900955468041002 5.063155407343982 3.1005362845533457 3.2994917296312396e-08 -1.1753809993291256e-07 6.201072741996042" Properties=species:S:1:pos:R:3:forces:R:3 energy=-38.75218963623047 free_energy=-38.75218963623047 stress="6.95466906108777e-06 -1.9352350477674918e-07 -3.7104385341990564e-08 -1.9352350477674918e-07 7.10351787347463e-06 5.5874949111967e-08 -3.7104385341990564e-08 5.5874949111967e-08 7.279630608536536e-06" pbc="T T T"
Li       1.79009665       1.26578868       3.10053547       0.00000490      -0.00000009      -0.00000227
Li       5.37028480       3.79736662       9.30160815      -0.00000764       0.00000230      -0.00000254
Mn      -0.00000166      -0.00000071       0.00000102       0.00001770       0.00001196      -0.00001189
S        1.79803794       1.27140340       6.20107262      -0.00070083      -0.00049978      -0.00000065
S        5.36234709       3.79175247       6.20107284       0.00067872       0.00048250      -0.00000055
S        4.47126785       1.27140432       4.65768247       0.00034809      -0.00049251      -0.00060695
S        2.68911598       3.79174966       7.74446360      -0.00034779       0.00049996       0.00061554
S        2.68911485       3.79175057       4.65768135      -0.00034365       0.00049132      -0.00060350
S        4.47126707       1.27140494       7.74446344       0.00035059      -0.00049591       0.00061297
