9
Lattice="5.948984180334114 -1.258364198833886e-07 3.4346478128767695 1.9829946028690193 5.608756182057852 3.4346478220033836 8.042334050677858e-08 6.80458126008806e-08 6.869295486456242" Properties=species:S:1:pos:R:3:forces:R:3 energy=-38.2863883972168 free_energy=-38.2863883972168 stress="-8.416845230385661e-05 -1.301465033520799e-07 -1.4453926056035016e-08 -1.301465033520799e-07 -8.40750799397938e-05 2.89497705807662e-08 -1.4453926056035016e-08 2.89497705807662e-08 -8.399914077017456e-05" pbc="T T T"
Li       1.98299469       1.40218915       3.43464776       0.00000057       0.00000100      -0.00000014
Li       5.94898413       4.20656724      10.30394357       0.00000017       0.00000033       0.00000021
Mo      -0.00000055      -0.00000042      -0.00000025       0.00000920       0.00000973       0.00000181
Se       1.96981180       1.39286751       6.86929553       0.00272265       0.00192469       0.00000064
Se       5.96216780       4.21588910       6.86929556      -0.00273663      -0.00193429       0.00000058
Se       4.96407807       1.39286796       5.14055526      -0.00135647       0.00191903       0.00235030
Se       2.96790085       4.21588825       8.59803620       0.00135924      -0.00192067      -0.00235301
Se       2.96790077       4.21588817       5.14055484       0.00135991      -0.00192165       0.00235400
Se       4.96407807       1.39286770       8.59803618      -0.00135864       0.00192183      -0.00235435
