9
Lattice="5.505998750677209 1.6142176759505275e-07 3.1788899977768836 1.8353329584650009 5.191105489031363 3.178890189371759 3.4669503677133215e-08 2.5917002025626127e-07 6.357779935504354" Properties=species:S:1:pos:R:3:forces:R:3 energy=-41.35059356689453 free_energy=-41.35059356689453 stress="-0.00010080075298901647 -7.355398423669612e-08 -4.970734579501368e-08 -7.355398423669612e-08 -0.00010072001168737188 7.951424407792729e-08 -4.970734579501368e-08 7.951424407792729e-08 -0.00010066990944324061" pbc="T T T"
Li       1.83533301       1.29777800       3.17889011      -0.00000043       0.00000240       0.00000065
Li       5.50599870       3.89332907       9.53667155       0.00000023       0.00000038       0.00000358
Mo       0.00000026      -0.00000046       0.00000058       0.00000031       0.00000250      -0.00000239
S        1.86544342       1.31906792       6.35777949       0.00325206       0.00230066      -0.00000102
S        5.47588828       3.87203798       6.35777906      -0.00325300      -0.00230117      -0.00000167
S        4.57327681       1.31906867       4.79441175      -0.00162207       0.00229477       0.00280879
S        2.76805462       3.87203750       7.92114809       0.00162168      -0.00229601      -0.00280875
S        2.76805484       3.87203751       4.79441181       0.00162601      -0.00230124       0.00281568
S        4.57327695       1.31906761       7.92114802      -0.00162485       0.00229777      -0.00281493
