9
Lattice="6.071363150958134 -3.8320436715000165e-07 3.5053034231122773 2.0237875338004847 5.724135238660382 3.5053031146288935 5.160849814962299e-07 -1.2886197918519554e-08 7.0106059523391195" Properties=species:S:1:pos:R:3:forces:R:3 energy=-33.50053024291992 free_energy=-33.50053024291992 stress="-0.00014962871500756592 -2.932040743530706e-08 1.307248442827813e-08 -2.932040743530706e-08 -0.00014958831889089197 -4.5214147093020074e-08 1.307248442827813e-08 -4.5214147093020074e-08 -0.0001495504257036373" pbc="T T T"
Li       2.02378706       1.43103386       3.50530306      -0.00000119      -0.00000053      -0.00000046
Li       6.07136454       4.29310155      10.51590828       0.00000216       0.00000087      -0.00000056
Mn       0.00000068      -0.00000106      -0.00000042       0.00000091       0.00000919       0.00000203
Te       2.07297155       1.46581259       7.01060711       0.00434670       0.00307393       0.00000031
Te       6.02217950       4.25832363       7.01060710      -0.00435314      -0.00307728       0.00000129
Te       5.03487878       1.46581098       5.30055036      -0.00217187       0.00307198       0.00376353
Te       3.06027209       4.25832358       8.72066185       0.00217432      -0.00307496      -0.00376751
Te       3.06027352       4.25832283       5.30054987       0.00217313      -0.00307299       0.00376232
Te       5.03487732       1.46581136       8.72066255      -0.00217099       0.00306968      -0.00376064
