9
Lattice="5.883839435472449 -2.385792105922578e-07 3.397036514111214 1.9612795940872778 5.547337227713643 3.397036501644363 2.8565999570224955e-08 4.9304043046989384e-09 6.794072978744709" Properties=species:S:1:pos:R:3:forces:R:3 energy=-38.0787467956543 free_energy=-38.0787467956543 stress="-6.428767665056512e-05 -9.684042368007795e-08 2.1791779047930504e-08 -9.684042368007795e-08 -6.42157465335913e-05 -1.3907458296102959e-08 2.1791779047930504e-08 -1.3907458296102959e-08 -6.412823859136552e-05" pbc="T T T"
Li       1.96128010       1.38683438       3.39703662       0.00000032       0.00000029      -0.00000048
Li       5.88383932       4.16050283      10.19110955       0.00000035       0.00000019       0.00000058
Nb      -0.00000010      -0.00000103      -0.00000009      -0.00000059       0.00001044       0.00000056
Se       2.03428972       1.43846014       6.79407313      -0.00152759      -0.00108042      -0.00000033
Se       5.81082960       4.10887712       6.79407283       0.00152170       0.00107564      -0.00000051
Se       4.86669397       1.43846051       5.15878394       0.00076733      -0.00108402      -0.00132864
Se       2.97842486       4.10887686       8.42936228      -0.00076407       0.00108139       0.00132379
Se       2.97842504       4.10887648       5.15878377      -0.00076503       0.00108235      -0.00132577
Se       4.86669372       1.43846069       8.42936193       0.00076754      -0.00108573       0.00133073
