9
Lattice="5.563254845984705 1.977903171692069e-07 3.211946809886465 1.8544183659022169 5.245087565347582 3.211946987544848 -1.678901370280447e-08 2.0571468010866055e-07 6.4238936488522524" Properties=species:S:1:pos:R:3:forces:R:3 energy=-31.903593063354492 free_energy=-31.903593063354492 stress="-0.00010344941256335005 4.5998525877166685e-08 -8.238994375631137e-09 4.5998525877166685e-08 -0.00010352364188292995 1.525887682873872e-08 -8.238994375631137e-09 1.525887682873872e-08 -0.00010350954835303128" pbc="T T T"
Li       1.85441860       1.31127229       3.21194685       0.00000072       0.00000094      -0.00000025
Li       5.56325500       3.93381603       9.63584134       0.00000000      -0.00000019       0.00000141
Ni       0.00000064       0.00000032       0.00000039      -0.00001250      -0.00000275      -0.00000225
Se       1.88842260       1.33531694       6.42389361       0.00845641       0.00597927      -0.00000029
Se       5.52925016       3.90977066       6.42389334      -0.00844765      -0.00597388      -0.00000088
Se       4.61904353       1.33531687       4.84736900      -0.00422664       0.00597724       0.00732034
Se       2.79862934       3.90977078       8.00041838       0.00422727      -0.00597921      -0.00732175
Se       2.79862967       3.90977111       4.84736880       0.00422955      -0.00597998       0.00732428
Se       4.61904325       1.33531692       8.00041823      -0.00422718       0.00597838      -0.00732067
