9
Lattice="4.267141741592647 -7.038227573443742e-07 2.463636027329657 1.4223802846651672 4.02309814281815 2.4636353904463024 6.42654361437885e-07 -3.255944093463178e-07 4.9272709415493585" Properties=species:S:1:pos:R:3:forces:R:3 energy=-36.20622634887695 free_energy=-36.20622634887695 stress="0.0007697602268308401 9.644708853784323e-08 -9.981841131434521e-09 9.644708853784323e-08 0.0007697470136918128 8.706353971099645e-10 -9.981841131434521e-09 8.706353971099645e-10 0.0007695757085457444" pbc="T T T"
Li       1.42238096       1.00577500       2.46363516       0.00000087      -0.00000102       0.00000045
Li       4.26714186       3.01732301       7.39090676      -0.00000031      -0.00000004      -0.00000127
Ni       0.00000043       0.00000046      -0.00000042      -0.00000787      -0.00000759       0.00000473
O        1.48450721       1.04970435       4.92727160       0.00211222       0.00149736       0.00000030
O        4.20501539       2.97339263       4.92727171      -0.00210532      -0.00149207       0.00000027
O        3.52488752       1.04970328       3.74925558      -0.00105608       0.00149475       0.00182908
O        2.16463513       2.97339303       6.10528676       0.00105587      -0.00149232      -0.00182855
O        2.16463423       2.97339334       3.74925543       0.00105525      -0.00149166       0.00182630
O        3.52488799       1.04970314       6.10528653      -0.00105476       0.00149236      -0.00183110
