9
Lattice="6.063654762750992 7.911335217915363e-08 3.500852703182621 2.0212183551841436 5.716868355595135 3.500852657551744 1.2554486047736442e-07 3.2887385804867e-08 7.001705188915203" Properties=species:S:1:pos:R:3:forces:R:3 energy=-30.000757217407227 free_energy=-30.000757217407227 stress="0.000310165632981807 2.3190729336874938e-08 -1.2794157955298147e-09 2.3190729336874938e-08 0.00031015879358164966 9.820027013773824e-10 -1.2794157955298147e-09 9.820027013773824e-10 0.00031015241984277964" pbc="T T T"
Li       2.02121826       1.42921732       3.50085246      -0.00000007      -0.00000008      -0.00000079
Li       6.06365515       4.28765115      10.50255819       0.00000011      -0.00000011       0.00000016
Ni       0.00000015       0.00000023       0.00000108      -0.00000149      -0.00000200      -0.00000992
Te       2.10677487       1.48971490       7.00170614      -0.00679760      -0.00480598       0.00000134
Te       5.97809796       4.22715324       7.00170536       0.00679924       0.00480771       0.00000005
Te       5.01026817       1.48971454       5.32537237       0.00339755      -0.00480427      -0.00588393
Te       3.07460570       4.22715321       8.67803709      -0.00340001       0.00480775       0.00588842
Te       3.07460558       4.22715441       5.32537236      -0.00339732       0.00480454      -0.00588400
Te       5.01026716       1.48971498       8.67803711       0.00339957      -0.00480756       0.00588871
