9
Lattice="5.254597748257185 1.0181653645548742e-07 3.033743564272283 1.7515326451320417 4.95408274622859 3.033743622493269 4.226150066055601e-08 1.0118925560303683e-07 6.067487055345441" Properties=species:S:1:pos:R:3:forces:R:3 energy=-34.043983459472656 free_energy=-34.043983459472656 stress="-1.593154047441203e-05 -8.241588744795081e-08 5.858195706309743e-09 -8.241588744795081e-08 -1.593646993569564e-05 1.8327030559817103e-08 5.858195706309743e-09 1.8327030559817103e-08 -1.5827245078980923e-05" pbc="T T T"
Li       1.75153254       1.23852142       3.03374336      -0.00000063       0.00000224       0.00000078
Li       5.25459757       3.71556191       9.10123055      -0.00000043      -0.00000100      -0.00000053
Ni      -0.00000009      -0.00000001       0.00000006       0.00000290      -0.00000426       0.00000164
S        1.75696220       1.24235990       6.06748696       0.00835013       0.00590512      -0.00000095
S        5.24916818       3.71172266       6.06748700      -0.00835001      -0.00590536      -0.00000018
S        4.37611668       1.24236028       4.55531782      -0.00417244       0.00590149       0.00722694
S        2.63001433       3.71172255       7.57965648       0.00417286      -0.00590038      -0.00722572
S        2.63001369       3.71172248       4.55531777       0.00417063      -0.00590125       0.00722554
S        4.37611652       1.24236062       7.57965672      -0.00417340       0.00590324      -0.00722793
