9
Lattice="5.445918433519995 -1.5617818794551323e-07 3.144202346508165 1.8153060425667658 5.1344608820123145 3.1442022680354 3.0343359689769926e-08 -7.465318757356802e-08 6.288404640460176" Properties=species:S:1:pos:R:3:forces:R:3 energy=-41.721309661865234 free_energy=-41.721309661865234 stress="0.00014918878150638193 -7.436874227551016e-08 3.1470808181666143e-09 -7.436874227551016e-08 0.00014925719005987048 3.63188590313257e-08 3.1470808181666143e-09 3.63188590313257e-08 0.00014938933600205928" pbc="T T T"
Li       1.81530626       1.28361516       3.14420236      -0.00000034       0.00000024      -0.00000035
Li       5.44591831       3.85084578       9.43260722       0.00000003      -0.00000040       0.00000066
Nb       0.00000006      -0.00000050       0.00000173      -0.00000336       0.00000483      -0.00002552
S        1.91912371       1.35702535       6.28840434       0.00153658       0.00108713      -0.00000185
S        5.34210044       3.77743525       6.28840372      -0.00153592      -0.00108555      -0.00000147
S        4.48635690       1.35702525       4.80621296      -0.00076905       0.00108606       0.00133148
S        2.77486835       3.77743449       7.77059598       0.00076233      -0.00107777      -0.00132036
S        2.77486805       3.77743576       4.80621256       0.00077094      -0.00109014       0.00133467
S        4.48635584       1.35702613       7.77059616      -0.00076123       0.00107554      -0.00131750
