9
Lattice="6.379451493780754 1.177613051860896e-07 3.683178020143018 2.1264839251039462 6.014604461819162 3.6831780499043205 1.6786641739719334e-08 4.8319947384216605e-08 7.366356011210716" Properties=species:S:1:pos:R:3:forces:R:3 energy=-35.474388122558594 free_energy=-35.474388122558594 stress="-0.00010538908827584237 2.2028610047186703e-08 -7.117451517046902e-09 2.2028610047186703e-08 -0.0001054105450748466 5.821298554309351e-09 -7.117451517046902e-09 5.821298554309351e-09 -0.00010541905794525519" pbc="T T T"
Li       2.12648389       1.50365095       3.68317799      -0.00000028      -0.00000009      -0.00000012
Li       6.37945166       4.51095351      11.04953392       0.00000065      -0.00000015      -0.00000003
Nb       0.00000032       0.00000027      -0.00000103      -0.00000309      -0.00000244       0.00000681
Te       2.24242029       1.58563065       7.36635624       0.00177519       0.00125570      -0.00000007
Te       6.26351480       4.42897388       7.36635624      -0.00177246      -0.00125297       0.00000003
Te       5.25824127       1.58563072       5.62517101      -0.00088711       0.00125394       0.00153624
Te       3.24769397       4.42897416       9.10754135       0.00088845      -0.00125613      -0.00153965
Te       3.24769401       4.42897392       5.62517115       0.00088720      -0.00125428       0.00153684
Te       5.25824153       1.58563049       9.10754145      -0.00088846       0.00125639      -0.00154014
