9
Lattice="5.666431140728724 -1.0315958127829857e-07 3.2715156237647784 1.8888103646072372 5.3423623598548495 3.2715154823876205 9.036168695621764e-08 -1.0925559338034531e-07 6.54303109101852" Properties=species:S:1:pos:R:3:forces:R:3 energy=-36.82590103149414 free_energy=-36.82590103149414 stress="-0.00018908588390331715 -3.152853622623297e-08 5.3767590380005e-09 -3.152853622623297e-08 -0.00018908541824202985 6.5273413341060404e-09 5.3767590380005e-09 6.5273413341060404e-09 -0.0001890817075036466" pbc="T T T"
Li       1.88881039       1.33559097       3.27151562      -0.00000004       0.00000131      -0.00000041
Li       5.66643120       4.00677180       9.81454672       0.00000049       0.00000001      -0.00000001
Os       0.00000026       0.00000021       0.00000006      -0.00000156      -0.00000310      -0.00000022
Se       2.01806536       1.42698745       6.54303113      -0.00113496      -0.00080243      -0.00000022
Se       5.53717625       3.91537462       6.54303096       0.00113714       0.00080341      -0.00000066
Se       4.65739827       1.42698738       5.01921161       0.00056811      -0.00080404      -0.00098392
Se       2.89784328       3.91537400       8.06685033      -0.00056909       0.00080410       0.00098595
Se       2.89784315       3.91537418       5.01921193      -0.00056909       0.00080445      -0.00098509
Se       4.65739816       1.42698792       8.06685041       0.00056887      -0.00080368       0.00098473
