9
Lattice="4.661145153444531 -2.618679745440399e-07 2.6911126706183075 1.5537148705088253 4.394569446277277 2.691112555866158 -9.220813614003487e-08 -2.0574323764446605e-07 5.382225500945987" Properties=species:S:1:pos:R:3:forces:R:3 energy=-51.56371307373047 free_energy=-51.56371307373047 stress="-3.6251267943043786e-07 -7.785598832299456e-09 2.9541078916395236e-08 -7.785598832299456e-09 -1.4060053388220695e-07 1.925572767902395e-08 2.9541078916395236e-08 1.925572767902395e-08 -7.601501579301839e-07" pbc="T T T"
Li       1.55371622       1.09864206       2.69111299       0.00000431       0.00000204       0.00000066
Li       4.66114514       3.29592679       8.07333918       0.00000174      -0.00000214       0.00000334
Os      -0.00000015      -0.00000030      -0.00000094       0.00000748       0.00001001       0.00002477
O        1.50740392       1.06589742       5.38222512       0.00114381       0.00080901       0.00000090
O        4.70745582       3.32867309       5.38222520      -0.00116277      -0.00081837       0.00000045
O        3.90744208       1.06589606       3.99656375      -0.00057113       0.00080431       0.00099373
O        2.30741627       3.32867232       6.76788790       0.00058401      -0.00082099      -0.00101101
O        2.30741765       3.32867269       3.99656264       0.00057530      -0.00080460       0.00099468
O        3.90744263       1.06589602       6.76788852      -0.00058216       0.00082171      -0.00100613
