9
Lattice="5.3408710594230175 1.0595041956985798e-07 3.0835533950288214 1.7802903708562865 5.035422244396309 3.0835535373612615 -6.152606483704279e-08 1.3081548401779657e-07 6.167106896623822" Properties=species:S:1:pos:R:3:forces:R:3 energy=-39.04993438720703 free_energy=-39.04993438720703 stress="-0.0001682325528236106 5.042393880216878e-08 3.3312592684353604e-09 5.042393880216878e-08 -0.00016828722436912358 3.076607768548456e-08 3.3312592684353604e-09 3.076607768548456e-08 -0.0001682956935837865" pbc="T T T"
Li       1.78029010       1.25885595       3.08355345      -0.00000045       0.00000002      -0.00000006
Li       5.34087124       3.77656663       9.25066036       0.00000072      -0.00000089      -0.00000117
Os      -0.00000054       0.00000246       0.00000211      -0.00000679       0.00002771       0.00002146
S        1.87530127       1.32603854       6.16710664      -0.00651932      -0.00461453      -0.00000296
S        5.24585974       3.70938319       6.16710687       0.00651908       0.00460482      -0.00000186
S        4.40322108       1.32603784       4.70761126       0.00326189      -0.00461388      -0.00564998
S        2.71794126       3.70938334       7.62660092      -0.00325713       0.00460428       0.00563943
S        2.71794079       3.70938345       4.70761195      -0.00325811       0.00460374      -0.00564581
S        4.40322058       1.32603851       7.62660168       0.00325978      -0.00461143       0.00564075
