9
Lattice="4.691070259153285 6.035553500066514e-08 2.7083907174744017 1.563690113685748 4.422783426736333 2.708390768747409 -4.92798964190663e-08 2.7950154837339223e-08 5.416781520304095" Properties=species:S:1:pos:R:3:forces:R:3 energy=-36.50881576538086 free_energy=-36.50881576538086 stress="3.044213190150913e-05 -1.7401333707312006e-08 -6.313259692802831e-09 -1.7401333707312006e-08 3.0416358640650287e-05 -2.645075491969351e-09 -6.313259692802831e-09 -2.645075491969351e-09 3.0390101528610103e-05" pbc="T T T"
Li       1.56369014       1.10569578       2.70839092      -0.00000039      -0.00000029      -0.00000038
Li       4.69107033       3.31708775       8.12517205       0.00000071       0.00000071      -0.00000180
Pb       0.00000013       0.00000013      -0.00000061      -0.00000017       0.00000083       0.00000366
O        1.75971084       1.24430339       5.41678145       0.00167507       0.00118496       0.00000007
O        4.49504941       3.17847990       5.41678203      -0.00167641      -0.00118452       0.00000116
O        3.81121490       1.24430336       4.23234504      -0.00083706       0.00118385       0.00144964
O        2.44354540       3.17848046       6.60121809       0.00083877      -0.00118557      -0.00145383
O        2.44354537       3.17847980       4.23234508       0.00083763      -0.00118503       0.00145170
O        3.81121477       1.24430343       6.60121791      -0.00083812       0.00118504      -0.00145030
