9
Lattice="5.090372654096258 1.7272962506988612e-06 2.93890894172316 1.696791434287354 4.799228405332838 2.9389108104273314 3.6818682792303668e-06 4.892296572551152e-06 5.877811506069695" Properties=species:S:1:pos:R:3:forces:R:3 energy=-39.35902786254883 free_energy=-39.35902786254883 stress="5.160638102097437e-05 1.034094748320058e-05 -1.178792899736436e-05 1.034094748320058e-05 4.569723387248814e-05 1.914402673719451e-05 -1.178792899736436e-05 1.914402673719451e-05 3.386342359590344e-05" pbc="T T T"
Li       1.69689065       1.19955749       2.93921114       0.00034085      -0.00084585       0.00113240
Li       5.09044727       3.59920282       8.81704739       0.00027806      -0.00089207       0.00120509
Pd       0.00011169      -0.00031888       0.00043498       0.00073040       0.00088691      -0.00188657
O        1.48361603       1.04953244       5.87737453      -0.00156009      -0.00208360       0.00090498
O        5.30301274       3.75020641       5.87736248       0.00255167       0.00092816       0.00106254
O        4.34826938       1.04969409       4.22363848       0.00133768      -0.00236887      -0.00077528
O        2.43855612       3.75038195       7.53127941      -0.00067803       0.00079000       0.00259686
O        2.43905761       3.74968924       4.22420793      -0.00177968       0.00218236      -0.00250435
O        4.34872885       1.04898616       7.53196319      -0.00122014       0.00140268      -0.00173569
