9
Lattice="5.982543714932843 -2.3344782814630405e-08 3.4540228679107146 1.9941811528350775 5.640395844128505 3.4540229778374583 -1.7570734902247114e-07 1.038833012278514e-08 6.908046040155522" Properties=species:S:1:pos:R:3:forces:R:3 energy=-28.48243522644043 free_energy=-28.48243522644043 stress="-4.256579268258065e-05 5.942336755992983e-08 9.412026713562227e-09 5.942336755992983e-08 -4.246854587108828e-05 1.534113103218715e-08 9.412026713562227e-09 1.534113103218715e-08 -4.255493331584148e-05" pbc="T T T"
Li       1.99418112       1.41009903       3.45402291      -0.00000064       0.00000027      -0.00000007
Li       5.98254377       4.23029688      10.36206857       0.00000142      -0.00000168      -0.00000015
Pb       0.00000008      -0.00000019      -0.00000023      -0.00000084       0.00000142       0.00000092
Se       2.38700007       1.68786480       6.90804621      -0.00117010      -0.00082190       0.00000100
Se       5.58972474       3.95253116       6.90804570       0.00117065       0.00082408      -0.00000027
Se       4.78904390       1.68786421       5.52122587       0.00058611      -0.00082493      -0.00100961
Se       3.18768018       3.95253182       8.29486630      -0.00058518       0.00082093       0.00100856
Se       3.18768098       3.95253190       5.52122601      -0.00058587       0.00082479      -0.00100981
Se       4.78904393       1.68786373       8.29486622       0.00058442      -0.00082296       0.00100939
