9
Lattice="6.677397981429446 6.093922821761789e-08 3.855197607872101 2.2257993400470286 6.295511382409204 3.855197685035279 -5.0672806184541676e-08 5.867413067123182e-08 7.710395303512041" Properties=species:S:1:pos:R:3:forces:R:3 energy=-27.038915634155273 free_energy=-27.038915634155273 stress="-5.665980279445648e-05 8.365399040144439e-09 -1.6806840363869924e-09 8.365399040144439e-09 -5.667385630658828e-05 -2.2096311447228345e-09 -1.6806840363869924e-09 -2.2096311447228345e-09 -5.6677312386455014e-05" pbc="T T T"
Li       2.22579922       1.57387777       3.85519768      -0.00000009      -0.00000042       0.00000018
Li       6.67739809       4.72163365      11.56559302       0.00000044      -0.00000007      -0.00000022
Pb      -0.00000021      -0.00000013       0.00000006       0.00000032       0.00000056       0.00000019
Te       2.53772614       1.79444349       7.71039514       0.00484373       0.00342490      -0.00000037
Te       6.36547109       4.50106825       7.71039521      -0.00484423      -0.00342470      -0.00000013
Te       5.40853484       1.79444342       6.05293300      -0.00242203       0.00342531       0.00419530
Te       3.49466237       4.50106821       9.36785750       0.00242199      -0.00342533      -0.00419489
Te       3.49466257       4.50106799       6.05293312       0.00242206      -0.00342537       0.00419514
Te       5.40853495       1.79444339       9.36785765      -0.00242212       0.00342516      -0.00419515
