9
Lattice="5.755307743535541 -2.6552214258701627e-08 3.3228286390637636 1.9184359044841492 5.426156270326871 3.322828613072595 4.7224316098881754e-08 1.5600873446947817e-09 6.645657196332563" Properties=species:S:1:pos:R:3:forces:R:3 energy=-31.160789489746094 free_energy=-31.160789489746094 stress="8.642248758405913e-06 -2.3263128312578374e-08 -1.185339559839349e-08 -2.3263128312578374e-08 8.687170520715881e-06 1.559551776608714e-08 -1.185339559839349e-08 1.559551776608714e-08 8.675002391100861e-06" pbc="T T T"
Li       1.91843599       1.35653890       3.32282874       0.00000033      -0.00000019      -0.00000002
Li       5.75530774       4.06961759       9.96848574       0.00000016       0.00000131      -0.00000030
Pd      -0.00000001      -0.00000014       0.00000015      -0.00000115       0.00000344      -0.00000186
Se       2.05295329       1.45165696       6.64565723      -0.00101632      -0.00071964       0.00000021
Se       5.62079070       3.97449933       6.64565735       0.00101665       0.00071929       0.00000051
Se       4.72883088       1.45165712       5.10073861       0.00050893      -0.00072081      -0.00088185
Se       2.94491272       3.97449887       8.19057594      -0.00050871       0.00071952       0.00088161
Se       2.94491245       3.97449906       5.10073825      -0.00050837       0.00071801      -0.00088012
Se       4.72883105       1.45165727       8.19057585       0.00050849      -0.00072090       0.00088188
