9
Lattice="5.681246093424597 -4.426950521395282e-08 3.2800686678498763 1.8937486436095647 5.356329957054714 3.280068689432862 -6.674999517113453e-08 -2.0765729699671977e-08 6.560137451314118" Properties=species:S:1:pos:R:3:forces:R:3 energy=-28.96291160583496 free_energy=-28.96291160583496 stress="-1.5159524991759099e-05 1.2427890716537604e-08 -3.05281346868469e-08 1.2427890716537604e-08 -1.5112737855815794e-05 3.518878344266341e-08 -3.05281346868469e-08 3.518878344266341e-08 -1.512627841293579e-05" pbc="T T T"
Li       1.89374840       1.33908228       3.28006865       0.00000004       0.00000024      -0.00000041
Li       5.68124596       4.01724724       9.84020620      -0.00000066      -0.00000031       0.00000053
Pb      -0.00000005       0.00000014      -0.00000033      -0.00000186      -0.00000249       0.00000286
S        2.08328876       1.47310752       6.56013735       0.00020000       0.00014081       0.00000052
S        5.49170626       3.88322217       6.56013729      -0.00019616      -0.00014168       0.00000006
S        4.63960169       1.47310765       5.08424959      -0.00009835       0.00014079       0.00017084
S        2.93539291       3.88322254       8.03602539       0.00009904      -0.00013977      -0.00017327
S        2.93539289       3.88322253       5.08424960       0.00009879      -0.00014032       0.00017329
S        4.63960186       1.47310745       8.03602554      -0.00010087       0.00014282      -0.00017440
