9
Lattice="5.4705884096279345 -3.926065859845702e-08 3.1584454205833943 1.8235294905896577 5.157719752772659 3.15844532059389 2.729258682589767e-08 -1.031629032231927e-07 6.316890793894653" Properties=species:S:1:pos:R:3:forces:R:3 energy=-32.38596725463867 free_energy=-32.38596725463867 stress="-2.4292855869134655e-06 6.251627837627893e-08 5.822281323730749e-09 6.251627837627893e-08 -2.435793703625677e-06 1.3881151339489861e-08 5.822281323730749e-09 1.3881151339489861e-08 -2.534939767429023e-06" pbc="T T T"
Li       1.82352947       1.28942982       3.15844524      -0.00000069       0.00000024      -0.00000064
Li       5.47058890       3.86828981       9.47533628       0.00000113      -0.00000014       0.00000001
Pd       0.00000007      -0.00000004      -0.00000025       0.00000040       0.00000006       0.00000939
S        1.90687330       1.34836301       6.31689065      -0.00066829      -0.00047153      -0.00000057
S        5.38724463       3.80935651       6.31689052       0.00066793       0.00047106      -0.00000075
S        4.51715213       1.34836273       4.80984581       0.00033411      -0.00047195      -0.00057799
S        2.77696562       3.80935701       7.82393580      -0.00033277       0.00046909       0.00057387
S        2.77696551       3.80935725       4.80984600      -0.00033385       0.00047207      -0.00057775
S        4.51715206       1.34836226       7.82393605       0.00033200      -0.00046962       0.00057423
