9
Lattice="5.703405856214357 -1.3866621405892722e-07 3.2928628771796977 1.9011351844171713 5.377222463123291 3.29286282565436 2.6085006880575793e-08 -4.466046155045809e-08 6.585725709178791" Properties=species:S:1:pos:R:3:forces:R:3 energy=-32.61083221435547 free_energy=-32.61083221435547 stress="0.00014645920600742102 -7.162255855064359e-08 -1.5071734082994226e-08 -7.162255855064359e-08 0.00014650494267698377 1.0904174452264215e-08 -1.5071734082994226e-08 1.0904174452264215e-08 0.00014655714039690793" pbc="T T T"
Li       1.90113496       1.34430530       3.29286306       0.00000008      -0.00000040       0.00000047
Li       5.70340598       4.03291692       9.87858861       0.00000012       0.00000006      -0.00000056
Pt      -0.00000057       0.00000019      -0.00000034       0.00000867      -0.00000219       0.00000268
Se       1.99842180       1.41309769       6.58572577      -0.00059864      -0.00042272      -0.00000000
Se       5.60611982       3.96412505       6.58572567       0.00059353       0.00042067      -0.00000034
Se       4.70419473       1.41309743       5.02354720       0.00029968      -0.00042493      -0.00052043
Se       2.90034641       3.96412434       8.14790400      -0.00030110       0.00042611       0.00052191
Se       2.90034617       3.96412456       5.02354731      -0.00030120       0.00042635      -0.00052139
Se       4.70419500       1.41309758       8.14790437       0.00029890      -0.00042300       0.00051766
