9
Lattice="5.594275059465193 -7.735052279849238e-08 3.2298561289110417 1.8647582949808912 5.274333022799913 3.229856103358744 -9.24030951348613e-08 -9.663392178195016e-08 6.459712417868898" Properties=species:S:1:pos:R:3:forces:R:3 energy=-31.773700714111328 free_energy=-31.773700714111328 stress="-7.335672853514552e-05 -3.623681621434116e-08 1.5954686460872836e-09 -3.623681621434116e-08 -7.335009286180139e-05 4.0530270695171566e-08 1.5954686460872836e-09 4.0530270695171566e-08 -7.329205982387066e-05" pbc="T T T"
Li       1.86475828       1.31858326       3.22985606       0.00000010       0.00000069       0.00000025
Li       5.59427490       3.95574964       9.68956831       0.00000040       0.00000043      -0.00000088
P        0.00000007      -0.00000005      -0.00000013       0.00000021       0.00000423       0.00000030
Se       1.86418923       1.31818080       6.45971219       0.00427580       0.00302303      -0.00000051
Se       5.59484424       3.95615175       6.45971236      -0.00427780      -0.00302640       0.00000083
Se       4.66218047       1.31818084       4.84429154      -0.00213550       0.00302070       0.00370038
Se       2.79685315       3.95615194       8.07513361       0.00213781      -0.00302255      -0.00370163
Se       2.79685246       3.95615198       4.84429141       0.00213660      -0.00302374       0.00370333
Se       4.66218022       1.31818125       8.07513328      -0.00213735       0.00302371      -0.00370198
