9
Lattice="5.003600040821474 1.7680169406073345e-07 2.88883025215327 1.667866951068292 4.717439636836992 2.8888300718393145 1.746109166891768e-07 -9.736998708707005e-08 5.777660201871514" Properties=species:S:1:pos:R:3:forces:R:3 energy=-39.87835693359375 free_energy=-39.87835693359375 stress="4.281878773326753e-06 -8.695871400732358e-08 -5.270616298957975e-08 -8.695871400732358e-08 4.16204284192645e-06 -2.4827269129445995e-09 -5.270616298957975e-08 -2.4827269129445995e-09 4.344780791143421e-06" pbc="T T T"
Li       1.66786841       1.17936013       2.88883136       0.00000276      -0.00000211       0.00000387
Li       5.00359985       3.53807784       8.66648929      -0.00000106      -0.00000302      -0.00000091
Pt       0.00000021      -0.00000058       0.00000076       0.00000012       0.00000301      -0.00000571
O        1.54062121       1.08938248       5.77765915      -0.00190389      -0.00134432       0.00000112
O        5.13084550       3.62805718       5.77766026       0.00190347       0.00134414      -0.00000081
O        4.23328922       1.08938470       4.22304666       0.00095519      -0.00134557      -0.00165170
O        2.43817804       3.62805744       7.33227267      -0.00095451       0.00134826       0.00165111
O        2.43817702       3.62805543       4.22304714      -0.00095353       0.00134510      -0.00164849
O        4.23328974       1.08938406       7.33227514       0.00095198      -0.00134557       0.00165141
