9
Lattice="5.019035097728583 3.4652200199007867e-07 2.89774072425814 1.6730118623646044 4.731992471013699 2.8977410075912298 3.137123619671811e-07 5.688387407229889e-07 5.795480905150398" Properties=species:S:1:pos:R:3:forces:R:3 energy=-41.987239837646484 free_energy=-41.987239837646484 stress="-3.3431959309382364e-05 1.1965688884174597e-08 -3.363514622378716e-08 1.1965688884174597e-08 -3.349883627379313e-05 7.716033145754864e-09 -3.363514622378716e-08 7.716033145754864e-09 -3.346633093315177e-05" pbc="T T T"
Li       1.67301216       1.18299784       2.89773953       0.00000001      -0.00000174      -0.00000037
Li       5.01903629       3.54899623       8.69322101       0.00000261       0.00000309      -0.00000250
Rh      -0.00000020       0.00000117       0.00000206       0.00000162      -0.00001754      -0.00002335
O        1.56052005       1.10345541       5.79547974      -0.00090158      -0.00064141      -0.00000286
O        5.13152698       3.62853615       5.79548496       0.00091851       0.00064278       0.00000031
O        4.23877395       1.10345477       4.24919050       0.00044280      -0.00063068      -0.00077367
O        2.45327231       3.62853836       7.34177021      -0.00046676       0.00065553       0.00080228
O        2.45327272       3.62854027       4.24919251      -0.00045168       0.00063998      -0.00078624
O        4.23877382       1.10345324       7.34177095       0.00045407      -0.00065029       0.00078678
