9
Lattice="5.647815358269736 -6.503828970291535e-08 3.2607679216328487 1.8826050457572292 5.3248114548983265 3.2607679430190397 -5.3119003547754414e-08 -1.1368175661986774e-08 6.521535935270563" Properties=species:S:1:pos:R:3:forces:R:3 energy=-33.981971740722656 free_energy=-33.981971740722656 stress="-6.964039585000137e-06 -1.6125081714335465e-08 6.345296288401414e-09 -1.6125081714335465e-08 -6.957904588489328e-06 -4.524400853966881e-09 6.345296288401414e-09 -4.524400853966881e-09 -6.9800544224563055e-06" pbc="T T T"
Li       1.88260510       1.33120299       3.26076779      -0.00000045       0.00000066      -0.00000086
Li       5.64781513       3.99360878       9.78230376      -0.00000005       0.00000014      -0.00000048
Rh      -0.00000039      -0.00000017      -0.00000011       0.00000379       0.00000163       0.00000036
Se       2.00459355       1.41746159       6.52153598       0.00079039       0.00055835      -0.00000021
Se       5.52582703       3.90734974       6.52153581      -0.00079283      -0.00056084      -0.00000018
Se       4.64551856       1.41746166       4.99679725      -0.00039437       0.00055854       0.00068437
Se       2.88490211       3.90734933       8.04627482       0.00039506      -0.00055911      -0.00068300
Se       2.88490185       3.90734973       4.99679718       0.00039425      -0.00055836       0.00068391
Se       4.64551845       1.41746182       8.04627477      -0.00039580       0.00055903      -0.00068402
