9
Lattice="5.316345059895318 1.337055979405778e-07 3.069393450515445 1.7721151759533342 5.012298169584114 3.069393398676283 1.3292088161123154e-07 3.049949781333313e-08 6.138786670805237" Properties=species:S:1:pos:R:3:forces:R:3 energy=-37.73857498168945 free_energy=-37.73857498168945 stress="-0.00032494417973794043 -5.1288797209281256e-08 -1.4587458352366411e-08 -5.1288797209281256e-08 -0.00032493332400918007 -1.5950890386307037e-08 -1.4587458352366411e-08 -1.5950890386307037e-08 -0.0003249610308557749" pbc="T T T"
Li       1.77211526       1.25307448       3.06939321       0.00000048      -0.00000022       0.00000073
Li       5.31634481       3.75922400       9.20817985      -0.00000067       0.00000050      -0.00000105
Ru      -0.00000272      -0.00000277      -0.00000057      -0.00002469      -0.00002525      -0.00000392
S        1.86402685       1.31806554       6.13878640      -0.00795853      -0.00562736      -0.00000121
S        5.22443605       3.69423452       6.13878678       0.00796747       0.00563556      -0.00000066
S        4.38433256       1.31806512       4.68368723       0.00398573      -0.00562650      -0.00689572
S        2.70412845       3.69423344       7.59388726      -0.00397673       0.00563565       0.00689924
S        2.70412805       3.69423347       4.68368675      -0.00397813       0.00563520      -0.00689673
S        4.38433226       1.31806549       7.59388723       0.00398478      -0.00562745       0.00689936
