9
Lattice="5.668811827910231 -3.4716070072988935e-08 3.2728900829464247 1.889603945583824 5.344606835195065 3.2728900211509266 6.247341961403642e-08 -3.150835978469997e-08 6.545780057685736" Properties=species:S:1:pos:R:3:forces:R:3 energy=-35.732017517089844 free_energy=-35.732017517089844 stress="-6.117115844972432e-05 5.841640504655743e-09 -2.2806059263302814e-09 5.841640504655743e-09 -6.116671283962205e-05 3.794040637217222e-09 -2.2806059263302814e-09 3.794040637217222e-09 -6.11602226854302e-05" pbc="T T T"
Li       1.88960375       1.33615154       3.27288998      -0.00000057       0.00000019      -0.00000040
Li       5.66881170       4.00845514       9.81867036      -0.00000047       0.00000032      -0.00000011
Ru       0.00000026       0.00000016       0.00000021      -0.00000195      -0.00000188      -0.00000106
Se       1.99954476       1.41389137       6.54578005       0.00212044       0.00149944       0.00000007
Se       5.55887099       3.93071517       6.54577995      -0.00211834      -0.00149752       0.00000068
Se       4.66903971       1.41389150       5.00454660      -0.00105951       0.00149842       0.00183491
Se       2.88937620       3.93071519       8.08701355       0.00105915      -0.00149835      -0.00183496
Se       2.88937643       3.93071540       5.00454644       0.00105999      -0.00149895       0.00183530
Se       4.66903954       1.41389160       8.08701350      -0.00105870       0.00149825      -0.00183439
