9
Lattice="4.753814787523793 4.1702665030478786e-07 2.7446167159869566 1.5846051107875692 4.481941638348789 2.744617082425831 -1.0983863461334526e-07 3.711264449877235e-07 5.489233622220002" Properties=species:S:1:pos:R:3:forces:R:3 energy=-54.12477111816406 free_energy=-54.12477111816406 stress="7.067497790558264e-05 1.8039843041606218e-07 5.2309836462427484e-08 1.8039843041606218e-07 7.081679359544069e-05 3.4446461683046437e-08 5.2309836462427484e-08 3.4446461683046437e-08 7.057152106426656e-05" pbc="T T T"
Li       1.58460546       1.12048565       2.74461631       0.00000092      -0.00000140      -0.00000439
Li       4.75381512       3.36145576       8.23385030       0.00000244      -0.00000620      -0.00000100
Re       0.00000063      -0.00000222      -0.00000289      -0.00000244      -0.00000097       0.00000016
O        1.54315553       1.09117806       5.48923336      -0.00035262      -0.00025308      -0.00000365
O        4.79526240       3.39076547       5.48923356       0.00035906       0.00026321       0.00000303
O        3.98223852       1.09117741       4.08103024       0.00017142      -0.00025046      -0.00030160
O        2.35618213       3.39076594       6.89743783      -0.00017512       0.00025094       0.00030279
O        2.35618265       3.39076584       4.08102941      -0.00017309       0.00024593      -0.00030220
O        3.98223566       1.09117892       6.89743959       0.00016975      -0.00024700       0.00030625
