9
Lattice="5.346482357986833 2.0993917143115722e-08 3.0867929111396046 1.7821608430021472 5.040711804056854 3.086792846684346 -2.7861411824376506e-08 -9.864221834182941e-08 6.173585870536604" Properties=species:S:1:pos:R:3:forces:R:3 energy=-36.09482955932617 free_energy=-36.09482955932617 stress="-0.00014517284580506384 3.72550879035316e-08 2.3095633849834485e-08 3.72550879035316e-08 -0.0001452085271012038 -3.207772181212931e-08 2.3095633849834485e-08 -3.207772181212931e-08 -0.00014525989536195993" pbc="T T T"
Li       1.78216073       1.26017784       3.08679259       0.00000003      -0.00000051      -0.00000061
Li       5.34648224       3.78053394       9.26037927       0.00000006      -0.00000072       0.00000054
Rh       0.00000041      -0.00000010      -0.00000018      -0.00000113      -0.00000013       0.00000072
S        1.85689653       1.31302361       6.17358573       0.00087488       0.00061774       0.00000018
S        5.27174666       3.72768776       6.17358551      -0.00087196      -0.00061694      -0.00000069
S        4.41803440       1.31302405       4.69491213      -0.00043765       0.00061950       0.00075853
S        2.71060856       3.72768776       7.65225919       0.00043744      -0.00061977      -0.00075835
S        2.71060904       3.72768817       4.69491247       0.00043675      -0.00061807       0.00075775
S        4.41803402       1.31302384       7.65225964      -0.00043860       0.00061885      -0.00075728
