9
Lattice="6.3005598504308145 -3.1567349644433905e-08 3.637629995209992 2.1001864861114012 5.940225008238334 3.637630170037716 -1.3464046073157735e-07 1.1891417232995029e-07 7.275260223624098" Properties=species:S:1:pos:R:3:forces:R:3 energy=-36.44883346557617 free_energy=-36.44883346557617 stress="0.0002178576251026243 -2.9233529375005674e-08 -3.1073209783016864e-08 -2.9233529375005674e-08 0.00021788589947391301 4.156317245929131e-08 -3.1073209783016864e-08 4.156317245929131e-08 0.00021791286417283118" pbc="T T T"
Li       2.10018653       1.48505606       3.63763002       0.00000030      -0.00000030       0.00000007
Li       6.30055991       4.45516891      10.91289023       0.00000031      -0.00000011      -0.00000001
Re      -0.00000007      -0.00000011       0.00000101      -0.00000004       0.00000012      -0.00001160
Te       2.17798580       1.54006908       7.27526002      -0.00781111      -0.00552364       0.00000059
Te       6.22276006       4.40015638       7.27526017       0.00781056       0.00552256       0.00000004
Te       5.21156658       1.54006900       5.52382133       0.00390591      -0.00552385      -0.00676468
Te       3.18917980       4.40015573       9.02669828      -0.00390932       0.00552878       0.00677215
Te       3.18917953       4.40015627       5.52382167      -0.00390431       0.00552206      -0.00676247
Te       5.21156661       1.54006906       9.02669882       0.00390767      -0.00552560       0.00676602
