9
Lattice="5.797619226636606 1.4130444247315648e-08 3.3472570046009227 1.9325397361947474 5.4660480197557755 3.3472570380984528 -8.34145591716193e-09 3.512760142198533e-08 6.694514023649694" Properties=species:S:1:pos:R:3:forces:R:3 energy=-39.21427536010742 free_energy=-39.21427536010742 stress="-0.00012582287308759987 4.479240089949599e-09 -1.5989730428600524e-08 4.479240089949599e-09 -0.00012581572809722275 1.352816259014844e-08 -1.5989730428600524e-08 1.352816259014844e-08 -0.0001258178090211004" pbc="T T T"
Li       1.93253980       1.36651208       3.34725705       0.00000063       0.00000026      -0.00000055
Li       5.79761908       4.09953603      10.04177082      -0.00000078       0.00000014      -0.00000059
Re       0.00000011       0.00000029       0.00000048      -0.00000018      -0.00000138      -0.00000290
Se       2.00312152       1.41642066       6.69451405      -0.00079548      -0.00056309       0.00000017
Se       5.72703728       4.04962718       6.69451415       0.00079602       0.00056306      -0.00000037
Se       4.79605856       1.41642054       5.08201093       0.00039674      -0.00056159      -0.00068763
Se       2.93410066       4.04962711       8.30701693      -0.00039834       0.00056416       0.00069040
Se       2.93410029       4.04962754       5.08201080      -0.00039658       0.00056097      -0.00068778
Se       4.79605855       1.41642086       8.30701704       0.00039801      -0.00056267       0.00068900
