9
Lattice="5.426583567853141 4.5768868339748385e-08 3.133039254200261 1.8088612792301186 5.116231897699868 3.1330391731500415 -3.066554191943163e-08 -1.209497564537483e-07 6.266078561515111" Properties=species:S:1:pos:R:3:forces:R:3 energy=-42.48917770385742 free_energy=-42.48917770385742 stress="-9.279595360567328e-06 3.215959054614359e-08 5.133777403187878e-09 3.215959054614359e-08 -9.261945706384722e-06 2.7867500307365844e-08 5.133777403187878e-09 2.7867500307365844e-08 -9.285661690228153e-06" pbc="T T T"
Li       1.80886112       1.27905755       3.13303931       0.00000009      -0.00000024      -0.00000034
Li       5.42658366       3.83717377       9.39911793       0.00000010      -0.00000058       0.00000009
Re      -0.00000023       0.00000016      -0.00000004      -0.00000075       0.00000077       0.00000031
S        1.88326371       1.33166865       6.26607826       0.00013465       0.00009584      -0.00000037
S        5.35218123       3.78456327       6.26607801      -0.00013548      -0.00009555      -0.00000076
S        4.48495201       1.33166873       4.76399333      -0.00006729       0.00009561       0.00011796
S        2.75049284       3.78456289       7.76816409       0.00006872      -0.00009781      -0.00011802
S        2.75049312       3.78456362       4.76399341       0.00006834      -0.00009590       0.00011921
S        4.48495189       1.33166842       7.76816400      -0.00006843       0.00009793      -0.00011820
