9
Lattice="5.443815878796567 -2.331701961860553e-07 3.142988714951991 1.8146050999719932 5.132478302855924 3.142988668403628 8.663040431335809e-08 4.2470131030426614e-09 6.28597727985583" Properties=species:S:1:pos:R:3:forces:R:3 energy=-31.766393661499023 free_energy=-31.766393661499023 stress="0.00011165175237692893 -3.226788081178711e-08 2.8199613755219843e-09 -3.226788081178711e-08 0.00011165202886331826 1.2167537200014067e-08 2.8199613755219843e-09 1.2167537200014067e-08 0.00011159153655171394" pbc="T T T"
Li       1.81460540       1.28311931       3.14298873       0.00000072      -0.00000032      -0.00000029
Li       5.44381587       3.84935863       9.42896602      -0.00000091      -0.00000021      -0.00000068
Si      -0.00000012       0.00000008       0.00000035      -0.00000174      -0.00000015      -0.00000563
Se       1.98778075       1.40557268       6.28597722       0.00608853       0.00430639       0.00000047
Se       5.27063913       3.72690482       6.28597731      -0.00608703      -0.00430342       0.00000011
Se       4.44992561       1.40557335       4.86445787      -0.00304336       0.00430478       0.00527271
Se       2.80849678       3.72690484       7.70749768       0.00304369      -0.00430468      -0.00527036
Se       2.80849601       3.72690503       4.86445684       0.00304336      -0.00430592       0.00527326
Se       4.44992483       1.40557357       7.70749664      -0.00304319       0.00430351      -0.00526956
