9
Lattice="5.544114535209521 -2.3975361959800014e-07 3.2008961625720995 1.8480379873436439 5.227041183596091 3.200896101980916 -5.622546468738663e-08 -1.1396619448413296e-07 6.40179242252955" Properties=species:S:1:pos:R:3:forces:R:3 energy=-30.140560150146484 free_energy=-30.140560150146484 stress="-1.9047367459279485e-05 -7.180998551348239e-08 2.599654935764306e-09 -7.180998551348239e-08 -1.905681892822031e-05 -3.784148105978602e-09 2.599654935764306e-09 -3.784148105978602e-09 -1.899066955957096e-05" pbc="T T T"
Li       1.84803839       1.30676020       3.20089592       0.00000069       0.00000011      -0.00000061
Li       5.54411422       3.92028070       9.60268850      -0.00000017       0.00000000       0.00000056
Se       0.00000016      -0.00000025       0.00000063      -0.00000230       0.00000369      -0.00002125
S        1.78296594       1.26074699       6.40179275      -0.00029618      -0.00020817      -0.00000085
S        5.60918686       3.96629373       6.40179255       0.00029469       0.00020984       0.00000152
S        4.65263105       1.26074770       4.74498995       0.00014591      -0.00020695      -0.00026006
S        2.73952091       3.96629313       8.05859424      -0.00015363       0.00021666       0.00026464
S        2.73952133       3.96629358       4.74498979      -0.00014493       0.00020537      -0.00025469
S        4.65263121       1.26074745       8.05859453       0.00015613      -0.00022045       0.00027084
