9
Lattice="4.301602602107722 -2.431950077579205e-07 2.4835266239749254 1.4338675330290336 4.055583893835095 2.4835262285831523 9.396144155067652e-07 1.8015410220468166e-07 4.96705162048891" Properties=species:S:1:pos:R:3:forces:R:3 energy=-39.374549865722656 free_energy=-39.374549865722656 stress="5.999280256219208e-05 -1.4049363699086825e-06 1.552625690237619e-06 -1.4049363699086825e-06 6.0727652453351766e-05 -9.174248134513618e-07 1.552625690237619e-06 -9.174248134513618e-07 5.979886918794364e-05" pbc="T T T"
Li       1.43386645       1.01389804       2.48352762      -0.00000039       0.00000407      -0.00001108
Li       4.30160298       3.04169013       7.45058059      -0.00002103       0.00000237      -0.00000319
Se      -0.00000451       0.00000367      -0.00000043       0.00013402      -0.00014954       0.00003163
O        1.61074745       1.13896638       4.96705388       0.00187817       0.00135879      -0.00000671
O        4.12472350       2.91661199       4.96705298      -0.00187793      -0.00132157       0.00000846
O        3.49623049       1.13897346       3.87847306      -0.00096361       0.00134422       0.00166075
O        2.23924214       2.91661176       6.05563207       0.00090933      -0.00129628      -0.00162463
O        2.23924564       2.91660918       3.87847652       0.00087903      -0.00127065       0.00157343
O        3.49622891       1.13897309       6.05562423      -0.00093760       0.00132845      -0.00162874
