9
Lattice="4.4364527008948755 1.922559837274517e-07 2.5613872912529025 1.478817690381532 4.182728043533286 2.5613873914418384 3.072230437187939e-08 1.4442977463191236e-07 5.122774529293201" Properties=species:S:1:pos:R:3:forces:R:3 energy=-46.9582405090332 free_energy=-46.9582405090332 stress="-0.0005125566967763007 -2.9501834308831576e-09 -7.295547277408332e-08 -2.9501834308831576e-09 -0.0005127201438881457 5.5546614419199614e-08 -7.295547277408332e-08 5.5546614419199614e-08 -0.0005126399919390678" pbc="T T T"
Li       1.47881749       1.04568211       2.56138731       0.00000032       0.00000014       0.00000012
Li       4.43645289       3.13704630       7.68416185       0.00000007       0.00000127       0.00000063
Si       0.00000018      -0.00000011       0.00000012      -0.00000665       0.00000462      -0.00000590
O        1.40603541       0.99421732       5.12277457       0.00454074       0.00320947      -0.00000026
O        4.50923481       3.18851106       5.12277458      -0.00453681      -0.00320974       0.00000017
O        3.73343518       0.99421729       3.77904966      -0.00226915       0.00321060       0.00393236
O        2.18183532       3.18851113       6.46649935       0.00226948      -0.00321084      -0.00393158
O        2.18183534       3.18851109       3.77904957       0.00227153      -0.00321496       0.00393498
O        3.73343511       0.99421736       6.46649958      -0.00226882       0.00320935      -0.00393111
