9
Lattice="5.349523331234616 -7.739641250312202e-08 3.088548835397337 1.7831745014344824 5.043578598551182 3.088548609088324 1.7151648859034838e-07 -1.5589045121225057e-07 6.177097373719448" Properties=species:S:1:pos:R:3:forces:R:3 energy=-33.147003173828125 free_energy=-33.147003173828125 stress="1.542098107165657e-05 -9.545818357992175e-08 1.2090306533707462e-08 -9.545818357992175e-08 1.5466779586859047e-05 -6.624508941399654e-09 1.2090306533707462e-08 -6.624508941399654e-09 1.5561141481157392e-05" pbc="T T T"
Li       1.78317594       1.26089400       3.08854862       0.00000483      -0.00000376      -0.00000155
Li       5.34952267       3.78268334       9.26564741      -0.00000350       0.00000025       0.00000266
Si       0.00000014       0.00000105       0.00000128      -0.00000051      -0.00000603      -0.00000970
S        1.81424784       1.28286592       6.17709750      -0.00026923      -0.00019535      -0.00000176
S        5.31844953       3.76071218       6.17709625       0.00027341       0.00019711      -0.00000644
S        4.44239913       1.28286672       4.65973302       0.00013125      -0.00018832      -0.00023419
S        2.69029994       3.76071065       7.69446023      -0.00013724       0.00019899       0.00024456
S        2.69029973       3.76071206       4.65973356      -0.00013149       0.00019431      -0.00023717
S        4.44239730       1.28286716       7.69446145       0.00013271      -0.00019726       0.00024307
