9
Lattice="6.275854423535169 -1.3827707924314783e-08 3.623366372595389 2.09195146475256 5.916932384875695 3.6233663669182734 2.3124615325119842e-08 9.39842698698495e-09 7.246732705137821" Properties=species:S:1:pos:R:3:forces:R:3 energy=-28.62331199645996 free_energy=-28.62331199645996 stress="-0.00025533136795274913 8.319759992048148e-09 9.500870090661806e-10 8.319759992048148e-09 -0.000255332124652341 1.8869106277463743e-09 9.500870090661806e-10 1.8869106277463743e-09 -0.00025532409199513495" pbc="T T T"
Li       2.09195118       1.47923341       3.62336653      -0.00000027       0.00000031       0.00000025
Li       6.27585448       4.43769880      10.87009884       0.00000002      -0.00000085      -0.00000039
Si       0.00000011      -0.00000001       0.00000031      -0.00000027      -0.00000013      -0.00000002
Te       2.17906759       1.54083410       7.24673262      -0.00268869      -0.00190037      -0.00000028
Te       6.18873810       4.37609834       7.24673278       0.00268838       0.00190080       0.00000004
Te       5.18632070       1.54083392       5.51049462       0.00134427      -0.00190059      -0.00232835
Te       3.18148551       4.37609842       8.98297085      -0.00134396       0.00190066       0.00232838
Te       3.18148521       4.37609841       5.51049435      -0.00134429       0.00190066      -0.00232834
Te       5.18632081       1.54083414       8.98297091       0.00134480      -0.00190056       0.00232871
