9
Lattice="6.509441404460838 -1.3727856606021539e-08 3.758227836085817 2.169813781606208 6.137160285655841 3.758227848102751 -1.1109871415857383e-08 6.861813476177561e-09 7.516455691414487" Properties=species:S:1:pos:R:3:forces:R:3 energy=-27.858097076416016 free_energy=-27.858097076416016 stress="2.304786221429822e-06 5.221890697626463e-10 -4.095209504839659e-09 5.221890697626463e-10 2.294005753356032e-06 -9.004573087167955e-09 -4.095209504839659e-09 -9.004573087167955e-09 2.2930139493837487e-06" pbc="T T T"
Li       2.16981371       1.53429030       3.75822790      -0.00000007       0.00000013       0.00000028
Li       6.50944144       4.60287007      11.27468348      -0.00000022      -0.00000044       0.00000007
Sn      -0.00000003      -0.00000009       0.00000024      -0.00000076       0.00000058      -0.00000029
Te       2.37543569       1.67968680       7.51645562      -0.00013882      -0.00009874       0.00000037
Te       6.30381956       4.45747357       7.51645556       0.00013864       0.00009742      -0.00000009
Te       5.32172348       1.67968687       5.81541557       0.00007004      -0.00009805      -0.00011954
Te       3.35753169       4.45747333       9.21749561      -0.00006893       0.00009800       0.00012043
Te       3.35753173       4.45747342       5.81541586      -0.00006939       0.00009890      -0.00012055
Te       5.32172348       1.67968684       9.21749571       0.00006948      -0.00009780       0.00011943
