9
Lattice="5.780573998640959 3.703933427393881e-07 3.337416237412885 1.926857989961811 5.449978057311791 3.3374168588645827 -3.7540428699618483e-07 4.956688749865016e-07 6.674833125045083" Properties=species:S:1:pos:R:3:forces:R:3 energy=-29.675064086914062 free_energy=-29.675064086914062 stress="1.3021918675804045e-05 5.59021309243235e-08 1.4404824000280314e-08 5.59021309243235e-08 1.2995962606510147e-05 -5.653012724593509e-09 1.4404824000280314e-08 -5.653012724593509e-09 1.2745724234264344e-05" pbc="T T T"
Li       1.92685889       1.36249610       3.33741543       0.00000234       0.00000273      -0.00000284
Li       5.78057385       4.08748258      10.01225004      -0.00000077      -0.00000259      -0.00000080
Sn       0.00000007      -0.00000013       0.00000043      -0.00000019       0.00000542      -0.00000734
Se       2.20811726       1.56137599       6.67483351      -0.00118322      -0.00083510       0.00000108
Se       5.49931588       3.88860346       6.67483320       0.00118314       0.00083453      -0.00000098
Se       4.67651594       1.56137348       5.24970089       0.00058974      -0.00083400      -0.00102346
Se       3.03091639       3.88860240       8.09996625      -0.00058962       0.00083083       0.00102781
Se       3.03091494       3.88860544       5.24970075      -0.00058901       0.00083100      -0.00102043
Se       4.67651327       1.56137644       8.09996448       0.00058763      -0.00083283       0.00102691
