9
Lattice="5.6263087840761905 1.3839861204480957e-07 3.248350714282513 1.8754364510850228 5.304535138497682 3.248350611670981 -8.169375775267453e-08 -1.834391615975038e-07 6.496701570062845" Properties=species:S:1:pos:R:3:forces:R:3 energy=-30.553974151611328 free_energy=-30.553974151611328 stress="-0.00018694451136980206 -4.297672973052613e-08 2.2373296104660767e-08 -4.297672973052613e-08 -0.00018695861217565835 -1.4795314307036733e-08 2.2373296104660767e-08 -1.4795314307036733e-08 -0.0001869131374405697" pbc="T T T"
Li       1.87543646       1.32613380       3.24835075       0.00000013      -0.00000127      -0.00000072
Li       5.62630880       3.97840158       9.74505221      -0.00000083       0.00000049      -0.00000010
Sn       0.00000070       0.00000008       0.00000084      -0.00001186      -0.00000199      -0.00001438
S        2.03274676       1.43736830       6.49670157      -0.00268930      -0.00190267      -0.00000126
S        5.46899675       3.86716565       6.49670152       0.00270039       0.00191116      -0.00000047
S        4.60993581       1.43736970       5.00876197       0.00134631      -0.00190510      -0.00233163
S        2.89181092       3.86716507       7.98464098      -0.00134949       0.00190873       0.00233681
S        2.89181014       3.86716589       5.00876140      -0.00134578       0.00190212      -0.00233009
S        4.60993432       1.43737014       7.98464044       0.00135030      -0.00191168       0.00234163
