9
Lattice="4.5376718801027565 -4.045740881847563e-08 2.619825645713909 1.5125573757995021 4.278157531066098 2.6198254368708858 1.9416585249017176e-07 -1.1848342600696301e-07 5.2396509551227295" Properties=species:S:1:pos:R:3:forces:R:3 energy=-39.181297302246094 free_energy=-39.181297302246094 stress="0.0001062519004335627 -4.890818416924958e-08 4.790390661923993e-08 -4.890818416924958e-08 0.0001063217714545317 -4.225471883501086e-08 4.790390661923993e-08 -4.225471883501086e-08 0.00010645890870364383" pbc="T T T"
Li       1.51255711       1.06953957       2.61982566       0.00000022       0.00000068       0.00000062
Li       4.53767197       3.20861790       7.85947646      -0.00000019      -0.00000123       0.00000157
Sn       0.00000070      -0.00000084       0.00000229      -0.00000905       0.00001012      -0.00003493
O        1.67484346       1.18429357       5.23965082       0.00089264       0.00063267       0.00000023
O        4.37538602       3.09386412       5.23965077      -0.00089377      -0.00063378       0.00000110
O        3.70024991       1.18429309       4.07028262      -0.00044978       0.00063458       0.00077915
O        2.34997973       3.09386358       6.40901892       0.00044525      -0.00062808      -0.00076783
O        2.34997961       3.09386461       4.07028253       0.00045344      -0.00063786       0.00078303
O        3.70024978       1.18429363       6.40901851      -0.00043905       0.00062314      -0.00076324
