9
Lattice="4.242772077394693 1.983501853928638e-07 2.449565817395117 1.414257584678638 4.000125045065863 2.44956575064043 1.8238074950474014e-07 4.7205265042436595e-08 4.899131318897484" Properties=species:S:1:pos:R:3:forces:R:3 energy=-43.22588348388672 free_energy=-43.22588348388672 stress="-0.00019372715905774385 1.2996400755582727e-07 1.7572055810433085e-07 1.2996400755582727e-07 -0.0001933239254867658 7.915449629081195e-08 1.7572055810433085e-07 7.915449629081195e-08 -0.00019396112475078553" pbc="T T T"
Li       1.41425761       1.00003189       2.44956619       0.00000052       0.00000368       0.00000006
Li       4.24277269       3.00009439       7.34869762       0.00000171       0.00000265       0.00000406
S        0.00000052       0.00000077       0.00000005      -0.00000896      -0.00000499       0.00000074
O        1.31099898       0.92701636       4.89913160      -0.00634885      -0.00448930      -0.00000247
O        4.34603167       3.07310893       4.89913090       0.00633395       0.00448644       0.00000418
O        3.58727235       0.92701608       3.58492396       0.00317371      -0.00449038      -0.00550020
O        2.06975603       3.07310879       6.21333894      -0.00315922       0.00448525       0.00548387
O        2.06975677       3.07310864       3.58492346      -0.00317109       0.00448930      -0.00549161
O        3.58727292       0.92701619       6.21333840       0.00317776      -0.00448382       0.00550056
