9
Lattice="4.86288897473931 1.8230234322232967e-07 2.8075908883211067 1.6209632804384033 4.584774515748071 2.8075906857020367 -2.0174744520020877e-07 -3.908137840177166e-07 5.615182126079299" Properties=species:S:1:pos:R:3:forces:R:3 energy=-53.56913757324219 free_energy=-53.56913757324219 stress="0.0002272229321533814 -7.229747325254721e-07 1.1339170491453388e-08 -7.229747325254721e-07 0.00022798198915552348 5.864710672653928e-08 1.1339170491453388e-08 5.864710672653928e-08 0.00022843365150038153" pbc="T T T"
Li       1.62096413       1.14619326       2.80759108      -0.00000326       0.00000461       0.00000185
Li       4.86288747       3.43858029       8.42277380      -0.00000241       0.00000148       0.00000252
Ta      -0.00000042       0.00000108      -0.00000100      -0.00000575       0.00001358       0.00002279
O        1.58609410       1.12153593       5.61518161       0.00278050       0.00196573       0.00000353
O        4.89776067       3.46323650       5.61518064      -0.00279570      -0.00196758       0.00000205
O        4.06984099       1.12153972       4.18119116      -0.00136438       0.00192916       0.00235868
O        2.41400955       3.46323544       7.04917524       0.00138825      -0.00195712      -0.00239533
O        2.41401031       3.46323554       4.18118848       0.00137588      -0.00193661       0.00237840
O        4.06984263       1.12153842       7.04917245      -0.00137195       0.00194654      -0.00237483
