9
Lattice="6.383515504473139 -2.984536630450085e-08 3.6855244087101755 2.1278384807292383 6.018436038671808 3.6855243959334762 3.3002861675324486e-08 7.688311264496922e-09 7.371048760257754" Properties=species:S:1:pos:R:3:forces:R:3 energy=-37.230934143066406 free_energy=-37.230934143066406 stress="-0.00013257743557915092 -1.58299258146144e-08 2.264491261172452e-09 -1.58299258146144e-08 -0.0001325721968896687 2.7185806938945234e-09 2.264491261172452e-09 2.7185806938945234e-09 -0.0001325527555309236" pbc="T T T"
Li       2.12783837       1.50460919       3.68552449      -0.00000011       0.00000051       0.00000001
Li       6.38351563       4.51382687      11.05657309       0.00000005      -0.00000046       0.00000004
Ta      -0.00000005      -0.00000028       0.00000008      -0.00000038       0.00000151      -0.00000101
Te       2.24765842       1.58933444       7.37104890       0.00482843       0.00341467      -0.00000033
Te       6.26369581       4.42910163       7.37104881      -0.00482899      -0.00341457      -0.00000022
Te       5.25968630       1.58933445       5.63205366      -0.00241388       0.00341313       0.00417951
Te       3.25166763       4.42910151       9.11004396       0.00241331      -0.00341284      -0.00418023
Te       3.25166770       4.42910168       5.63205345       0.00241444      -0.00341439       0.00418115
Te       5.25968630       1.58933459       9.11004377      -0.00241285       0.00341244      -0.00417896
