9
Lattice="5.832557979348593 3.655282929374973e-07 3.367429069735224 1.944186310778782 5.498988908363263 3.3674291164326062 5.980734460064083e-08 9.948260346993104e-08 6.734858035881114" Properties=species:S:1:pos:R:3:forces:R:3 energy=-28.91628646850586 free_energy=-28.91628646850586 stress="-1.5022483239590656e-05 -2.8185214162590455e-09 -7.697272819129353e-10 -2.8185214162590455e-09 -1.5069364962982945e-05 -3.921633240366873e-09 -7.697272819129353e-10 -3.921633240366873e-09 -1.5037461707834154e-05" pbc="T T T"
Li       1.94418641       1.37474696       3.36742894       0.00000135      -0.00000216       0.00000016
Li       5.83255821       4.12424264      10.10228660      -0.00000178       0.00000176      -0.00000241
Te       0.00000085       0.00000031      -0.00000059      -0.00000889      -0.00000646       0.00000424
Se       2.31723234       1.63852997       6.73485792       0.00116491       0.00082125       0.00000014
Se       5.45950945       3.86045854       6.73485905      -0.00115052      -0.00081208       0.00000087
Se       4.67394104       1.63853098       5.37421180      -0.00058055       0.00081632       0.00100243
Se       3.10280383       3.86045822       8.09550433       0.00057909      -0.00081941      -0.00100201
Se       3.10280328       3.86045818       5.37421230       0.00057682      -0.00081758       0.00100049
Se       4.67394201       1.63853161       8.09550468      -0.00058037       0.00081822      -0.00100380
