9
Lattice="5.777557894602013 -2.486396652522638e-08 3.3356744873980677 1.9258526304623151 5.447133212940099 3.3356744486513876 6.966607959394892e-08 1.806579903762156e-09 6.671348854130862" Properties=species:S:1:pos:R:3:forces:R:3 energy=-35.92222595214844 free_energy=-35.92222595214844 stress="-0.00016756419790908694 7.1556049974219604e-09 -2.6198543334743363e-09 7.1556049974219604e-09 -0.0001675155508564785 2.1009967099416826e-09 -2.6198543334743363e-09 2.1009967099416826e-09 -0.0001675811072345823" pbc="T T T"
Li       1.92585296       1.36178378       3.33567434       0.00000056       0.00000152      -0.00000022
Li       5.77755748       4.08534953      10.00702350      -0.00000039      -0.00000094       0.00000045
Ti       0.00000018      -0.00000005       0.00000048      -0.00000034      -0.00000010      -0.00000704
Se       2.00838338       1.42014185       6.67134868      -0.00800422      -0.00565906      -0.00000031
Se       5.69502734       4.02699182       6.67134889       0.00800456       0.00566088      -0.00000055
Se       4.77336670       1.42014133       5.07498497       0.00400113      -0.00565794      -0.00692988
Se       2.93004417       4.02699153       8.26771267      -0.00400285       0.00566005       0.00693410
Se       2.93004406       4.02699153       5.07498479      -0.00400084       0.00565719      -0.00693030
Se       4.77336608       1.42014140       8.26771283       0.00400235      -0.00566159       0.00693370
