9
Lattice="5.404785217733148 -4.534203675440636e-08 3.120454316889768 1.8015951246619606 5.095679897781389 3.12045415263387 2.444467939207634e-07 -2.8321474400976402e-08 6.240908210385163" Properties=species:S:1:pos:R:3:forces:R:3 energy=-43.41571044921875 free_energy=-43.41571044921875 stress="0.0001000527263386175 -2.0285293444999297e-08 2.7916273737105257e-08 -2.0285293444999297e-08 0.00010009480320150033 -4.915460749543854e-08 2.7916273737105257e-08 -4.915460749543854e-08 0.00010018491593655199" pbc="T T T"
Li       1.80159531       1.27392008       3.12045452       0.00000003      -0.00000052      -0.00000012
Li       5.40478567       3.82176014       9.36136257       0.00000074       0.00000054      -0.00000000
Ta       0.00000011       0.00000008       0.00000008       0.00000031      -0.00000259       0.00000147
S        1.93117288       1.36554501       6.24090769       0.00027055       0.00019088      -0.00000097
S        5.27520772       3.73013459       6.24090812      -0.00026938      -0.00019106      -0.00000040
S        4.43919923       1.36554532       4.79289921      -0.00013377       0.00019091       0.00023398
S        2.76718170       3.73013481       7.68891742       0.00013524      -0.00019038      -0.00023156
S        2.76718116       3.73013455       4.79289974       0.00013097      -0.00018701       0.00022882
S        4.43919866       1.36554471       7.68891761      -0.00013438       0.00018901      -0.00023121
