9
Lattice="4.8815721232176905 -2.720267488966324e-07 2.8183770409910167 1.6271905984959785 4.602389310924516 2.818376785988266 2.3042974513068954e-07 -1.493749233945466e-07 5.636753682865941" Properties=species:S:1:pos:R:3:forces:R:3 energy=-40.513153076171875 free_energy=-40.513153076171875 stress="0.00011061770055675879 -2.180198208634465e-07 4.203499770483177e-08 -2.180198208634465e-07 0.00011076933151343837 -1.3195798942433612e-07 4.203499770483177e-08 -1.3195798942433612e-07 0.00011099434777861461" pbc="T T T"
Li       1.62719127       1.15059685       2.81837645       0.00000249       0.00000060      -0.00000014
Li       4.88157228       3.45179061       8.45513105      -0.00000126      -0.00000132      -0.00000302
Te      -0.00000018       0.00000043      -0.00000072      -0.00000166      -0.00000573       0.00001979
O        1.58424464       1.12023012       5.63675316      -0.00056291      -0.00039732       0.00000051
O        4.92451784       3.48215970       5.63675450       0.00056362       0.00040138       0.00000000
O        4.08944865       1.12023054       4.19037405       0.00028861      -0.00040722      -0.00049973
O        2.41931436       3.48215749       7.08313560      -0.00028199       0.00039959       0.00049180
O        2.41931315       3.48215761       4.19037438      -0.00029182       0.00041270      -0.00050360
O        4.08944963       1.12023153       7.08313372       0.00028545      -0.00040299       0.00049514
