9
Lattice="5.8460628843012605 7.152587025742282e-08 3.3752259876464037 1.9486876513797404 5.511720868558114 3.3752260641267138 -6.505209779885632e-08 4.767005988796726e-08 6.750452087966304" Properties=species:S:1:pos:R:3:forces:R:3 energy=-29.323802947998047 free_energy=-29.323802947998047 stress="7.318311691051349e-05 1.0497958413679953e-07 -3.151154714942095e-08 1.0497958413679953e-07 7.316084520425647e-05 3.663306102907882e-08 -3.151154714942095e-08 3.663306102907882e-08 7.305059989448637e-05" pbc="T T T"
Li       1.94868720       1.37793070       3.37522603      -0.00000209       0.00000216       0.00000077
Li       5.84606323       4.13379014      10.12567799       0.00000120      -0.00000297      -0.00000063
Te       0.00000002       0.00000001      -0.00000003       0.00000107       0.00000282       0.00000661
S        1.93445575       1.36786737       6.75045178      -0.00081038      -0.00057220      -0.00000071
S        5.86029473       4.14385329       6.75045181       0.00080931       0.00056988      -0.00000082
S        4.87883533       1.36786709       5.05051357       0.00040290      -0.00056911      -0.00069678
S        2.91591523       4.14385406       8.45039073      -0.00040030       0.00056517       0.00069392
S        2.91591503       4.14385424       5.05051388      -0.00040114       0.00056654      -0.00069296
S        4.87883551       1.36786699       8.45039094       0.00039947      -0.00056231       0.00069052
