9
Lattice="6.291868974690429 -1.9163684555460451e-07 3.632612270735891 2.0972895347798537 5.932031229316312 3.6326121716162847 -3.2050286229936217e-08 -1.4405903953546351e-07 7.265224596984318" Properties=species:S:1:pos:R:3:forces:R:3 energy=-33.831241607666016 free_energy=-33.831241607666016 stress="1.1789531527028885e-05 -2.9529212852708042e-08 7.0782419925308204e-09 -2.9529212852708042e-08 1.1806953807536047e-05 -3.015798721861529e-09 7.0782419925308204e-09 -3.015798721861529e-09 1.1827291018562391e-05" pbc="T T T"
Li       2.09728982       1.48300759       3.63261254       0.00000049       0.00000023       0.00000003
Li       6.29186864       4.44902339      10.89783717      -0.00000053      -0.00000019       0.00000042
Ti       0.00000150       0.00000006       0.00000075      -0.00000604       0.00000050      -0.00000461
Te       2.21434268       1.56577664       7.26522441       0.00101504       0.00071850      -0.00000054
Te       6.17481495       4.36625339       7.26522440      -0.00101130      -0.00071375      -0.00000088
Te       5.18469731       1.56577772       5.55028961      -0.00050551       0.00071422       0.00087436
Te       3.20446139       4.36625313       8.98015975       0.00050439      -0.00071420      -0.00087594
Te       3.20446115       4.36625376       5.55028902       0.00050666      -0.00071614       0.00087832
Te       5.18469646       1.56577792       8.98015851      -0.00050327       0.00071073      -0.00087114
