9
Lattice="5.753545567576073 3.996955534715917e-07 3.3218110607581193 1.9178488993160863 5.424495255351584 3.32181106083759 -7.745957038865361e-08 -5.46748402161029e-08 6.643622255680244" Properties=species:S:1:pos:R:3:forces:R:3 energy=-39.776634216308594 free_energy=-39.776634216308594 stress="0.00020538302487693727 3.5119064989430626e-08 -3.0000901318771866e-08 3.5119064989430626e-08 0.00020528935419861227 6.246347084015724e-08 -3.0000901318771866e-08 6.246347084015724e-08 0.00020525978470686823" pbc="T T T"
Li       1.91784861       1.35612393       3.32181103       0.00000057      -0.00000078      -0.00000020
Li       5.75354576       4.06837170       9.96543374       0.00000010       0.00000068       0.00000094
Ta       0.00000071      -0.00000045      -0.00000100      -0.00000687       0.00000484       0.00001039
Se       2.04869077       1.44864284       6.64362242       0.00688078       0.00486428      -0.00000003
Se       5.62270373       3.97585286       6.64362200      -0.00687888      -0.00486333      -0.00000115
Se       4.72919990       1.44864351       5.09602922      -0.00343828       0.00486363       0.00595500
Se       2.94219395       3.97585248       8.19121538       0.00344350      -0.00486956      -0.00596353
Se       2.94219422       3.97585291       5.09602900       0.00344295      -0.00486742       0.00596143
Se       4.72919990       1.44864266       8.19121570      -0.00344376       0.00486752      -0.00596293
