9
Lattice="4.344001481689685 -3.2982997669204187e-06 2.5080061451273803 1.447997143237525 4.095558332586661 2.508006562539287 -1.393652983059349e-06 -4.7423889696993013e-07 5.016014704134131" Properties=species:S:1:pos:R:3:forces:R:3 energy=-48.89467239379883 free_energy=-48.89467239379883 stress="-0.00017630687216296792 -8.67580183694372e-07 -2.2014214096088836e-07 -8.67580183694372e-07 -0.0001764951302902773 4.877950132708975e-08 -2.2014214096088836e-07 4.877950132708975e-08 -0.00017617522098589689" pbc="T T T"
Li       1.44799589       1.02388702       2.50800694       0.00000414      -0.00000662      -0.00000252
Li       4.34399454       3.07167157       7.52402586      -0.00000649       0.00000447      -0.00000409
Ti      -0.00000976       0.00000433       0.00000624       0.00004753      -0.00002146      -0.00003061
O        1.54512800       1.09256109       5.01601833       0.00006461       0.00005496       0.00000208
O        4.24687494       3.00298937       5.01601342      -0.00006497      -0.00006315      -0.00001867
O        3.57144379       1.09256453       3.84611721      -0.00003189       0.00007081       0.00006437
O        2.22057233       3.00299000       6.18589667      -0.00000918      -0.00000206      -0.00001603
O        2.22055725       3.00298793       3.84612241       0.00001225      -0.00005817       0.00004959
O        3.57143364       1.09256427       6.18590105      -0.00001588       0.00002152      -0.00004387
