9
Lattice="4.356697839764723 -8.319267041040628e-07 2.515340802222668 1.452231834197841 4.10752985602557 2.515340793055825 -1.7082575717278873e-06 -1.2191472099383386e-06 5.0306845632319765" Properties=species:S:1:pos:R:3:forces:R:3 energy=-46.35508728027344 free_energy=-46.35508728027344 stress="-0.00033253844594582915 -3.74067155917146e-07 -4.537942910332049e-09 -3.74067155917146e-07 -0.000332534866174683 2.816645050529587e-08 -4.537942910332049e-09 2.816645050529587e-08 -0.0003321598342154175" pbc="T T T"
Li       1.45222987       1.02687180       2.51534538       0.00000006      -0.00000353      -0.00000139
Li       4.35669187       3.08065315       7.54602980      -0.00000148       0.00000118      -0.00000092
V       -0.00000028      -0.00000292      -0.00000363      -0.00000340       0.00001373       0.00002200
O        1.50330701       1.06298615       5.03068503      -0.00157821      -0.00112301       0.00000010
O        4.30562106       3.04453935       5.03067653       0.00158215       0.00112319      -0.00000796
O        3.60503706       1.06299549       3.81723822       0.00078925      -0.00113338      -0.00140858
O        2.20388015       3.04452520       6.24413103      -0.00080809       0.00109363       0.00139272
O        2.20388600       3.04454392       3.81724899      -0.00081483       0.00114185      -0.00136817
O        3.60505641       1.06299701       6.24412068       0.00083500      -0.00111353       0.00137174
