9
Lattice="6.175437436609454 2.2751438014081586e-08 3.5653903832663576 2.0584790758931346 5.822258240874116 3.5653905410451663 -1.9468519368060255e-07 5.55756101178651e-08 7.130781103737136" Properties=species:S:1:pos:R:3:forces:R:3 energy=-33.6243782043457 free_energy=-33.6243782043457 stress="-3.200229912181385e-06 9.67954272290683e-10 -1.1386825704562398e-08 9.67954272290683e-10 -3.2217885745922104e-06 9.422113755874761e-09 -1.1386825704562398e-08 9.422113755874761e-09 -3.209242095181253e-06" pbc="T T T"
Li       2.05847928       1.45556456       3.56539056       0.00000012      -0.00000030      -0.00000008
Li       6.17543713       4.36669364      10.69617125       0.00000000       0.00000013      -0.00000095
V       -0.00000005      -0.00000036       0.00000041       0.00000020      -0.00000079      -0.00000346
Te       2.17604852       1.53869861       7.13078105      -0.00175382      -0.00124051      -0.00000110
Te       6.05786754       4.28356021       7.13078154       0.00175341       0.00124036      -0.00000080
Te       5.08741354       1.53869830       5.44990390       0.00087618      -0.00123844      -0.00151817
Te       3.14650385       4.28355928       8.81165744      -0.00087858       0.00124306       0.00152196
Te       3.14650237       4.28356004       5.44990379      -0.00087566       0.00123781      -0.00151718
Te       5.08741309       1.53869899       8.81165815       0.00087820      -0.00124134       0.00151965
