9
Lattice="5.329567157145442 1.717450044792428e-07 3.0770267335529207 1.7765225243113543 5.024763449801221 3.077026773955682 1.1248963775655799e-07 1.2902517258320695e-07 6.154053272268137" Properties=species:S:1:pos:R:3:forces:R:3 energy=-39.59074783325195 free_energy=-39.59074783325195 stress="1.8143828128813766e-05 9.238168274805503e-08 -8.385553940115642e-08 9.238168274805503e-08 1.8120847016689368e-05 8.900195780370268e-08 -8.385553940115642e-08 8.900195780370268e-08 1.8044245734927244e-05" pbc="T T T"
Li       1.77652232       1.25619114       3.07702639      -0.00000078       0.00000119      -0.00000064
Li       5.32956730       3.76857297       9.23107989       0.00000014       0.00000010      -0.00000017
V       -0.00000047       0.00000148      -0.00000011       0.00000579      -0.00001511       0.00000349
S        1.81185769       1.28117646       6.15405316      -0.00071502      -0.00050810      -0.00000062
S        5.29423218       3.74358652       6.15405316       0.00072187       0.00050664      -0.00000037
S        4.42363869       1.28117654       4.64614123       0.00035569      -0.00050256      -0.00061351
S        2.68245130       3.74358653       7.66196579      -0.00036025       0.00050765       0.00062591
S        2.68245106       3.74358732       4.64614086      -0.00035876       0.00050679      -0.00062174
S        4.42363927       1.28117611       7.66196672       0.00035143      -0.00049663       0.00060749
