9
Lattice="5.009192943421649 -5.154810480978946e-07 2.892059022364778 1.6697309473520527 4.722710655006514 2.8920582391112313 4.529227561685817e-07 -6.390210766970923e-07 5.7841172602443685" Properties=species:S:1:pos:R:3:forces:R:3 energy=-48.10538864135742 free_energy=-48.10538864135742 stress="-0.0001648506586207077 -1.3895559902721288e-07 -6.105115346599632e-08 -1.3895559902721288e-07 -0.00016504296218045056 3.538750803500079e-08 -6.105115346599632e-08 3.538750803500079e-08 -0.00016478875477332622" pbc="T T T"
Li       1.66973286       1.18067642       2.89205771       0.00000479      -0.00000512      -0.00000213
Li       5.00919273       3.54203089       8.67617654      -0.00000130      -0.00000104      -0.00000194
W       -0.00000004      -0.00000084      -0.00000131       0.00000992       0.00000310       0.00000728
O        1.53591316       1.08605338       5.78411761       0.00067258       0.00048065       0.00000082
O        5.14301076       3.63665764       5.78411716      -0.00068241      -0.00048959      -0.00000113
O        4.24123630       1.08605264       4.22219813      -0.00033394       0.00047952       0.00058705
O        2.43768943       3.63665732       7.34603506       0.00033394      -0.00047469      -0.00058120
O        2.43768780       3.63665758       4.22219745       0.00033537      -0.00047737       0.00058132
O        4.24123531       1.08605388       7.34603862      -0.00033855       0.00048494      -0.00059032
