9
Lattice="5.536724044639782 -5.995956791437736e-09 3.196629201416905 1.845574698485654 5.22007364848442 3.196629162286275 2.565539156369879e-08 -2.9784011398496693e-08 6.393258358397428" Properties=species:S:1:pos:R:3:forces:R:3 energy=-43.94697952270508 free_energy=-43.94697952270508 stress="-7.095652836142108e-05 -8.802112461125944e-08 -4.209096715612759e-08 -8.802112461125944e-08 -7.088722486514598e-05 4.421104193852443e-08 -4.209096715612759e-08 4.421104193852443e-08 -7.080243085511029e-05" pbc="T T T"
Li       1.84557465       1.30501817       3.19662923      -0.00000036      -0.00000039      -0.00000025
Li       5.53672363       3.91505493       9.58988739      -0.00000061      -0.00000068       0.00000007
W        0.00000029       0.00000049      -0.00000006      -0.00000775      -0.00002085      -0.00000358
S        1.84768454       1.30651069       6.39325844       0.00060819       0.00042817      -0.00000048
S        5.53461396       3.91356255       6.39325838      -0.00058895      -0.00041826      -0.00000043
S        4.61288175       1.30651107       4.79677137      -0.00029879       0.00042243       0.00051667
S        2.76941777       3.91356278       7.98974483       0.00029370      -0.00041391      -0.00050651
S        2.76941715       3.91356300       4.79677183       0.00029519      -0.00041805       0.00051181
S        4.61288138       1.30651078       7.98974546      -0.00030059       0.00042148      -0.00051759
