9
Lattice="6.4854903774589365 1.109726041338448e-07 3.74439949904523 2.161830205747233 6.114578995459676 3.744399541823992 -3.3240720856932966e-08 2.8888383032222384e-08 7.488799055665108" Properties=species:S:1:pos:R:3:forces:R:3 energy=-34.716697692871094 free_energy=-34.716697692871094 stress="7.692320650676265e-06 2.525070819103803e-08 -1.0774855313533394e-10 2.525070819103803e-08 7.679311238462105e-06 4.095166872275513e-09 -1.0774855313533394e-10 4.095166872275513e-09 7.665241355425678e-06" pbc="T T T"
Li       2.16183014       1.52864491       3.74439964      -0.00000019       0.00000013      -0.00000001
Li       6.48549050       4.58593431      11.23319862       0.00000009      -0.00000027      -0.00000014
Zr       0.00000034       0.00000003      -0.00000019      -0.00000332      -0.00000038       0.00000246
Te       2.32754772       1.64582477       7.48879904      -0.00080435      -0.00056913       0.00000004
Te       6.31977229       4.46875404       7.48879899       0.00080816       0.00057194       0.00000022
Te       5.32171658       1.64582478       5.76011506       0.00040228      -0.00056998      -0.00069746
Te       3.32560404       4.46875446       9.21748311      -0.00040178       0.00056783       0.00069532
Te       3.32560401       4.46875440       5.76011505      -0.00040239       0.00056843      -0.00069621
Te       5.32171660       1.64582484       9.21748307       0.00040151      -0.00056862       0.00069577
