9
Lattice="5.863698740004555 1.4847052885033184e-07 3.3854082844695785 1.9545664238421838 5.528348291606666 3.385408220046567 -9.241190930553793e-08 -1.442467100338681e-07 6.770816729001222" Properties=species:S:1:pos:R:3:forces:R:3 energy=-35.955955505371094 free_energy=-35.955955505371094 stress="2.3161579520092346e-05 4.081580229353676e-08 -2.5031225092675413e-08 4.081580229353676e-08 2.3075434000929818e-05 -8.24576851243819e-09 -2.5031225092675413e-08 -8.24576851243819e-09 2.2992975573288277e-05" pbc="T T T"
Li       1.95456598       1.38208604       3.38540947       0.00000013      -0.00000172       0.00000304
Li       5.86369954       4.14626208      10.15622413       0.00000074       0.00000193      -0.00000166
Zr       0.00000081       0.00000064       0.00000025      -0.00000569      -0.00000330      -0.00000268
Se       2.14533067       1.51697655       6.77081613       0.00116028       0.00081615      -0.00000076
Se       5.67293431       4.01137036       6.77081707      -0.00115456      -0.00081809       0.00000238
Se       4.79103290       1.51697749       5.24331737      -0.00058245       0.00082116       0.00100370
Se       3.02723128       4.01137159       8.29831449       0.00058033      -0.00081668      -0.00100465
Se       3.02723096       4.01137102       5.24331846       0.00058002      -0.00081871       0.00100470
Se       4.79103386       1.51697740       8.29831547      -0.00057874       0.00081923      -0.00100413
