9
Lattice="6.2328149491483416 8.120014622156668e-10 3.5985173578740994 2.077604945753779 5.8763543442770425 3.598517423798053 -6.083759284528607e-08 3.7721344200860133e-08 7.197034821122034" Properties=species:S:1:pos:R:3:forces:R:3 energy=-24.40886116027832 free_energy=-24.40886116027832 stress="-0.0002150929649360478 -4.548991405783909e-09 2.1126429494700005e-09 -4.548991405783909e-09 -0.0002150774816982448 2.117830577574864e-09 2.1126429494700005e-09 2.117830577574864e-09 -0.0002150981454178691" pbc="T T T"
Mg       2.07760533       1.46908923       3.59851701       0.00000066       0.00000210      -0.00000096
Mg       6.23281485       4.40726521      10.79555205      -0.00000081      -0.00000156      -0.00000016
Ag       0.00000006      -0.00000019      -0.00000008       0.00000049       0.00000120       0.00000220
Te       2.26118605       1.59890046       7.19703493      -0.00650975      -0.00460266      -0.00000045
Te       6.04923369       4.27745411       7.19703482       0.00650851       0.00460128      -0.00000031
Te       5.10222178       1.59890045       5.55676216       0.00325536      -0.00460219      -0.00563753
Te       3.20819798       4.27745370       8.83730769      -0.00325409       0.00460141       0.00563657
Te       3.20819801       4.27745396       5.55676207      -0.00325442       0.00460209      -0.00563712
Te       5.10222159       1.59890057       8.83730779       0.00325406      -0.00460171       0.00563774
