9
Lattice="4.587548403510565 9.864256781984963e-08 2.648622019841348 1.529182878689858 4.325182134638666 2.6486220466559933 1.352743355284996e-08 4.24064261191026e-08 5.297244016252505" Properties=species:S:1:pos:R:3:forces:R:3 energy=-36.6356201171875 free_energy=-36.6356201171875 stress="0.00037596275797113776 9.818385215965009e-09 5.3230309049467905e-09 9.818385215965009e-09 0.0003757997474167496 -3.627186107024727e-09 5.3230309049467905e-09 -3.627186107024727e-09 0.00037596243782900274" pbc="T T T"
Mg       1.52918310       1.08129620       2.64862180       0.00000073       0.00000265      -0.00000132
Mg       4.58754852       3.24388598       7.94586586       0.00000050      -0.00000345      -0.00000175
Ag       0.00000012      -0.00000041       0.00000040       0.00000029       0.00000485      -0.00000576
O        1.65142778       1.16773653       5.29724403      -0.00554800      -0.00392038       0.00000000
O        4.46530345       3.15744623       5.29724389       0.00554609       0.00392032       0.00000079
O        3.76183460       1.16773597       4.07880040       0.00277227      -0.00392097      -0.00480282
O        2.35489705       3.15744587       6.51568782      -0.00277382       0.00392163       0.00480568
O        2.35489645       3.15744636       4.07880034      -0.00277323       0.00391942      -0.00480127
O        3.76183412       1.16773644       6.51568768       0.00277483      -0.00392425       0.00480586
