9
Lattice="4.549975803208565 4.227177939922536e-08 2.626929554743407 1.5166586291626083 4.289758086463015 2.626929575114269 4.5313920461296035e-08 5.699089668329162e-08 5.253859031000794" Properties=species:S:1:pos:R:3:forces:R:3 energy=-38.323387145996094 free_energy=-38.323387145996094 stress="0.000204168536583893 4.159184996410659e-09 2.993479242263675e-08 4.159184996410659e-09 0.0002042633423116058 2.548045330286186e-09 2.993479242263675e-08 2.548045330286186e-09 0.00020424478861968964" pbc="T T T"
Mg       1.51665911       1.07243903       2.62692997       0.00000220      -0.00000130       0.00000167
Mg       4.54997605       3.21731820       7.88078840       0.00000163      -0.00000215      -0.00000005
Au       0.00000017       0.00000009       0.00000028      -0.00000701      -0.00000443      -0.00002303
O        1.59554235       1.12821963       5.25385907      -0.00122032      -0.00086126       0.00000010
O        4.47109160       3.16153918       5.25385877       0.00122336       0.00086689      -0.00000161
O        3.75220366       1.12821912       4.00870928       0.00060378      -0.00085938      -0.00105527
O        2.31443050       3.16153873       6.49900861      -0.00060844       0.00086564       0.00106505
O        2.31442956       3.16153960       4.00871067      -0.00061062       0.00086367      -0.00105056
O        3.75220492       1.12821913       6.49900781       0.00061555      -0.00086755       0.00106397
