9
Lattice="5.885291516867704 4.9254324717922736e-08 3.397874579572885 1.961763865334313 5.548705662510177 3.3978746143160685 2.0513049564062633e-09 4.400205936214684e-08 6.795749155592766" Properties=species:S:1:pos:R:3:forces:R:3 energy=-25.739484786987305 free_energy=-25.739484786987305 stress="-1.5149751561693847e-05 8.675265839030999e-09 -4.057803426604778e-09 8.675265839030999e-09 -1.5191986676654778e-05 1.0583255161122906e-08 -4.057803426604778e-09 1.0583255161122906e-08 -1.5171641280176118e-05" pbc="T T T"
Mg       1.96176398       1.38717593       3.39787516       0.00000039      -0.00000138       0.00000280
Mg       5.88529100       4.16153051      10.19362402      -0.00000192       0.00000401       0.00000001
Ag      -0.00000035       0.00000018      -0.00000040       0.00000495      -0.00000220       0.00000387
Se       2.10745053       1.49019183       6.79574924      -0.00775531      -0.00548673      -0.00000046
Se       5.73960533       4.05851371       6.79574922       0.00775394       0.00548223      -0.00000047
Se       4.83156639       1.49019184       5.22297978       0.00387743      -0.00548454      -0.00671621
Se       3.01548884       4.05851429       8.36851817      -0.00387712       0.00548537       0.00671551
Se       3.01548919       4.05851354       5.22297973      -0.00387776       0.00548466      -0.00671802
Se       4.83156664       1.49019118       8.36851842       0.00387526      -0.00548148       0.00671302
