9
Lattice="5.912078594224171 1.0889190019366162e-07 3.41334038799249 1.9706929398450663 5.573961459196264 3.4133404357288555 -8.52202185411468e-08 -1.7949172332600843e-09 6.826680923590822" Properties=species:S:1:pos:R:3:forces:R:3 energy=-26.145158767700195 free_energy=-26.145158767700195 stress="0.00023163962760008872 -1.164162455324913e-08 3.261695624701133e-08 -1.164162455324913e-08 0.00023160036653280258 1.5495883465277416e-09 3.261695624701133e-08 1.5495883465277416e-09 0.0002315477468073368" pbc="T T T"
Mg       1.97069269       1.39349051       3.41334062      -0.00000173       0.00000109       0.00000160
Mg       5.91207891       4.18047142      10.24002041       0.00000132       0.00000144      -0.00000268
Au       0.00000013       0.00000017      -0.00000003      -0.00000093       0.00000043      -0.00000127
Se       2.13104218       1.50687436       6.82668025      -0.00763732      -0.00540042      -0.00000239
Se       5.75172936       4.06708630       6.82668128       0.00763959       0.00539815       0.00000139
Se       4.84655760       1.50687426       5.25887722       0.00381994      -0.00540149      -0.00661352
Se       3.03621371       4.06708768       8.39448498      -0.00381909       0.00540185       0.00661385
Se       3.03621378       4.06708713       5.25887730      -0.00381899       0.00540039      -0.00661319
Se       4.84655738       1.50687439       8.39448498       0.00381713      -0.00540134       0.00661623
