9
Lattice="5.511246563450384 1.1103057437925103e-07 3.181919748274022 1.8370822716710424 5.196053110037972 3.1819197843463787 6.177045755255812e-08 8.7857766889024e-08 6.363839389558473" Properties=species:S:1:pos:R:3:forces:R:3 energy=-28.249893188476562 free_energy=-28.249893188476562 stress="-7.463008660124615e-05 1.8852638561384083e-08 -2.187576164658367e-08 1.8852638561384083e-08 -7.461957284249365e-05 2.1524021676100347e-08 -2.187576164658367e-08 2.1524021676100347e-08 -7.462465146090835e-05" pbc="T T T"
Mg       1.83708213       1.29901326       3.18191970       0.00000038      -0.00000205       0.00000090
Mg       5.51124713       3.89704037       9.54575861       0.00000211       0.00000218      -0.00000330
Au      -0.00000018       0.00000011       0.00000010      -0.00000057      -0.00000307      -0.00000140
S        1.95890929       1.38515798       6.36383930      -0.00081891      -0.00057912      -0.00000099
S        5.38941931       3.81089487       6.36383969       0.00082242       0.00058138       0.00000194
S        4.53179169       1.38515771       4.87838524       0.00040743      -0.00058135      -0.00070816
S        2.81653726       3.81089530       7.84929390      -0.00041059       0.00058150       0.00071186
S        2.81653685       3.81089534       4.87838518      -0.00041202       0.00058022      -0.00071031
S        4.53179206       1.38515822       7.84929409       0.00040975      -0.00057951       0.00070935
