9
Lattice="6.0477469150997525 1.7146783109659022e-07 3.491668432842782 2.015915729758834 5.701871246116289 3.4916685545526187 7.985532376374241e-08 2.0552969839188856e-07 6.983336727372171" Properties=species:S:1:pos:R:3:forces:R:3 energy=-26.16719627380371 free_energy=-26.16719627380371 stress="-0.00011483482376206666 1.3166423507016134e-09 -1.6482573528264766e-08 1.3166423507016134e-09 -0.00011489489406812936 8.508640014781577e-09 -1.6482573528264766e-08 8.508640014781577e-09 -0.00011482390254968777" pbc="T T T"
Mg       2.01591526       1.42546825       3.49166791      -0.00000001       0.00000091      -0.00000102
Mg       6.04774653       4.27640323      10.47500559      -0.00000097      -0.00000180      -0.00000003
Be      -0.00000011       0.00000027      -0.00000026       0.00000244      -0.00000492       0.00000397
Te       1.90683222       1.34833504       6.98333667       0.00155917       0.00110370      -0.00000063
Te       6.15683040       4.35353681       6.98333600      -0.00155818      -0.00110394      -0.00000209
Te       5.09433145       1.34833509       5.14303427      -0.00077717       0.00110316       0.00135025
Te       2.96933212       4.35353590       8.82364016       0.00077841      -0.00110358      -0.00134602
Te       2.96933210       4.35353687       5.14303412       0.00077824      -0.00110039       0.00134763
Te       5.09433094       1.34833507       8.82364036      -0.00078206       0.00110674      -0.00135210
