9
Lattice="4.5178376265040034 -0.01320457013886721 2.584632801797907 1.5129041274895292 4.236598302008068 2.618011186263627 -0.04806064153962565 -0.07577132545544545 5.3244742376019785" Properties=species:S:1:pos:R:3:forces:R:3 energy=-109.87512969970703 free_energy=-109.87512969970703 stress="-0.00018432929937262088 -1.856061498983763e-05 -2.010731077461969e-05 -1.856061498983763e-05 -0.00015587511006742716 3.759882383747026e-05 -2.010731077461969e-05 3.759882383747026e-05 -0.0001507418492110446" pbc="T T T"
Mg       1.17543720       0.80586177       3.19048774       0.00078821      -0.00084639      -0.00016880
Mg       4.80744376       3.34138593       7.33659730       0.00100374      -0.00141239      -0.00003529
Be       0.00012019      -0.00021448      -0.00001792       0.00267396       0.00312461       0.00115898
Se       1.22729058       0.82555808       5.33991710       0.00414085       0.00401306      -0.00104904
Se       4.75563558       3.32164671       5.18717184      -0.00776672      -0.00820351       0.00046980
Se       3.88933655       0.89569976       3.68805048      -0.00259113       0.00512505       0.00456047
Se       2.09358672       3.25149085       6.83903500       0.00351715      -0.00359726      -0.00438499
Se       2.16865475       3.32919006       3.70719565       0.00322533      -0.00531387       0.00485229
Se       3.81428160       0.81800536       6.81988737      -0.00498867       0.00711060      -0.00542450
