9
Lattice="4.5076669852029925 7.557616956381064e-08 2.602503019053747 1.5025558029819062 4.249869995798531 2.602502897820945 1.1755402324347219e-08 -1.401667207683375e-07 5.205006017746266" Properties=species:S:1:pos:R:3:forces:R:3 energy=-32.356956481933594 free_energy=-32.356956481933594 stress="-0.0002929370675701648 -8.569543297198834e-08 1.1638282160220115e-07 -8.569543297198834e-08 -0.00029288348741829395 -2.9090614361848566e-07 1.1638282160220115e-07 -2.9090614361848566e-07 -0.0002928024623543024" pbc="T T T"
Mg       1.50255504       1.06246788       2.60250322       0.00001078      -0.00000302      -0.00000890
Mg       4.50766756       3.18740159       7.80750859      -0.00000532       0.00001862       0.00000763
Be       0.00000022       0.00000027       0.00000018      -0.00000499      -0.00000128       0.00000350
S        1.53377047       1.08453932       5.20500716      -0.00371253      -0.00261837      -0.00000738
S        4.47645264       3.16533071       5.20500651       0.00370705       0.00261945      -0.00002192
S        3.74078091       1.08453984       3.93078651       0.00188226      -0.00263083      -0.00320148
S        2.26944090       3.16533066       6.47922454      -0.00185123       0.00260395       0.00321704
S        2.26944131       3.16533052       3.93078652      -0.00186372       0.00262898      -0.00320286
S        3.74078253       1.08453895       6.47922445       0.00183737      -0.00261778       0.00321501
