9
Lattice="4.34279166509606 4.4284375162167705e-08 2.5073119994513866 1.4475972940415713 4.094423200560144 2.507311946465919 1.2994431987658964e-07 2.699082121970071e-08 5.014623773832607" Properties=species:S:1:pos:R:3:forces:R:3 energy=-43.32599639892578 free_energy=-43.32599639892578 stress="6.565531657543033e-05 3.987967289731387e-08 -1.899647195102716e-08 3.987967289731387e-08 6.556198059115559e-05 -2.2809667044043636e-08 -1.899647195102716e-08 -2.2809667044043636e-08 6.543344352394342e-05" pbc="T T T"
Mg       1.44759735       1.02360570       2.50731204      -0.00000029       0.00000094       0.00000084
Mg       4.34279184       3.07081767       7.52193622       0.00000040      -0.00000033       0.00000123
Be      -0.00000027       0.00000008      -0.00000002       0.00000345       0.00000091       0.00000041
O        1.36183605       0.96296333       5.01462411      -0.00487018      -0.00344259       0.00000116
O        4.42855287       3.13146013       5.01462386       0.00486451       0.00344026      -0.00000057
O        3.66187394       0.96296328       3.68669646       0.00243416      -0.00344056      -0.00421357
O        2.12851517       3.13146014       6.34255130      -0.00243315       0.00344095       0.00421405
O        2.12851526       3.13145978       3.68669587      -0.00243253       0.00343803      -0.00421417
O        3.66187406       0.96296312       6.34255141       0.00243300      -0.00343865       0.00421214
