9
Lattice="5.667774308965927 -2.0178462790151653e-08 3.272290854247388 1.889258029868865 5.34362841757831 3.2722909479433318 1.285266927533021e-07 2.0563571010359015e-07 6.544581485879947" Properties=species:S:1:pos:R:3:forces:R:3 energy=-32.14006423950195 free_energy=-32.14006423950195 stress="-0.0001824909559218213 -5.655741208698828e-09 -1.0886263446252542e-08 -5.655741208698828e-09 -0.000182469462743029 -3.122584857351285e-08 -1.0886263446252542e-08 -3.122584857351285e-08 -0.00018246984109282494" pbc="T T T"
Mg       1.88925904       1.33590616       3.27229007       0.00000352      -0.00000437      -0.00000186
Mg       5.66777501       4.00772235       9.81687385       0.00000281       0.00000297       0.00000430
Co      -0.00000011      -0.00000006       0.00000002       0.00000017       0.00000035      -0.00000115
Se       1.89082613       1.33701660       6.54458085       0.00174454       0.00123572       0.00000017
Se       5.66620583       4.00661210       6.54458052      -0.00174628      -0.00123481      -0.00000267
Se       4.72236058       1.33701558       4.90979457      -0.00087424       0.00123224       0.00151213
Se       2.83467141       4.00661255       8.17936919       0.00087266      -0.00123365      -0.00151224
Se       2.83467169       4.00661311       4.90979506       0.00087272      -0.00123047       0.00151223
Se       4.72236033       1.33701603       8.17936891      -0.00087579       0.00123196      -0.00151090
