9
Lattice="4.349623258157461 2.4422571067336415e-07 2.511256227261085 1.4498745886699254 4.10086446252418 2.511256332871309 1.1007456326591367e-07 2.0718004683016335e-07 5.022512263867397" Properties=species:S:1:pos:R:3:forces:R:3 energy=-44.828208923339844 free_energy=-44.828208923339844 stress="0.000852976634632796 7.676240088017039e-09 3.6059333297089324e-08 7.676240088017039e-09 0.0008530592313036323 -2.7815048042612034e-08 3.6059333297089324e-08 -2.7815048042612034e-08 0.0008528638281859457" pbc="T T T"
Mg       1.44987461       1.02521628       2.51125639      -0.00000038      -0.00000026       0.00000037
Mg       4.34962341       3.07564874       7.53376861      -0.00000014      -0.00000035       0.00000046
Co      -0.00000024      -0.00000034       0.00000039       0.00000933       0.00001878      -0.00001519
O        1.43600783       1.01541063       5.02251229       0.00209171       0.00148290       0.00000029
O        4.36349091       3.08545439       5.02251259      -0.00211263      -0.00149339      -0.00000069
O        3.63161955       1.01541088       3.75487477      -0.00105065       0.00149027       0.00182220
O        2.16787846       3.08545426       6.29015004       0.00105128      -0.00148562      -0.00182319
O        2.16787802       3.08545396       3.75487476       0.00105566      -0.00149348       0.00183162
O        3.63161932       1.01541097       6.29014986      -0.00104532       0.00148156      -0.00181514
