9
Lattice="5.357747474354914 1.2329337443747716e-07 3.0932968180711375 1.7859159746759532 5.051332530977219 3.09329675978964 1.0391632576576709e-07 2.099961919635815e-09 6.186593456153996" Properties=species:S:1:pos:R:3:forces:R:3 energy=-38.52055358886719 free_energy=-38.52055358886719 stress="-9.373023203806952e-05 -2.7313021178088093e-08 -8.494689396343347e-09 -2.7313021178088093e-08 -9.368459723191336e-05 1.1378902264880253e-08 -8.494689396343347e-09 1.1378902264880253e-08 -9.365945152239874e-05" pbc="T T T"
Mg       1.78591623       1.26283254       3.09329691       0.00000150      -0.00000227       0.00000025
Mg       5.35774805       3.78849981       9.27989056       0.00000187       0.00000080       0.00000245
Cr       0.00000001      -0.00000012      -0.00000025      -0.00000039       0.00000503       0.00000647
S        1.80178143       1.27405195       6.18659353       0.00038588       0.00027382       0.00000133
S        5.34188208       3.77728087       6.18659346      -0.00039086      -0.00027546       0.00000075
S        4.45685671       1.27405220       4.65368538      -0.00019063       0.00027096       0.00033158
S        2.68680639       3.77728116       7.71950173       0.00019644      -0.00027576      -0.00034216
S        2.68680647       3.77728054       4.65368498       0.00019282      -0.00027284       0.00033623
S        4.45685685       1.27405175       7.71950197      -0.00019617       0.00027588      -0.00033706
