9
Lattice="5.736351689344918 7.08542724376691e-08 3.3118843671723006 1.9121172840013867 5.408284186869265 3.3118843889654213 1.758250366954995e-08 3.912372363383428e-08 6.623768703890786" Properties=species:S:1:pos:R:3:forces:R:3 energy=-27.585479736328125 free_energy=-27.585479736328125 stress="-0.0002850820019375533 -2.8419668396395537e-08 2.6657445140187974e-09 -2.8419668396395537e-08 -0.00028506576200015843 -4.535990250076338e-09 2.6657445140187974e-09 -4.535990250076338e-09 -0.000285091606201604" pbc="T T T"
Mg       1.91211754       1.35207112       3.31188434       0.00000274      -0.00000003      -0.00000067
Mg       5.73635169       4.05621344       9.93565291      -0.00000102       0.00000108      -0.00000153
Cu       0.00000021      -0.00000007      -0.00000009      -0.00000125      -0.00000118      -0.00000129
Se       1.99550010       1.41103159       6.62376875      -0.00088644      -0.00062662      -0.00000034
Se       5.65296899       3.99725282       6.62376877       0.00088629       0.00062671       0.00000067
Se       4.73860159       1.41103144       5.04003804       0.00044259      -0.00062722      -0.00076729
Se       2.90986713       3.99725256       8.20749949      -0.00044332       0.00062728       0.00076973
Se       2.90986720       3.99725247       5.04003806      -0.00044358       0.00062677      -0.00076896
Se       4.73860154       1.41103179       8.20749962       0.00044395      -0.00062674       0.00076964
