9
Lattice="5.7605087186129245 -5.2456098489624445e-08 3.3258313213218984 1.920169609533884 5.431059465108094 3.325831172159474 1.571252831450879e-07 -7.158159607873007e-08 6.651662370494819" Properties=species:S:1:pos:R:3:forces:R:3 energy=-34.857322692871094 free_energy=-34.857322692871094 stress="-0.0001406901137670502 3.277461857464914e-08 3.2983468400971105e-08 3.277461857464914e-08 -0.0001407192030455917 -3.3034559976385935e-08 3.2983468400971105e-08 -3.3034559976385935e-08 -0.0001406657393090427" pbc="T T T"
Mg       1.92017007       1.35776525       3.32583129       0.00000122       0.00000149      -0.00000036
Mg       5.76050875       4.07329432       9.97749376      -0.00000107      -0.00000079      -0.00000040
Cr       0.00000011       0.00000003      -0.00000020      -0.00000209      -0.00000018       0.00000364
Se       1.96775580       1.39141336       6.65166228      -0.00186348      -0.00131724       0.00000048
Se       5.71292235       4.03964578       6.65166219       0.00186503       0.00131941       0.00000142
Se       4.77663075       1.39141348       5.02995766       0.00093164      -0.00131945      -0.00161523
Se       2.90404735       4.03964616       8.27336751      -0.00092971       0.00131441       0.00161031
Se       2.90404779       4.03964574       5.02995779      -0.00093316       0.00131948      -0.00161529
Se       4.77663095       1.39141325       8.27336719       0.00093160      -0.00131730       0.00161530
