9
Lattice="6.0854952195475995 8.686114376974253e-08 3.5134619909957454 2.028498452281936 5.737459878438388 3.513462053570162 -5.548789338496663e-08 3.740188801272215e-08 7.0269240780993085" Properties=species:S:1:pos:R:3:forces:R:3 energy=-26.07910919189453 free_energy=-26.07910919189453 stress="-0.00014020294474903494 1.0106203873760933e-08 8.395375061809318e-09 1.0106203873760933e-08 -0.00014021285460330546 -6.99966662409679e-09 8.395375061809318e-09 -6.99966662409679e-09 -0.00014020931848790497" pbc="T T T"
Mg       2.02849785       1.43436483       3.51346166      -0.00000120      -0.00000087      -0.00000128
Mg       6.08549536       4.30309568      10.54038656       0.00000076       0.00000174       0.00000049
Cu      -0.00000025      -0.00000021       0.00000025       0.00000288       0.00000137      -0.00000236
Te       2.15153978       1.52136795       7.02692406      -0.00136186      -0.00096375       0.00000000
Te       5.96245439       4.21609202       7.02692381       0.00135899       0.00096148      -0.00000060
Te       5.00972594       1.52136789       5.37675012       0.00067998      -0.00096139      -0.00117591
Te       3.10426774       4.21609187       8.67709796      -0.00068042       0.00096168       0.00117813
Te       3.10426813       4.21609215       5.37675008      -0.00067985       0.00096203      -0.00117646
Te       5.00972552       1.52136786       8.67709799       0.00068066      -0.00096229       0.00117803
