9
Lattice="6.040974132636246 -9.394351186453446e-08 3.487758044111999 2.0136579488748167 5.695484984187559 3.4877580558318444 2.988523063396799e-08 3.548586069824994e-08 6.975516036461226" Properties=species:S:1:pos:R:3:forces:R:3 energy=-29.992748260498047 free_energy=-29.992748260498047 stress="3.613523949752562e-05 -8.36501090617503e-09 -1.1198346694385464e-09 -8.36501090617503e-09 3.6129000363871455e-05 -9.236843290238994e-09 -1.1198346694385464e-09 -9.236843290238994e-09 3.61502097803168e-05" pbc="T T T"
Mg       2.01365815       1.42387111       3.48775804      -0.00000032      -0.00000015       0.00000014
Mg       6.04097430       4.27161362      10.46327404       0.00000017      -0.00000031       0.00000057
Co       0.00000024       0.00000017       0.00000062      -0.00000271      -0.00000176      -0.00000595
Te       2.02449143       1.43153135       6.97551586       0.00194500       0.00137500      -0.00000064
Te       6.03014017       4.26395250       6.97551566      -0.00194165      -0.00137363      -0.00000016
Te       5.02872833       1.43153192       5.24101936      -0.00097282       0.00137578       0.00168365
Te       3.02590393       4.26395339       8.71001231       0.00097091      -0.00137285      -0.00168147
Te       3.02590403       4.26395359       5.24101976       0.00097157      -0.00137407       0.00168399
Te       5.02872790       1.43153204       8.71001285      -0.00097016       0.00137198      -0.00168006
