9
Lattice="4.344692423538332 -3.440537313652971e-08 2.508409348697689 1.4482307689156728 4.096215259357861 2.508409359943439 -2.079922675823304e-08 -9.341032243746185e-10 5.016818733420696" Properties=species:S:1:pos:R:3:forces:R:3 energy=-41.42377471923828 free_energy=-41.42377471923828 stress="2.7841055270982906e-05 6.056840362589355e-08 -1.2435932283949569e-08 6.056840362589355e-08 2.798172863549553e-05 -4.580598567116567e-09 -1.2435932283949569e-08 -4.580598567116567e-09 2.8025915526086465e-05" pbc="T T T"
Mg       1.44823082       1.02405358       2.50840948      -0.00000005      -0.00000026      -0.00000059
Mg       4.34469226       3.07216150       7.52522814      -0.00000009       0.00000019       0.00000042
Cu      -0.00000001       0.00000004       0.00000009       0.00000176      -0.00000098       0.00000765
O        1.55212333       1.09751683       5.01681880      -0.00664490      -0.00469890       0.00000005
O        4.24079973       2.99869858       5.01681861       0.00664413       0.00469959      -0.00000127
O        3.56863087       1.09751676       3.85258780       0.00332204      -0.00469932      -0.00575620
O        2.22429243       2.99869837       6.18104981      -0.00332120       0.00469911       0.00575274
O        2.22429238       2.99869812       3.85258742      -0.00332388       0.00469819      -0.00575697
O        3.56863095       1.09751698       6.18104993       0.00332254      -0.00469795       0.00575441
