9
Lattice="6.13160311384805 3.783802074369205e-08 3.5400824983719468 2.043867743944453 5.780930766389308 3.5400824920422287 2.9620537491825706e-08 1.3192604188951033e-08 7.080164945439596" Properties=species:S:1:pos:R:3:forces:R:3 energy=-32.348976135253906 free_energy=-32.348976135253906 stress="-9.198721272696275e-06 5.506284495027103e-08 9.336031503437425e-09 5.506284495027103e-08 -9.241415682481602e-06 -1.6748477049688404e-09 9.336031503437425e-09 -1.6748477049688404e-09 -9.263020729122218e-06" pbc="T T T"
Mg       2.04386837       1.44523268       3.54008196       0.00000206       0.00000018      -0.00000175
Mg       6.13160258       4.33569759      10.62024804      -0.00000127      -0.00000133       0.00000163
Cr      -0.00000016       0.00000012      -0.00000008       0.00000042      -0.00000046       0.00000221
Te       2.13042324       1.50643651       7.08016483      -0.00260876      -0.00184445      -0.00000025
Te       6.04504778       4.27449464       7.08016442       0.00260851       0.00184483      -0.00000057
Te       5.06639187       1.50643659       5.38508249       0.00130245      -0.00184089      -0.00225628
Te       3.10907897       4.27449414       8.77524766      -0.00130191       0.00184026       0.00225545
Te       3.10907933       4.27449460       5.38508264      -0.00130290       0.00184232      -0.00225650
Te       5.06639160       1.50643637       8.77524778       0.00130145      -0.00184051       0.00225605
