9
Lattice="5.302789837209654 -5.382630079093873e-08 3.0615671887012974 1.7675965781834164 4.999518066468066 3.0615671600736456 1.7496748066203884e-08 -2.26894333584355e-08 6.1231343470972455" Properties=species:S:1:pos:R:3:forces:R:3 energy=-36.04241180419922 free_energy=-36.04241180419922 stress="-1.634973887121305e-05 3.0838160913759793e-09 1.7674505414788655e-08 3.0838160913759793e-09 -1.6322588635375723e-05 -1.8475851959465217e-08 1.7674505414788655e-08 -1.8475851959465217e-08 -1.6345893527613953e-05" pbc="T T T"
Mg       1.76759640       1.24987931       3.06156724      -0.00000088       0.00000013       0.00000011
Mg       5.30279014       3.74963897       9.18470264       0.00000163       0.00000233       0.00000665
Co       0.00000010       0.00000017       0.00000059      -0.00000092      -0.00000156      -0.00000860
S        1.75985126       1.24440274       6.12313441       0.00041589       0.00029553      -0.00000030
S        5.31053517       3.75511533       6.12313374      -0.00041646      -0.00029363      -0.00000328
S        4.42286445       1.24440263       4.58564283      -0.00020999       0.00029707       0.00036240
S        2.64752201       3.75511498       7.66062526       0.00020616      -0.00029285      -0.00036064
S        2.64752240       3.75511545       4.58564280       0.00020999      -0.00029685       0.00036216
S        4.42286382       1.24440236       7.66062514      -0.00020556       0.00028969      -0.00035885
