9
Lattice="4.60833878016868 2.714703892622974e-09 2.660625681981191 1.536112924351951 4.3447837311047115 2.6606256905208894 -2.6585752964830465e-08 -8.340012422080047e-09 5.321251410010205" Properties=species:S:1:pos:R:3:forces:R:3 energy=-35.11531448364258 free_energy=-35.11531448364258 stress="0.00013001554179936647 -6.351642412028013e-08 9.546312185193528e-09 -6.351642412028013e-08 0.00013002309424337 -6.993094103791009e-08 9.546312185193528e-09 -6.993094103791009e-08 0.00013011795817874372" pbc="T T T"
Mg       1.53611277       1.08619604       2.66062553      -0.00000043       0.00000049       0.00000027
Mg       4.60833894       3.25858770       7.98187716       0.00000028      -0.00000022       0.00000170
Cd       0.00000013      -0.00000010       0.00000004      -0.00000043       0.00000079      -0.00000124
O        1.72015262       1.21633159       5.32125143      -0.00186163      -0.00131643       0.00000066
O        4.42429919       3.12845189       5.32125096       0.00186303       0.00131518      -0.00000265
O        3.74826232       1.21633150       4.15032148       0.00093052      -0.00131619      -0.00161168
O        2.39618917       3.12845228       6.49218133      -0.00093029       0.00131661       0.00161174
O        2.39618912       3.12845206       4.15032210      -0.00093222       0.00131741      -0.00161314
O        3.74826244       1.21633185       6.49218112       0.00093140      -0.00131744       0.00161415
