9
Lattice="4.036130077696314 8.882019185912634e-08 2.330260578808058 1.3453767374623091 3.8053001044996915 2.330260646087155 5.840772293236065e-08 1.237002129317148e-07 4.6605210564509525" Properties=species:S:1:pos:R:3:forces:R:3 energy=-49.468597412109375 free_energy=-49.468597412109375 stress="8.844849799061194e-05 -2.961911071963641e-08 1.7371475280469895e-07 -2.961911071963641e-08 8.83718385011889e-05 9.961473423913958e-09 1.7371475280469895e-07 9.961473423913958e-09 8.869345037965104e-05" pbc="T T T"
Mg       1.34537663       0.95132506       2.33026064       0.00000059       0.00000089      -0.00000096
Mg       4.03613005       2.85397531       6.99078164       0.00000094      -0.00000061       0.00000000
C        0.00000001       0.00000005      -0.00000011       0.00000118       0.00000467       0.00000064
O        1.22075387       0.86320360       4.66052116      -0.00153649      -0.00108832      -0.00000193
O        4.16075303       2.94209685       4.66052125       0.00152540       0.00108302       0.00000698
O        3.42575327       0.86320346       3.38746435       0.00076646      -0.00108939      -0.00133413
O        1.95575359       2.94209685       5.93357788      -0.00075632       0.00108308       0.00132638
O        1.95575367       2.94209674       3.38746450      -0.00076848       0.00108570      -0.00132835
O        3.42575327       0.86320356       5.93357761       0.00076514      -0.00107813       0.00133276
