9
Lattice="5.366023993954988 2.0724992510034274e-08 3.098075363949725 1.7886746811989858 5.059136008765826 3.0980753691327374 1.2174900699553269e-08 1.495679945330094e-08 6.196150706811889" Properties=species:S:1:pos:R:3:forces:R:3 energy=-30.05228614807129 free_energy=-30.05228614807129 stress="-0.0004859690088778734 -1.4559537575564718e-08 1.1807062882951413e-08 -1.4559537575564718e-08 -0.0004859544860664755 1.798415283360555e-08 1.1807062882951413e-08 1.798415283360555e-08 -0.0004859660693909973" pbc="T T T"
Mg       1.78867424       1.26478382       3.09807540      -0.00000179      -0.00000196       0.00000075
Mg       5.36602397       3.79435212       9.29422548      -0.00000004       0.00000006      -0.00000200
Cu      -0.00000010      -0.00000030      -0.00000013       0.00000173       0.00000576       0.00000267
S        1.85909813       1.31458096       6.19615092      -0.00792408      -0.00560308       0.00000044
S        5.29560078       3.74455541       6.19615131       0.00792080       0.00560164       0.00000166
S        4.43647512       1.31458064       4.70810138       0.00396180      -0.00560313      -0.00686181
S        2.71822365       3.74455567       7.68420009      -0.00395966       0.00560153       0.00685865
S        2.71822356       3.74455522       4.70810136      -0.00396085       0.00560135      -0.00686049
S        4.43647548       1.31458066       7.68419990       0.00396216      -0.00560266       0.00686020
