9
Lattice="6.37475702052747 -5.085007038319423e-10 3.6804677121394014 2.1249190090763865 6.010178524810674 3.6804677074397754 2.048946704814597e-08 8.732402256111131e-09 7.360935388789978" Properties=species:S:1:pos:R:3:forces:R:3 energy=-22.26074981689453 free_energy=-22.26074981689453 stress="-3.460143489064649e-05 -6.1529124018022685e-09 -4.762499283827992e-10 -6.1529124018022685e-09 -3.458279024926014e-05 -2.0949222356847486e-09 -4.762499283827992e-10 -2.0949222356847486e-09 -3.458372157183476e-05" pbc="T T T"
Mg       2.12491923       1.50254503       3.68046768      -0.00000009       0.00000100      -0.00000045
Mg       6.37475704       4.50763366      11.04140313       0.00000014      -0.00000103      -0.00000022
Cd       0.00000001       0.00000009      -0.00000005       0.00000121      -0.00000023       0.00000221
Te       2.34083963       1.65522367       7.36093536       0.00041126       0.00029130      -0.00000015
Te       6.15883640       4.35495483       7.36093522      -0.00041175      -0.00029165      -0.00000023
Te       5.20433704       1.65522380       5.70769446      -0.00020550       0.00029045       0.00035585
Te       3.29533886       4.35495474       9.01417649       0.00020574      -0.00029126      -0.00035612
Te       3.29533882       4.35495455       5.70769443       0.00020509      -0.00029007       0.00035545
Te       5.20433716       1.65522377       9.01417655      -0.00020611       0.00029159      -0.00035641
