9
Lattice="5.653102828884175 -1.6805364900920696e-07 3.263820537917551 1.8843674751503678 5.329797940989328 3.263820496409353 -2.6402230337480937e-07 -2.375289614923048e-07 6.52764153313522" Properties=species:S:1:pos:R:3:forces:R:3 energy=-23.985830307006836 free_energy=-23.985830307006836 stress="5.691731712431647e-05 3.0067514700249376e-08 3.596137787553744e-08 3.0067514700249376e-08 5.6703829613979906e-05 2.804386234345202e-08 3.596137787553744e-08 2.804386234345202e-08 5.692795821232721e-05" pbc="T T T"
Mg       1.88436691       1.33244922       3.26381982       0.00000059      -0.00000377       0.00000093
Mg       5.65310323       3.99734723       9.79146308       0.00000007       0.00000152      -0.00000150
Cd      -0.00000021       0.00000040       0.00000021      -0.00000032      -0.00000085      -0.00000191
Se       2.21040597       1.56299287       6.52764416       0.00189149       0.00133872       0.00000538
Se       5.32706397       3.76680449       6.52764092      -0.00188941      -0.00133196       0.00000205
Se       4.54789979       1.56299284       5.17808833      -0.00094905       0.00133812       0.00163472
Se       2.98956973       3.76680530       7.87719376       0.00094315      -0.00133565      -0.00163925
Se       2.98957056       3.76680510       5.17808698       0.00094700      -0.00133976       0.00163782
Se       4.54790032       1.56299281       7.87719287      -0.00094369       0.00133350      -0.00163811
