9
Lattice="5.167600206638938 1.008345887540309e-07 2.983515247905219 1.7225334620574477 4.872060799349493 2.983515308913767 9.617460228475711e-08 1.4272561771222256e-07 5.967030329231127" Properties=species:S:1:pos:R:3:forces:R:3 energy=-33.644798278808594 free_energy=-33.644798278808594 stress="0.00015671263099648058 5.487890319955113e-08 3.911901202968693e-08 5.487890319955113e-08 0.00015662943769712 -4.262138020294515e-08 3.911901202968693e-08 -4.262138020294515e-08 0.00015670548600610346" pbc="T T T"
Mg       1.72253323       1.21801547       2.98351494      -0.00000065      -0.00000048      -0.00000007
Mg       5.16760052       3.65404566       8.95054530       0.00000035      -0.00000100      -0.00000106
C        0.00000498       0.00000195      -0.00000952      -0.00004789      -0.00001634       0.00008652
S        1.57608504       1.11446211       5.96703250      -0.00833052      -0.00589007      -0.00002941
S        5.31404596       3.75759926       5.96703273       0.00830948       0.00587219      -0.00002936
S        4.37955735       1.11446135       4.34844670       0.00415885      -0.00584021      -0.00720066
S        2.51057539       3.75760063       7.58561756      -0.00415656       0.00591579       0.00719875
S        2.51057573       3.75759802       4.34844674      -0.00412628       0.00586158      -0.00721604
S        4.37955663       1.11446037       7.58561653       0.00419381      -0.00590125       0.00719154
