9
Lattice="4.429683947275215 -7.268088992821865e-09 2.557479283571241 1.4765613236073374 4.176346135684108 2.5574792581077284 3.0758850698770172e-09 -2.901130619746258e-08 5.114958561814895" Properties=species:S:1:pos:R:3:forces:R:3 energy=-46.23243713378906 free_energy=-46.23243713378906 stress="1.7149735867860727e-05 -1.741853736803023e-07 1.5261340990946337e-07 -1.741853736803023e-07 1.7066369764506817e-05 -2.7506703759172524e-07 1.5261340990946337e-07 -2.7506703759172524e-07 1.7316386220045388e-05" pbc="T T T"
Mg       1.47656135       1.04408651       2.55747934      -0.00000021      -0.00000025       0.00000054
Mg       4.42968410       3.13225947       7.67243792       0.00000041       0.00000137      -0.00000020
Fe       0.00000012      -0.00000006       0.00000009      -0.00001568       0.00000307      -0.00000281
O        1.51021269       1.06788162       5.11495857      -0.00055134      -0.00038797      -0.00000001
O        4.39603230       3.10846456       5.11495856       0.00055981       0.00039655      -0.00000154
O        3.67457771       1.06788177       3.86536200       0.00027946      -0.00039503      -0.00048500
O        2.23166767       3.10846455       6.36455513      -0.00027880       0.00039080       0.00047767
O        2.23166758       3.10846429       3.86536187      -0.00028142       0.00039747      -0.00048637
O        3.67457758       1.06788168       6.36455490       0.00028789      -0.00040630       0.00049764
