9
Lattice="5.379924838726014 2.655932260248074e-07 3.106100764428035 1.793308487921061 5.072241898907897 3.1061008372745977 -3.9372745730631614e-08 6.137777439940719e-08 6.212201597051675" Properties=species:S:1:pos:R:3:forces:R:3 energy=-37.22798538208008 free_energy=-37.22798538208008 stress="-0.00010061921057058498 5.335333952416477e-08 -3.466606557367413e-08 5.335333952416477e-08 -0.00010066125105367973 3.8666279067456344e-08 -3.466606557367413e-08 3.8666279067456344e-08 -0.00010073050361825153" pbc="T T T"
Mg       1.79330817       1.26806070       3.10610024       0.00000020       0.00000013      -0.00000238
Mg       5.37992508       3.80418111       9.31830228       0.00000069      -0.00000306      -0.00000129
Fe      -0.00000012       0.00000030      -0.00000014       0.00000279      -0.00000358       0.00000707
S        1.77270043       1.25348870       6.21220145       0.00234270       0.00165674       0.00000167
S        5.40053280       3.81875362       6.21220193      -0.00234258      -0.00165498       0.00000213
S        4.49357463       1.25348905       4.64130419      -0.00117096       0.00165850       0.00203043
S        2.67965830       3.81875355       7.78309938       0.00117138      -0.00166070      -0.00203145
S        2.67965870       3.81875353       4.64130392       0.00117275      -0.00165737       0.00203162
S        4.49357505       1.25348848       7.78309953      -0.00117674       0.00166392      -0.00203753
