9
Lattice="4.423093034539321 -8.816311358296035e-08 2.5536738111817456 1.47436427959621 4.170131740871678 2.553673780228672 2.3383836637222797e-08 -2.1374704157647436e-08 5.107347581861505" Properties=species:S:1:pos:R:3:forces:R:3 energy=-45.159767150878906 free_energy=-45.159767150878906 stress="-0.00012029743083985522 -4.100391137740189e-08 -4.857470514707529e-08 -4.100391137740189e-08 -0.00012033919483656064 -6.495251003713065e-09 -4.857470514707529e-08 -6.495251003713065e-09 -0.00012028855417156592" pbc="T T T"
Mg       1.47436466       1.04253300       2.55367380      -0.00000219      -0.00000223       0.00000036
Mg       4.42309302       3.12759858       7.66102129       0.00000065       0.00000044      -0.00000011
Ge      -0.00000003      -0.00000018       0.00000007       0.00000137       0.00000498      -0.00000032
O        1.52310347       1.07699724       5.10734766      -0.00110781      -0.00078213       0.00000047
O        4.37435360       3.09313470       5.10734766       0.00110865       0.00078100       0.00000036
O        3.66154079       1.07699678       3.87272016       0.00055289      -0.00078303      -0.00095820
O        2.23591634       3.09313488       6.34197481      -0.00055271       0.00078195       0.00095940
O        2.23591646       3.09313478       3.87272017      -0.00055313       0.00078237      -0.00095999
O        3.66154089       1.07699668       6.34197489       0.00055236      -0.00078297       0.00095838
