9
Lattice="6.251686611455076 -2.6637283273526642e-08 3.6094129153961543 2.0838955207575816 5.894146613031696 3.6094129002931368 -5.8926353218145465e-08 -6.016457769903669e-08 7.2188259328558155" Properties=species:S:1:pos:R:3:forces:R:3 energy=-26.30015754699707 free_energy=-26.30015754699707 stress="8.65831407281803e-06 8.028244735669432e-09 1.0715009324258062e-08 8.028244735669432e-09 8.628967407275923e-06 -7.514457500690241e-09 1.0715009324258062e-08 -7.514457500690241e-09 8.639064617455006e-06" pbc="T T T"
Mg       2.08389578       1.47353686       3.60941262       0.00000035       0.00000045      -0.00000087
Mg       6.25168646       4.42061025      10.82823894      -0.00000026       0.00000136      -0.00000017
Ge      -0.00000011      -0.00000011      -0.00000003       0.00000102       0.00000050      -0.00000034
Te       2.24370796       1.58654068       7.21882613      -0.00022854      -0.00016347       0.00000019
Te       6.09187420       4.30760569       7.21882587       0.00022773       0.00016235      -0.00000007
Te       5.12983265       1.58654091       5.55252084       0.00011382      -0.00016195      -0.00019725
Te       3.20574932       4.30760532       8.88513089      -0.00011425       0.00016193       0.00019863
Te       3.20574937       4.30760574       5.55252079      -0.00011461       0.00016133      -0.00019807
Te       5.12983267       1.58654077       8.88513094       0.00011469      -0.00016239       0.00019798
