9
Lattice="5.498206930919656 -6.593961812633695e-08 3.1743909592884525 1.8327355831902985 5.183758919458533 3.174390956311277 -1.8709991216256108e-08 -1.6876282071362508e-08 6.348781950983563" Properties=species:S:1:pos:R:3:forces:R:3 energy=-32.29447937011719 free_energy=-32.29447937011719 stress="-6.97819996275939e-05 8.21259504846239e-10 1.3554104505431042e-08 8.21259504846239e-10 -6.965398642932996e-05 6.226259507968734e-09 1.3554104505431042e-08 6.226259507968734e-09 -6.974217103561386e-05" pbc="T T T"
Mg       1.83273560       1.29593967       3.17439095      -0.00000006      -0.00000005       0.00000084
Mg       5.49820724       3.88781844       9.52317310      -0.00000010      -0.00000428       0.00000163
Ge      -0.00000005       0.00000036       0.00000017       0.00000180      -0.00000449      -0.00000826
S        1.87792218       1.32789198       6.34878216      -0.00350428      -0.00247660      -0.00000122
S        5.45302037       3.85586687       6.34878174       0.00350761       0.00247651      -0.00000251
S        4.55924594       1.32789156       4.80071885       0.00175002      -0.00247157      -0.00303137
S        2.77169693       3.85586747       7.89684409      -0.00175551       0.00248465       0.00303918
S        2.77169654       3.85586713       4.80071931      -0.00175154       0.00247577      -0.00303555
S        4.55924528       1.32789179       7.89684496       0.00175205      -0.00247964       0.00303710
