9
Lattice="5.797887838659882 -1.4083711772781623e-08 3.347412032522079 1.9326292429758793 5.466300933762476 3.347412072877381 -1.3137108804279596e-07 -4.346844089448467e-08 6.6948242925855865" Properties=species:S:1:pos:R:3:forces:R:3 energy=-29.1359806060791 free_energy=-29.1359806060791 stress="-9.306221181759611e-05 8.820039809620539e-09 1.5835659894491982e-08 8.820039809620539e-09 -9.304951527155936e-05 9.1368361765376e-09 1.5835659894491982e-08 9.1368361765376e-09 -9.310486348113045e-05" pbc="T T T"
Mg       1.93262922       1.36657460       3.34741230      -0.00000015      -0.00000081       0.00000091
Mg       5.79788782       4.09972623      10.04223600       0.00000055       0.00000215      -0.00000071
Ge      -0.00000017       0.00000009      -0.00000031       0.00000209      -0.00000063       0.00000543
Se       1.99552531       1.41104948       6.69482420      -0.00055008      -0.00038977       0.00000009
Se       5.73499145       4.05525166       6.69482404       0.00054838       0.00038832       0.00000115
Se       4.80012519       1.41104937       5.07558772       0.00027621      -0.00039122      -0.00047673
Se       2.93039185       4.05525155       8.31406083      -0.00027303       0.00038597       0.00047472
Se       2.93039194       4.05525153       5.07558793      -0.00027682       0.00039226      -0.00047822
Se       4.80012516       1.41104898       8.31406093       0.00027280      -0.00038640       0.00047335
