9
Lattice="6.077512124707105 -7.084912084279058e-08 3.508853365809123 2.025837289789125 5.729933388177822 3.5088533975334224 -6.628691825387065e-08 -8.01773118953631e-09 7.017706846430538" Properties=species:S:1:pos:R:3:forces:R:3 energy=-31.948875427246094 free_energy=-31.948875427246094 stress="-7.59178219595924e-05 7.820575298467247e-09 -1.0194659560980313e-09 7.820575298467247e-09 -7.591283065266907e-05 -2.092660489338982e-09 -1.0194659560980313e-09 -2.092660489338982e-09 -7.591878966195509e-05" pbc="T T T"
Mg       2.02583740       1.43248237       3.50885362       0.00000025      -0.00000257       0.00000049
Mg       6.07751260       4.29744989      10.52655962       0.00000135       0.00000048      -0.00000098
Mn       0.00000016       0.00000016      -0.00000001      -0.00000199      -0.00000031      -0.00000113
Te       2.06642334       1.46118262       7.01770690       0.00238281       0.00168568      -0.00000025
Te       6.03692537       4.26875142       7.01770734      -0.00238207      -0.00168344       0.00000112
Te       5.04429995       1.46118196       5.29842908      -0.00119208       0.00168487       0.00206375
Te       3.05904919       4.26875124       8.73698442       0.00119083      -0.00168400      -0.00206353
Te       3.05904912       4.26875144       5.29842902       0.00119177      -0.00168459       0.00206390
Te       5.04430020       1.46118214       8.73698445      -0.00119086       0.00168385      -0.00206339
