9
Lattice="5.466055124582136 1.8266422500997686e-08 3.1558282654549172 1.8220183453459136 5.153446266529381 3.1558283464049506 -1.5675711921520583e-07 -1.1700841512439381e-08 6.311656802421113" Properties=species:S:1:pos:R:3:forces:R:3 energy=-38.48245620727539 free_energy=-38.48245620727539 stress="-4.089737922186032e-05 1.0787884363594458e-08 3.206015719570132e-08 1.0787884363594458e-08 -4.095168333151378e-05 -3.821496008526992e-08 3.206015719570132e-08 -3.821496008526992e-08 -4.093181269126944e-05" pbc="T T T"
Mg       1.82201793       1.28836216       3.15582826      -0.00000153       0.00000294      -0.00000064
Mg       5.46605557       3.86508380       9.46748592       0.00000225      -0.00000500       0.00000583
Mn      -0.00000003       0.00000017       0.00000011      -0.00000017      -0.00000214      -0.00000167
S        1.80868896       1.27893681       6.31165696      -0.00008023      -0.00005406       0.00000158
S        5.47938399       3.87450979       6.31165650       0.00008112       0.00005639      -0.00000182
S        4.56171076       1.27893701       4.72219849       0.00004116      -0.00005102      -0.00006831
S        2.72636250       3.87450972       7.90111434      -0.00004229       0.00005460       0.00006706
S        2.72636294       3.87450948       4.72219875      -0.00004041       0.00005537      -0.00006974
S        4.56171048       1.27893625       7.90111417       0.00004008      -0.00005686       0.00006747
