9
Lattice="4.461739461999441 3.198387820852852e-08 2.575986548776943 1.4872464853266503 4.206568509949645 2.5759866044817574 2.6425393579167827e-08 8.690976169767409e-08 5.151973051783772" Properties=species:S:1:pos:R:3:forces:R:3 energy=-52.935909271240234 free_energy=-52.935909271240234 stress="0.0001573259214637801 -1.1845128966569973e-07 1.108841374275471e-08 -1.1845128966569973e-07 0.00015760213136672974 -2.436600610167261e-08 1.108841374275471e-08 -2.436600610167261e-08 0.00015726778656244278" pbc="T T T"
Mg       1.48724655       1.05164217       2.57598650      -0.00000136      -0.00000228      -0.00000092
Mg       4.46173942       3.15492647       7.72795960      -0.00000041      -0.00000383      -0.00000043
Mn      -0.00000011      -0.00000110       0.00000009       0.00000158       0.00015138      -0.00000772
O        1.49614214       1.05793246       5.15197308      -0.00486851      -0.00345802      -0.00000348
O        4.45284417       3.14863649       5.15197318       0.00484276       0.00341725      -0.00000421
O        3.71366854       1.05793258       3.87168353       0.00243235      -0.00346375      -0.00422239
O        2.23531738       3.14863627       6.43226310      -0.00242424       0.00341725       0.00419712
O        2.23531730       3.14863675       3.87168339      -0.00241399       0.00340366      -0.00417948
O        3.71366858       1.05793244       6.43226239       0.00243092      -0.00346351       0.00421977
