9
Lattice="6.061803411907903 2.480656504418752e-08 3.4997838967609662 2.0206011306905114 5.715123326387591 3.499783948722193 -6.56109079289942e-08 1.7245460365864994e-08 6.99956790716335" Properties=species:S:1:pos:R:3:forces:R:3 energy=-28.271177291870117 free_energy=-28.271177291870117 stress="-3.162128223266336e-06 -6.254369466773824e-09 1.5732734004458848e-09 -6.254369466773824e-09 -3.163553856211365e-06 6.8770238392801275e-09 1.5732734004458848e-09 6.8770238392801275e-09 -3.160213054798078e-06" pbc="T T T"
Mg       2.02060080       1.42878087       3.49978433      -0.00000057       0.00000019       0.00000092
Mg       6.06180338       4.28634253      10.49935211       0.00000038       0.00000053       0.00000165
Ni       0.00000008       0.00000005      -0.00000009       0.00000139       0.00000181       0.00000031
Te       2.09612867       1.48218718       6.99956787       0.00012287       0.00008774       0.00000049
Te       5.98627591       4.23293614       6.99956807      -0.00012539      -0.00008918      -0.00000031
Te       5.01373881       1.48218677       5.31508460      -0.00006200       0.00008747       0.00010742
Te       3.06866537       4.23293683       8.68405096       0.00006209      -0.00008763      -0.00010863
Te       3.06866571       4.23293656       5.31508431       0.00006259      -0.00008741       0.00010701
Te       5.01373916       1.48218652       8.68405089      -0.00006139       0.00008653      -0.00010884
