9
Lattice="5.319396041515443 -7.63202103271325e-09 3.0711548553682615 1.7731320158178665 5.015174869109314 3.0711548394766894 1.0846894159885642e-07 5.723605222729353e-08 6.142309522862757" Properties=species:S:1:pos:R:3:forces:R:3 energy=-33.33761215209961 free_energy=-33.33761215209961 stress="-0.0005054823122918606 -3.7025127852530204e-08 1.3389837683064343e-08 -3.7025127852530204e-08 -0.0005054656066931784 -6.130690177741371e-09 1.3389837683064343e-08 -6.130690177741371e-09 -0.0005054158973507583" pbc="T T T"
Mg       1.77313170       1.25379353       3.07115467      -0.00000239      -0.00000171      -0.00000137
Mg       5.31939561       3.76138114       9.21346543      -0.00000343      -0.00000043       0.00000819
Ni       0.00000005       0.00000009       0.00000074       0.00000275      -0.00000033      -0.00002988
S        1.78009280       1.25871530       6.14230941       0.00482684       0.00341067      -0.00000274
S        5.31243581       3.75645954       6.14230884      -0.00482643      -0.00341183      -0.00000413
S        4.42935062       1.25871581       4.61276020      -0.00241345       0.00342074       0.00418535
S        2.66317836       3.75645909       7.67185863       0.00240692      -0.00340435      -0.00416902
S        2.66317853       3.75645946       4.61276026       0.00241724      -0.00341576       0.00418335
S        4.42934922       1.25871570       7.67185881      -0.00240809       0.00340268      -0.00416958
