9
Lattice="5.532927800603127 -2.9522452170203075e-08 3.19443722144478 1.844309264286671 5.216494117798239 3.1944371777052694 -1.8382330899189466e-08 -6.656802320170002e-08 6.388874474728687" Properties=species:S:1:pos:R:3:forces:R:3 energy=-41.14897155761719 free_energy=-41.14897155761719 stress="-7.000635378062725e-05 8.49775219080584e-08 2.0672139555699687e-08 8.49775219080584e-08 -7.004234794294462e-05 -3.045953489433373e-09 2.0672139555699687e-08 -3.045953489433373e-09 -7.008385000517592e-05" pbc="T T T"
Mg       1.84430957       1.30412391       3.19443716       0.00000039       0.00000125      -0.00000095
Mg       5.53292792       3.91237059       9.58331144       0.00000116       0.00000133      -0.00000206
Nb       0.00000021      -0.00000007      -0.00000019      -0.00000528      -0.00000029       0.00000128
S        1.92183628       1.35894353       6.38887435      -0.00524116      -0.00370561       0.00000025
S        5.45540045       3.85755049       6.38887436       0.00524461       0.00370780       0.00000168
S        4.57200982       1.35894314       4.85879638       0.00261879      -0.00370535      -0.00453588
S        2.80522708       3.85755099       7.91895275      -0.00261743       0.00370111       0.00453424
S        2.80522719       3.85755057       4.85879623      -0.00261907       0.00370272      -0.00453666
S        4.57200966       1.35894296       7.91895306       0.00261761      -0.00370301       0.00453806
