9
Lattice="5.925691855876718 -1.7705819599111792e-08 3.4211997992076837 1.9752305955852383 5.586795867905246 3.421199810201212 -4.243016463460608e-09 1.0464008809540378e-08 6.842399605764483" Properties=species:S:1:pos:R:3:forces:R:3 energy=-36.84552001953125 free_energy=-36.84552001953125 stress="-0.0002727645041886717 1.6290913507077676e-08 1.1488484830124435e-08 1.6290913507077676e-08 -0.0002727360697463155 -1.518427339419759e-08 1.1488484830124435e-08 -1.518427339419759e-08 -0.00027274739113636315" pbc="T T T"
Mg       1.97523064       1.39669898       3.42119985       0.00000071       0.00000071       0.00000055
Mg       5.92569196       4.19009690      10.26359943      -0.00000079      -0.00000031       0.00000018
Nb      -0.00000007       0.00000004      -0.00000006      -0.00000102       0.00000115       0.00000083
Se       2.02846215       1.43433932       6.84239959      -0.00066464      -0.00046967       0.00000038
Se       5.87246031       4.15245653       6.84239961       0.00066449       0.00047052       0.00000043
Se       4.91146075       1.43433936       5.17789959       0.00033327      -0.00046957      -0.00057542
Se       2.98946164       4.15245653       8.50689964      -0.00033120       0.00046832       0.00057372
Se       2.98946163       4.15245647       5.17789959      -0.00033329       0.00046876      -0.00057595
Se       4.91146079       1.43433932       8.50689964       0.00033247      -0.00046980       0.00057526
