9
Lattice="5.717122003489039 -2.871097739837493e-08 3.3007819780084833 1.905707331644375 5.3901539618512135 3.300781936063357 2.7150071506102402e-08 -3.217407995435304e-08 6.601563908991699" Properties=species:S:1:pos:R:3:forces:R:3 energy=-30.233661651611328 free_energy=-30.233661651611328 stress="-0.00012287896242924035 -1.8202979124026797e-09 1.649956082871995e-08 -1.8202979124026797e-09 -0.00012291333405300975 2.9414968238938854e-08 1.649956082871995e-08 2.9414968238938854e-08 -0.00012289333972148597" pbc="T T T"
Mg       1.90570698       1.34753801       3.30078198      -0.00000247      -0.00000160       0.00000041
Mg       5.71712198       4.04261517       9.90234659      -0.00000001      -0.00000256       0.00000323
Ni      -0.00000016       0.00000015       0.00000083       0.00000132      -0.00000099      -0.00001749
Se       1.92574911       1.36171068       6.60156370      -0.00129184      -0.00091407      -0.00000068
Se       5.69707995       4.02844380       6.60156330       0.00129142       0.00091451      -0.00000270
Se       4.75424775       1.36171035       4.96852978       0.00064357      -0.00090790      -0.00111517
Se       2.86858213       4.02844305       8.23459782      -0.00064901       0.00091651       0.00112373
Se       2.86858197       4.02844384       4.96852981      -0.00064419       0.00091273      -0.00111315
Se       4.75424775       1.36171059       8.23459755       0.00065145      -0.00091690       0.00112194
