9
Lattice="4.580012638058609 -1.4125556551217156e-07 2.644271611362374 1.5266707937048671 4.318077029740045 2.644271529039692 -3.2630181494156695e-08 -1.2389729714032695e-07 5.288543279241875" Properties=species:S:1:pos:R:3:forces:R:3 energy=-54.06078338623047 free_energy=-54.06078338623047 stress="0.00022706191521137953 -3.695615191645629e-08 7.53176010448442e-09 -3.695615191645629e-08 0.0002267425588797778 -2.129417353557983e-08 7.53176010448442e-09 -2.129417353557983e-08 0.00022708628966938704" pbc="T T T"
Mg       1.52667083       1.07951928       2.64427166       0.00000015      -0.00000067      -0.00000013
Mg       4.58001258       3.23855762       7.93281478       0.00000168      -0.00000079      -0.00000035
Nb       0.00000027      -0.00000046      -0.00000017      -0.00000072       0.00000216      -0.00000017
O        1.60357667       1.13390020       5.28854341      -0.00203586      -0.00143921      -0.00000113
O        4.50310655       3.18417665       5.28854320       0.00203526       0.00143957       0.00000079
O        3.77822407       1.13390035       4.03301036       0.00101781      -0.00144243      -0.00176764
O        2.32845941       3.18417665       6.54407618      -0.00101805       0.00144136       0.00176716
O        2.32845926       3.18417691       4.03301024      -0.00101852       0.00144088      -0.00176501
O        3.77822372       1.13390000       6.54407597       0.00101852      -0.00144017       0.00176609
