9
Lattice="4.330235940343164 2.2766214134940004e-08 2.500062788272402 1.4434119707748387 4.082585613438828 2.500062841626046 -2.7098127788131632e-08 4.618332995599002e-08 5.000125623480151" Properties=species:S:1:pos:R:3:forces:R:3 energy=-40.952152252197266 free_energy=-40.952152252197266 stress="-8.101216735667549e-06 3.6477302955972846e-08 -4.6066798375932194e-08 3.6477302955972846e-08 -8.096089004538953e-06 -1.7172735455872612e-09 -4.6066798375932194e-08 -1.7172735455872612e-09 -8.003254151844885e-06" pbc="T T T"
Mg       1.44341214       1.02064667       2.50006271      -0.00000042       0.00000123       0.00000021
Mg       4.33023585       3.06193922       7.50018860      -0.00000040      -0.00000028      -0.00000045
Ni       0.00000000      -0.00000004       0.00000009       0.00000200      -0.00000022       0.00000236
O        1.47817282       1.04522622       5.00012549      -0.00000892      -0.00000810       0.00000073
O        4.29547544       3.03735949       5.00012583       0.00000709       0.00000577      -0.00000142
O        3.59114929       1.04522598       3.78019779       0.00000447      -0.00000717      -0.00000737
O        2.18249824       3.03735938       6.22005334      -0.00000476       0.00000703       0.00000700
O        2.18249829       3.03735956       3.78019797      -0.00000220       0.00000835      -0.00000709
O        3.59114950       1.04522624       6.22005339       0.00000313      -0.00000670       0.00000618
