9
Lattice="4.079104222087531 4.3164910605372086e-07 2.3550721201830105 1.3597016450798873 3.845817423476042 2.355072413324611 -5.3401220999414817e-08 3.2126323586073613e-07 4.710144332859661" Properties=species:S:1:pos:R:3:forces:R:3 energy=-44.204444885253906 free_energy=-44.204444885253906 stress="-0.00025362687301822007 -2.3634513013348624e-07 3.3979597446887055e-07 -2.3634513013348624e-07 -0.0002531462232582271 -5.5424639100465356e-08 3.3979597446887055e-07 -5.5424639100465356e-08 -0.00025318804546259344" pbc="T T T"
Mg       1.35970162       0.96145469       2.35507252      -0.00001745       0.00000217      -0.00001911
Mg       4.07910507       2.88436384       7.06521735      -0.00001921       0.00000291      -0.00002150
Pd      -0.00000348       0.00000095      -0.00000362       0.00060075      -0.00016852       0.00060854
O        1.45020932       1.02545485       4.71014396       0.00346792       0.00244176       0.00001428
O        3.98859772       2.82036513       4.71014476      -0.00378621      -0.00269043       0.00000605
O        3.35399891       1.02545342       3.61099012      -0.00177640       0.00253683       0.00311822
O        2.08480623       2.82036438       5.80929880       0.00183880      -0.00258982      -0.00315815
O        2.08480751       2.82036368       3.61099215       0.00165558      -0.00232422       0.00285745
O        3.35400018       1.02545219       5.80929909      -0.00196433       0.00279081      -0.00340790
