9
Lattice="5.900966301682764 -2.786602798252011e-08 3.4069244021366303 1.9669887414487142 5.563484311035807 3.4069244012819375 7.197030316782756e-08 4.984391644139881e-08 6.813848679617042" Properties=species:S:1:pos:R:3:forces:R:3 energy=-30.149791717529297 free_energy=-30.149791717529297 stress="-2.2533105948241428e-05 -2.5859881347400915e-08 2.7606436248106547e-08 -2.5859881347400915e-08 -2.2559277567779645e-05 -2.868234538766501e-08 2.7606436248106547e-08 -2.868234538766501e-08 -2.2535290554515086e-05" pbc="T T T"
Mg       1.96698837       1.39087147       3.40692460      -0.00000228       0.00000127      -0.00000003
Mg       5.90096628       4.17261322      10.22077279      -0.00000051       0.00000078      -0.00000109
Pd       0.00000013      -0.00000016       0.00000026       0.00000144       0.00000242      -0.00000326
Se       2.04558471       1.44644667       6.81384902      -0.00153577      -0.00108600      -0.00000109
Se       5.82237047       4.11703764       6.81384913       0.00153556       0.00108331      -0.00000175
Se       4.87817384       1.44644645       5.17845239       0.00076790      -0.00108483      -0.00132680
Se       2.98978122       4.11703761       8.44924460      -0.00076684       0.00108421       0.00133115
Se       2.98978109       4.11703747       5.17845262      -0.00076827       0.00108510      -0.00132990
Se       4.87817440       1.44644698       8.44924443       0.00076869      -0.00108612       0.00133252
