9
Lattice="5.51567735830636 -9.900486216258237e-09 3.184477834134894 1.838559137323547 5.200230513634418 3.184477786984402 2.0843463183385848e-08 -4.300877848887066e-08 6.368955632167878" Properties=species:S:1:pos:R:3:forces:R:3 energy=-32.10142135620117 free_energy=-32.10142135620117 stress="-0.00010966046102112159 -1.1844723424303538e-08 1.2931164583562804e-08 -1.1844723424303538e-08 -0.00010969962022500113 8.542851759330006e-09 1.2931164583562804e-08 8.542851759330006e-09 -0.00010969774302793667" pbc="T T T"
Mg       1.83855842       1.30005746       3.18447792      -0.00000326      -0.00000010       0.00000099
Mg       5.51567769       3.90017280       9.55343291       0.00000312      -0.00000081      -0.00000425
Pd      -0.00000002       0.00000009      -0.00000040      -0.00000186      -0.00000135       0.00001157
S        1.91864434       1.35668650       6.36895557      -0.00690222      -0.00487918      -0.00000108
S        5.43559214       3.84354407       6.36895600       0.00690222       0.00488091       0.00000132
S        4.55635513       1.35668644       4.84607296       0.00345311      -0.00488353      -0.00597954
S        2.79788132       3.84354417       7.89183876      -0.00344920       0.00488037       0.00597346
S        2.79788130       3.84354384       4.84607260      -0.00345328       0.00488192      -0.00597817
S        4.55635563       1.35668649       7.89183872       0.00345111      -0.00487804       0.00597578
