9
Lattice="6.016064902523891 -1.9872823566587778e-08 3.473376721250216 2.0053549283021406 5.672000386966738 3.473376756704526 -9.402606559086327e-08 -2.3064000862168904e-08 6.946753605358377" Properties=species:S:1:pos:R:3:forces:R:3 energy=-31.699291229248047 free_energy=-31.699291229248047 stress="0.00031334275263361633 -2.2525711074194987e-08 1.9817536056621066e-08 -2.2525711074194987e-08 0.00031340515124611557 1.7808460484047828e-08 1.9817536056621066e-08 1.7808460484047828e-08 0.0003133699356112629" pbc="T T T"
Mg       2.00535579       1.41800064       3.47337620       0.00000492       0.00000288      -0.00000136
Mg       6.01606508       4.25400017      10.42012991       0.00000238       0.00000111      -0.00000399
Sc       0.00000007       0.00000014      -0.00000029      -0.00000090      -0.00000158       0.00000565
Se       2.11983067       1.49894736       6.94675357      -0.00796911      -0.00563177      -0.00000039
Se       5.90158855       4.17305266       6.94675371       0.00796837       0.00563295      -0.00000043
Se       4.95614875       1.49894688       5.30920484       0.00398290      -0.00563730      -0.00690296
Se       3.06527071       4.17305275       8.58430270      -0.00398377       0.00563259       0.00690272
Se       3.06527047       4.17305364       5.30920488      -0.00398538       0.00563537      -0.00690047
Se       4.95614881       1.49894714       8.58430289       0.00398068      -0.00563422       0.00690125
