9
Lattice="4.267538783092264 -1.6101927892982425e-07 2.4638646305363325 1.4225128761193868 4.023473275317551 2.463864456928786 1.566469757518531e-10 -2.1251417680523044e-07 4.9277292608013346" Properties=species:S:1:pos:R:3:forces:R:3 energy=-48.310184478759766 free_energy=-48.310184478759766 stress="-5.5670123401796445e-05 1.439565355809691e-08 1.4226203859379893e-07 1.439565355809691e-08 -5.618860086542554e-05 -8.853879762682482e-08 1.4226203859379893e-07 -8.853879762682482e-08 -5.5587977840332314e-05" pbc="T T T"
Mg       1.42251281       1.00586849       2.46386490      -0.00000000       0.00000036      -0.00000034
Mg       4.26753875       3.01760454       7.39159340       0.00000002       0.00000054       0.00000139
S        0.00000017      -0.00000015      -0.00000006       0.00000213       0.00000349      -0.00000601
O        1.31506772       0.92989286       4.92772905      -0.00019765      -0.00013816      -0.00000434
O        4.37498405       3.09357998       4.92772950       0.00019062       0.00013232       0.00000128
O        3.61000529       0.92989276       3.60274660       0.00009435      -0.00013101      -0.00016844
O        2.08004641       3.09357999       6.25271181      -0.00009656       0.00013936       0.00017142
O        2.08004703       3.09358029       3.60274640      -0.00009483       0.00013196      -0.00016975
O        3.61000465       0.92989263       6.25271186       0.00010121      -0.00013995       0.00017560
