9
Lattice="6.371894771751708 -3.389302881015716e-08 3.6788151763504646 2.1239648826415456 6.00748000846783 3.678815192494944 7.439855751222551e-09 2.5033687567376312e-08 7.35763033981469" Properties=species:S:1:pos:R:3:forces:R:3 energy=-30.476625442504883 free_energy=-30.476625442504883 stress="-0.00016819832671899348 -1.5966641342402e-08 2.7419666537298326e-09 -1.5966641342402e-08 -0.00016818336735013872 -1.740473876132853e-09 2.7419666537298326e-09 -1.740473876132853e-09 -0.00016816161223687232" pbc="T T T"
Mg       2.12396507       1.50187008       3.67881522       0.00000072       0.00000112      -0.00000024
Mg       6.37189493       4.50561017      11.03644568       0.00000016      -0.00000056       0.00000093
Sc      -0.00000013      -0.00000012       0.00000167       0.00000213       0.00000081      -0.00001667
Te       2.28558356       1.61615186       7.35763024       0.00697619       0.00493342      -0.00000039
Te       6.21027622       4.39132835       7.35763035      -0.00697920      -0.00493527       0.00000016
Te       5.22910294       1.61615144       5.65818832      -0.00349037       0.00493626       0.00604580
Te       3.26675685       4.39132782       9.05707151       0.00348591      -0.00492923      -0.00603747
Te       3.26675656       4.39132847       5.65818844       0.00349060      -0.00493596       0.00604563
Te       5.22910265       1.61615190       9.05707143      -0.00348609       0.00492932      -0.00603774
