9
Lattice="5.538909509535086 -6.05472978831155e-08 3.197890751107154 1.846303101786571 5.2221339285779695 3.1978907701144563 -4.6186169572765034e-08 -9.379405104509095e-09 6.395781582211054" Properties=species:S:1:pos:R:3:forces:R:3 energy=-35.152366638183594 free_energy=-35.152366638183594 stress="-3.0083261663094163e-05 -9.757076036009948e-09 -7.919761735308839e-09 -9.757076036009948e-09 -3.0114140827208757e-05 -1.1809579980592844e-08 -7.919761735308839e-09 -1.1809579980592844e-08 -3.006700899277348e-05" pbc="T T T"
Mg       1.84630286       1.30553317       3.19789107      -0.00000096       0.00000000       0.00000205
Mg       5.53890907       3.91659969       9.59367115      -0.00000104      -0.00000335      -0.00000476
Sc      -0.00000017       0.00000028      -0.00000010       0.00000227      -0.00000192       0.00000426
S        1.96471841       1.38926591       6.39578165      -0.00032103      -0.00022507      -0.00000117
S        5.42049441       3.83286813       6.39578199       0.00031815       0.00022658       0.00000195
S        4.55655033       1.38926585       4.89938676       0.00016009      -0.00022595      -0.00027911
S        2.82866287       3.83286839       7.89217678      -0.00015640       0.00022689       0.00027674
S        2.82866203       3.83286805       4.89938675      -0.00016141       0.00022648      -0.00027678
S        4.55655044       1.38926593       7.89217638       0.00016028      -0.00022349       0.00027692
