9
Lattice="4.4385292605305215 -4.773373347790525e-08 2.5625859990532294 1.4795097466734282 4.18468522121912 2.562585932945982 -8.956705816586411e-08 -1.4429797749784365e-07 5.125172153241154" Properties=species:S:1:pos:R:3:forces:R:3 energy=-52.067352294921875 free_energy=-52.067352294921875 stress="-3.6401346733327955e-05 1.3629401773851413e-10 1.3461651349189196e-07 1.3629401773851413e-10 -3.6449244362302125e-05 -1.277806234156742e-07 1.3461651349189196e-07 -1.277806234156742e-07 -3.651533552329056e-05" pbc="T T T"
Mg       1.47950945       1.04617121       2.56258595      -0.00000004       0.00000109      -0.00000145
Mg       4.43852960       3.13851381       7.68775814       0.00000011      -0.00000057      -0.00000171
Ti      -0.00000005       0.00000009      -0.00000034       0.00000009      -0.00000185       0.00000246
O        1.53668617       1.08660074       5.12517215      -0.00016958      -0.00012255       0.00000070
O        4.38135280       3.09808410       5.12517198       0.00016755       0.00012273       0.00000176
O        3.67018651       1.08660138       3.89339519       0.00008580      -0.00011724      -0.00014514
O        2.24785233       3.09808384       6.35694910      -0.00008327       0.00011641       0.00014240
O        2.24785244       3.09808381       3.89339550      -0.00008771       0.00012308      -0.00014669
O        3.67018629       1.08660094       6.35694878       0.00008705      -0.00012159       0.00014770
