9
Lattice="6.25474875346423 -1.4722760565306065e-07 3.6111809270561324 2.0849161317681277 5.897033645624833 3.6111808934180822 -9.829279134117084e-09 -4.814838999770613e-08 7.222361871137041" Properties=species:S:1:pos:R:3:forces:R:3 energy=-31.93520164489746 free_energy=-31.93520164489746 stress="-5.954831067356281e-06 -4.33666542676292e-08 1.1125572463299704e-08 -4.33666542676292e-08 -5.926366156927543e-06 -1.4406149162482507e-08 1.1125572463299704e-08 -1.4406149162482507e-08 -5.895228696317645e-06" pbc="T T T"
Mg       2.08491644       1.47425837       3.61118071       0.00000045       0.00000029      -0.00000054
Mg       6.25474852       4.42277517      10.83354290      -0.00000069       0.00000061       0.00000010
Ti      -0.00000048      -0.00000042       0.00000049       0.00000416       0.00000349      -0.00000483
Te       2.19307675       1.55073948       7.22236183      -0.00151850      -0.00107446       0.00000003
Te       6.14658871       4.34629444       7.22236165       0.00151201       0.00106969      -0.00000029
Te       5.15821036       1.55073921       5.51044133       0.00075904      -0.00107361      -0.00131414
Te       3.18145472       4.34629384       8.93428217      -0.00075903       0.00107552       0.00131728
Te       3.18145461       4.34629411       5.51044129      -0.00075899       0.00107471      -0.00131659
Te       5.15820989       1.55073959       8.93428238       0.00076159      -0.00107617       0.00131906
