9
Lattice="5.47157028305078 -1.7189868924051428e-08 3.1590125220864858 1.8238567098089764 5.158645940262937 3.159012582710319 -8.105115411067079e-08 1.6936940862855955e-08 6.318025184557725" Properties=species:S:1:pos:R:3:forces:R:3 energy=-38.9725341796875 free_energy=-38.9725341796875 stress="-9.300679084844887e-05 4.057749691810386e-08 2.3564396656183817e-08 4.057749691810386e-08 -9.298542863689363e-05 2.286962796915759e-08 2.3564396656183817e-08 2.286962796915759e-08 -9.306251013185829e-05" pbc="T T T"
Mg       1.82385626       1.28966210       3.15901215      -0.00000157       0.00000295      -0.00000319
Mg       5.47157021       3.86898395       9.47703815      -0.00000041      -0.00000249       0.00000332
V       -0.00000016       0.00000002      -0.00000075       0.00000311      -0.00000307       0.00001658
S        1.83252000       1.29578791       6.31802504      -0.00124294      -0.00087741       0.00000353
S        5.46290690       3.86285861       6.31802482       0.00124145       0.00087735       0.00000069
S        4.55531050       1.29578751       4.74602207       0.00062740      -0.00088289      -0.00107536
S        2.74011650       3.86285875       7.89002891      -0.00061584       0.00086987       0.00107050
S        2.74011721       3.86285766       4.74602151      -0.00062484       0.00088397      -0.00108412
S        4.55531022       1.29578717       7.89002920       0.00061342      -0.00086886       0.00106820
