9
Lattice="6.138156163747228 -2.0744050749202955e-07 3.5438663303106788 2.046051924629372 5.787109332832872 3.543866216647 6.20722570238582e-09 -1.3481992675990736e-07 7.087732649870132" Properties=species:S:1:pos:R:3:forces:R:3 energy=-31.880563735961914 free_energy=-31.880563735961914 stress="-3.3244174119317904e-05 -3.6961800731205585e-08 1.1786472242647505e-08 -3.6961800731205585e-08 -3.324291901662946e-05 -1.33907960275792e-08 1.1786472242647505e-08 -1.33907960275792e-08 -3.32215495291166e-05" pbc="T T T"
Mg       2.04605239       1.44677689       3.54386597       0.00000050      -0.00000076      -0.00000030
Mg       6.13815607       4.34033204      10.63159949      -0.00000034       0.00000087       0.00000092
V        0.00000021      -0.00000001       0.00000025      -0.00000140       0.00000024      -0.00000237
Te       2.15128904       1.52119040       7.08773253      -0.00350368      -0.00247760      -0.00000125
Te       6.03291919       4.26591797       7.08773239       0.00350449       0.00247932      -0.00000127
Te       5.06251155       1.52119118       5.40693771       0.00175262      -0.00247918      -0.00303821
Te       3.12169654       4.26591778       8.76852766      -0.00175421       0.00248030       0.00303709
Te       3.12169662       4.26591822       5.40693742      -0.00175334       0.00248035      -0.00303655
Te       5.06251077       1.52119152       8.76852734       0.00175539      -0.00248356       0.00304201
