9
Lattice="4.412316726640606 2.8774990309189115e-07 2.5474523965429925 1.4707723295195358 4.1599732040611785 2.547452715218181 -1.8318211348526837e-07 2.6076648230133935e-07 5.094905110366709" Properties=species:S:1:pos:R:3:forces:R:3 energy=-50.57182312011719 free_energy=-50.57182312011719 stress="0.000434417393989861 1.6655653212183097e-07 -4.504261141846655e-08 1.6655653212183097e-07 0.0004341605235822499 1.3815910193670788e-08 -4.504261141846655e-08 1.3815910193670788e-08 0.00043434769031591713" pbc="T T T"
Mg       1.47077232       1.03999370       2.54745250      -0.00000138      -0.00000166       0.00000005
Mg       4.41231638       3.11997991       7.64235783       0.00000129       0.00000002       0.00000142
V        0.00000009      -0.00000027       0.00000063       0.00000106       0.00000386      -0.00000803
O        1.50009971       1.06073088       5.09490507      -0.00490916      -0.00347430      -0.00000158
O        4.38298959       3.09924332       5.09490477       0.00490236       0.00347054      -0.00000044
O        3.66226763       1.06073073       3.84657690       0.00245136      -0.00346220      -0.00424683
O        2.22082139       3.09924292       6.34323334      -0.00245103       0.00346810       0.00425082
O        2.22082140       3.09924297       3.84657691      -0.00244665       0.00345927      -0.00424284
O        3.66226712       1.06073102       6.34323325       0.00245175      -0.00346297       0.00424784
