9
Lattice="6.203001179727224 -4.280281820462187e-08 3.5813044940452485 2.067667000979867 5.848245594878938 3.581304526216979 5.007939853524717e-08 7.481363754812629e-08 7.162608901350412" Properties=species:S:1:pos:R:3:forces:R:3 energy=-23.26844024658203 free_energy=-23.26844024658203 stress="-0.00033696519676595926 -4.447124446471662e-09 -7.8057267316467e-09 -4.447124446471662e-09 -0.0003369655751157552 2.611306726407747e-09 -7.8057267316467e-09 2.611306726407747e-09 -0.00033696769969537854" pbc="T T T"
Mg       2.06766703       1.46206114       3.58130458      -0.00000037      -0.00000045       0.00000069
Mg       6.20300123       4.38618428      10.74391339      -0.00000009       0.00000002       0.00000012
Zn       0.00000032       0.00000018      -0.00000013      -0.00000368      -0.00000239      -0.00000046
Te       2.20117727       1.55646734       7.16260867      -0.00712946      -0.00504202      -0.00000012
Te       6.06949066       4.29177810       7.16260899       0.00713353       0.00504431       0.00000034
Te       5.10241226       1.55646777       5.48758033       0.00356638      -0.00504331      -0.00617671
Te       3.16825567       4.29177819       8.83763777      -0.00356616       0.00504281       0.00617640
Te       3.16825582       4.29177800       5.48758023      -0.00356624       0.00504374      -0.00617626
Te       5.10241260       1.55646754       8.83763788       0.00356607      -0.00504267       0.00617605
