9
Lattice="4.45994440336885 1.127780214069187e-08 2.5749501176567033 1.486648130651058 4.204875883842889 2.5749501426641226 -3.970896716055416e-08 2.5492210306804076e-09 5.149900304091373" Properties=species:S:1:pos:R:3:forces:R:3 energy=-37.96706771850586 free_energy=-37.96706771850586 stress="-5.674056592397392e-05 5.945318903854968e-08 -5.420204374217974e-08 5.945318903854968e-08 -5.681460606865585e-05 -3.837525142103004e-08 -5.420204374217974e-08 -3.837525142103004e-08 -5.6995377235580236e-05" pbc="T T T"
Mg       1.48664824       1.05121920       2.57495014      -0.00000074       0.00000091       0.00000035
Mg       4.45994433       3.15365732       7.72485095      -0.00000070       0.00000090       0.00000181
Zn      -0.00000013       0.00000003      -0.00000006       0.00000410      -0.00000617      -0.00000140
O        1.56573474       1.10714145       5.14990009      -0.00109625      -0.00077593      -0.00000191
O        4.38085804       3.09773382       5.14990014       0.00109835       0.00077417      -0.00000002
O        3.67707720       1.10714127       3.93091594       0.00054583      -0.00077176      -0.00094451
O        2.26951511       3.09773470       6.36888448      -0.00054859       0.00077537       0.00094770
O        2.26951565       3.09773466       3.93091564      -0.00054485       0.00077516      -0.00094824
O        3.67707672       1.10714117       6.36888495       0.00054330      -0.00077270       0.00094551
