9
Lattice="5.435254082611155 5.447675151085058e-09 3.1380455097263615 1.8117513674694479 5.124406731753475 3.138045507192427 3.506223671049679e-08 2.168935695938355e-08 6.276090958723141" Properties=species:S:1:pos:R:3:forces:R:3 energy=-27.53611946105957 free_energy=-27.53611946105957 stress="-0.00011337250907672569 -3.008367954748792e-08 1.7205291413802115e-08 -3.008367954748792e-08 -0.00011334306327626109 9.945981815917548e-09 1.7205291413802115e-08 9.945981815917548e-09 -0.00011333634029142559" pbc="T T T"
Mg       1.81175149       1.28110151       3.13804591      -0.00000070      -0.00000110       0.00000279
Mg       5.43525395       3.84330451       9.41413576       0.00000042      -0.00000292      -0.00000366
Zn      -0.00000001      -0.00000006      -0.00000082      -0.00000355      -0.00000013       0.00001060
S        1.89464229       1.33971460       6.27609097      -0.00277358      -0.00195917      -0.00000025
S        5.35236268       3.78469250       6.27609138       0.00277483       0.00196412       0.00000242
S        4.48793276       1.33971490       4.77885433       0.00138953      -0.00196481      -0.00240794
S        2.75907302       3.78469264       7.77332819      -0.00138438       0.00196046       0.00240126
S        2.75907241       3.78469171       4.77885420      -0.00139152       0.00196326      -0.00240612
S        4.48793332       1.33971474       7.77332797       0.00138868      -0.00195971       0.00240076
