9
Lattice="5.832910311727521 -2.1133097470921993e-07 3.3676323046850145 1.9443032922019172 5.499319944505706 3.367632210800602 -5.154350845806358e-08 -1.5143120647131002e-07 6.735264698645991" Properties=species:S:1:pos:R:3:forces:R:3 energy=-25.025089263916016 free_energy=-25.025089263916016 stress="-8.656435966258869e-05 -2.680264721277581e-08 -1.1018509660232212e-08 -2.680264721277581e-08 -8.643639739602804e-05 -4.1304526465779645e-10 -1.1018509660232212e-08 -4.1304526465779645e-10 -8.650605741422623e-05" pbc="T T T"
Mg       1.94430322       1.37483013       3.36763257      -0.00000058       0.00000163       0.00000089
Mg       5.83290969       4.12448941      10.10289620      -0.00000328      -0.00000232      -0.00000380
Zn      -0.00000005      -0.00000017       0.00000087      -0.00000008      -0.00000047      -0.00001240
Se       2.03228270       1.43704041       6.73526459      -0.00256088      -0.00181267      -0.00000134
Se       5.74493138       4.06227914       6.73526432       0.00256304       0.00181228       0.00000115
Se       4.81676907       1.43704099       5.12764090       0.00128037      -0.00180899      -0.00221522
Se       2.96044451       4.06227840       8.34288823      -0.00128314       0.00181399       0.00222290
Se       2.96044487       4.06227885       5.12764078      -0.00127978       0.00180905      -0.00221772
Se       4.81676882       1.43704114       8.34288840       0.00128440      -0.00181255       0.00222553
