9
Lattice="4.566494930663589 2.5455600533441747e-08 2.636466941042296 1.5221649831627295 4.305332867474676 2.6364669717427525 -4.799323332676886e-08 3.6638902567745785e-09 5.2729339652113" Properties=species:S:1:pos:R:3:forces:R:3 energy=-46.02693176269531 free_energy=-46.02693176269531 stress="1.0493569106984069e-06 -1.0431155317291996e-07 4.6172143441935987e-08 -1.0431155317291996e-07 9.739136430653161e-07 6.825398912724268e-08 4.6172143441935987e-08 6.825398912724268e-08 8.674998639435216e-07" pbc="T T T"
Mn       1.52216440       1.07633377       2.63646763      -0.00000152       0.00000118       0.00000239
Mn       4.56649549       3.22899987       7.90939996       0.00000266       0.00000193      -0.00000493
Ag       0.00000011       0.00000004       0.00000010      -0.00000175       0.00000485      -0.00000225
O        1.62379000       1.14819332       5.27293376       0.00034142       0.00024319       0.00000052
O        4.46487001       3.15713947       5.27293468      -0.00034523      -0.00024599       0.00000151
O        3.75459944       1.14819271       4.04271062      -0.00017160       0.00024045       0.00029522
O        2.33406014       3.15713987       6.50315725       0.00017154      -0.00024128      -0.00029701
O        2.33405960       3.15713961       4.04271043       0.00017351      -0.00024498       0.00030071
O        3.75460034       1.14819301       6.50315688      -0.00016952       0.00024074      -0.00029647
