9
Lattice="5.789002554815384 1.9049574225115723e-08 3.3422820851513833 1.9296674894563863 5.457924297544742 3.3422821661689364 -1.9526180077545735e-07 -3.8845075471376855e-08 6.684564508506156" Properties=species:S:1:pos:R:3:forces:R:3 energy=-37.11783981323242 free_energy=-37.11783981323242 stress="-1.4702094631502405e-05 1.1435774993628911e-08 4.613335491399084e-08 1.1435774993628911e-08 -1.4743484825885389e-05 2.0489128615963637e-08 4.613335491399084e-08 2.0489128615963637e-08 -1.4644025213783607e-05" pbc="T T T"
Mn       1.92966889       1.36447817       3.34228264       0.00001049      -0.00002595       0.00000193
Mn       5.78901042       4.09344143      10.02685198       0.00007666      -0.00001423       0.00004884
Au      -0.00000024       0.00000025      -0.00000008      -0.00000399       0.00000112      -0.00000249
Se       2.20022921       1.55580049       6.68456434      -0.00017093      -0.00008978       0.00000103
Se       5.51843800       3.90212771       6.68456246       0.00014897       0.00012448      -0.00001832
Se       4.68888674       1.55579991       5.24773743       0.00007931      -0.00010423      -0.00014262
Se       3.02977859       3.90212652       8.12138723      -0.00011723       0.00011548       0.00010825
Se       3.02978181       3.90212628       5.24773967      -0.00009329       0.00011949      -0.00012239
Se       4.68888595       1.55579638       8.12138936       0.00007000      -0.00012635       0.00012583
