9
Lattice="4.627646178406251 1.698935707732811e-08 2.6717727806430456 1.542548725635333 4.362986798608486 2.6717728092527047 -7.014690357540726e-08 -1.4561803785072926e-08 5.343545682784108" Properties=species:S:1:pos:R:3:forces:R:3 energy=-47.304710388183594 free_energy=-47.304710388183594 stress="-0.00017997260147240013 -6.82434944110355e-08 1.0247258153128769e-08 -6.82434944110355e-08 -0.00018000174895860255 1.0589127796833964e-08 1.0247258153128769e-08 1.0589127796833964e-08 -0.00017980171833187342" pbc="T T T"
Mn       1.54254864       1.09074728       2.67177369      -0.00000399       0.00000182       0.00000736
Mn       4.62764611       3.27223885       8.01531918       0.00000111      -0.00000739       0.00000336
Au       0.00000006       0.00000011       0.00000006       0.00000044       0.00000415      -0.00000951
O        1.60398240       1.13418755       5.34354542       0.00104094       0.00073957      -0.00000107
O        4.56621222       3.22879927       5.34354499      -0.00104243      -0.00073946      -0.00000262
O        3.82565464       1.13418766       4.06086238      -0.00052029       0.00073838       0.00089628
O        2.34454004       3.22879976       6.62622836       0.00051886      -0.00073236      -0.00089753
O        2.34453982       3.22879932       4.06086245       0.00052032      -0.00074053       0.00090098
O        3.82565540       1.13418761       6.62622854      -0.00051472       0.00073618      -0.00089777
