9
Lattice="5.735227468032772 -2.3461749462751426e-07 3.3112349118375923 1.9117422440762764 5.407224267179337 3.3112349535254606 4.19765809348201e-08 8.073884983595446e-08 6.622469750969674" Properties=species:S:1:pos:R:3:forces:R:3 energy=-36.771766662597656 free_energy=-36.771766662597656 stress="-3.1332383514381945e-05 1.496047872251438e-07 2.421400679963881e-08 1.496047872251438e-07 -3.1312771170632914e-05 -1.4347608434661652e-08 2.421400679963881e-08 -1.4347608434661652e-08 -3.109902536380105e-05" pbc="T T T"
Mn       1.91173674       1.35180557       3.31123863      -0.00005856      -0.00000638       0.00003321
Mn       5.73523241       4.05542221       9.93370896       0.00005360       0.00004195       0.00004209
Ag       0.00000008       0.00000006       0.00000031      -0.00000077      -0.00000191      -0.00000587
Se       2.13889524       1.51242761       6.62246832       0.00016761       0.00011928      -0.00001298
Se       5.50807536       3.89479575       6.62246819      -0.00015913      -0.00012789      -0.00001795
Se       4.66578046       1.51242593       5.16357394      -0.00007596       0.00010762       0.00016461
Se       2.98118714       3.89479868       8.08136439       0.00005794      -0.00010134      -0.00017299
Se       2.98118919       3.89479678       5.16357300       0.00007564      -0.00011841       0.00015464
Se       4.66578242       1.51242386       8.08136279      -0.00006032       0.00008716      -0.00018466
