9
Lattice="6.246430593641461 1.477555271837424e-07 3.606378290013043 2.0821435915565147 5.8891914586337855 3.60637842678022 -1.7112083176828415e-07 4.6504169767522204e-08 7.212756876416045" Properties=species:S:1:pos:R:3:forces:R:3 energy=-34.99660873413086 free_energy=-34.99660873413086 stress="0.00010991947783622891 1.5397516150983392e-08 -3.620210353716402e-09 1.5397516150983392e-08 0.0001098863867809996 1.8529229706132355e-08 -3.620210353716402e-09 1.8529229706132355e-08 0.00010988027497660369" pbc="T T T"
Mn       2.08214350       1.47229786       3.60637834      -0.00000089      -0.00000065      -0.00000027
Mn       6.24643031       4.41689418      10.81913543       0.00000040       0.00000162       0.00000279
Ag       0.00000015      -0.00000025      -0.00000104      -0.00000048       0.00000201       0.00000713
Te       2.24772578       1.58938207       7.21275703       0.00018091       0.00012732       0.00000146
Te       6.08084833       4.29980938       7.21275680      -0.00018071      -0.00012787      -0.00000101
Te       5.12256770       1.58938230       5.55296570      -0.00008972       0.00012666       0.00015446
Te       3.20600611       4.29980981       8.87254843       0.00009224      -0.00013039      -0.00016021
Te       3.20600617       4.29980991       5.55296559       0.00009108      -0.00012740       0.00015724
Te       5.12256798       1.58938133       8.87254807      -0.00009288       0.00012877      -0.00016160
