9
Lattice="5.423228649884017 9.561033557134206e-08 3.1311024832134278 1.807742952781903 5.1130692454078925 3.131102518988993 9.490271276347796e-08 1.1092230062274157e-07 6.262204802050567" Properties=species:S:1:pos:R:3:forces:R:3 energy=-40.242549896240234 free_energy=-40.242549896240234 stress="-5.2345243602758273e-05 5.027669303103721e-08 -3.007168203339461e-08 5.027669303103721e-08 -5.241281178314239e-05 -2.5080806764776753e-08 -3.007168203339461e-08 -2.5080806764776753e-08 -5.2349783800309524e-05" pbc="T T T"
Mn       1.80774256       1.27826619       3.13110261      -0.00000204      -0.00000308       0.00000106
Mn       5.42322913       3.83480244       9.39330569       0.00000176       0.00000133      -0.00000272
Au       0.00000008       0.00000002       0.00000037      -0.00000166       0.00000011       0.00000265
S        1.93863711       1.37082368       6.26220463       0.00011316       0.00007877      -0.00000031
S        5.29233417       3.74224642       6.26220567      -0.00011104      -0.00007671       0.00000226
S        4.45391014       1.37082310       4.81001193      -0.00005540       0.00007805       0.00010002
S        2.77706147       3.74224676       7.71439833       0.00005847      -0.00008062      -0.00010112
S        2.77706123       3.74224583       4.81001175       0.00005427      -0.00007907       0.00009871
S        4.45391087       1.37082342       7.71439820      -0.00005725       0.00008127      -0.00010091
