9
Lattice="5.468031238072528 2.4673946411008843e-08 3.1569693816545437 1.822677125805418 5.155309421740836 3.156969341496795 6.848950431946048e-08 -7.536498231202021e-10 6.313938644681757" Properties=species:S:1:pos:R:3:forces:R:3 energy=-39.260398864746094 free_energy=-39.260398864746094 stress="6.211712752701715e-05 3.917536872677374e-08 -1.3219883854276304e-08 3.917536872677374e-08 6.21318249613978e-05 4.016495225300787e-08 -1.3219883854276304e-08 4.016495225300787e-08 6.210240826476365e-05" pbc="T T T"
Mn       1.82267822       1.28882777       3.15696795       0.00000489       0.00000185      -0.00000641
Mn       5.46803138       3.86648132       9.47091032       0.00000023      -0.00000441       0.00001067
Ag       0.00000003       0.00000020       0.00000082      -0.00000591      -0.00000600      -0.00002256
S        1.94249698       1.37355318       6.31393977       0.00016510       0.00011757       0.00000691
S        5.34821088       3.78175645       6.31393722      -0.00015935      -0.00011307      -0.00000605
S        4.49678291       1.37355373       4.83922053      -0.00008193       0.00012290       0.00014421
S        2.79392487       3.78175573       7.78865582       0.00007421      -0.00011531      -0.00013423
S        2.79392625       3.78175655       4.83922057       0.00008789      -0.00011769       0.00014389
S        4.49678215       1.37355284       7.78865652      -0.00008503       0.00011417      -0.00013629
