9
Lattice="5.248444837853403 -6.528684586874416e-08 3.03019109599161 1.7494815441577054 4.948280879841755 3.0301911079549946 -9.175060756380352e-08 -5.022537475136314e-08 6.060382350899879" Properties=species:S:1:pos:R:3:forces:R:3 energy=-41.546382904052734 free_energy=-41.546382904052734 stress="-5.5816028179833665e-05 5.6535327530582435e-09 3.982398766311235e-08 5.6535327530582435e-09 -5.563337617786601e-05 4.373183060124575e-08 3.982398766311235e-08 4.373183060124575e-08 -5.578570926445536e-05" pbc="T T T"
Mn       1.74948266       1.23707152       3.03019085       0.00000073       0.00000101      -0.00000033
Mn       5.24844404       3.71121121       9.09057391       0.00000024       0.00000150       0.00000132
Be       0.00000006      -0.00000002       0.00000020       0.00000112       0.00000288       0.00000064
S        1.79915774       1.27219596       6.06038209      -0.00166520      -0.00117779      -0.00000418
S        5.19876890       3.67608398       6.06038084       0.00166192       0.00117595      -0.00000448
S        4.34886552       1.27219592       4.58830720       0.00083162      -0.00118247      -0.00144242
S        2.64906030       3.67608347       7.53245826      -0.00082989       0.00117286       0.00144274
S        2.64906090       3.67608482       4.58830677      -0.00083128       0.00118055      -0.00143870
S        4.34886499       1.27219620       7.53245803       0.00083083      -0.00117450       0.00144549
