9
Lattice="6.06924104626784 -1.4326117059024912e-07 3.504077851673264 2.02308022979578 5.722134909068689 3.5040778237737844 -3.400522686635815e-08 -5.821501130801136e-08 7.008155762245342" Properties=species:S:1:pos:R:3:forces:R:3 energy=-36.70782470703125 free_energy=-36.70782470703125 stress="-0.00011350653949193656 2.7243078903893547e-09 2.7201416230582254e-08 2.7243078903893547e-09 -0.00011341695790179074 1.3788600483621849e-08 2.7201416230582254e-08 1.3788600483621849e-08 -0.00011347144027240574" pbc="T T T"
Mn       2.02308140       1.43053090       3.50407861       0.00000726      -0.00002137       0.00000698
Mn       6.06923946       4.29160223      10.51223058      -0.00001057       0.00000986      -0.00002121
Be       0.00000015       0.00000025       0.00000018      -0.00000072      -0.00000242      -0.00000230
Te       1.96767449       1.39135423       7.00815543       0.00214127       0.00150276      -0.00000329
Te       6.12464600       4.33078104       7.00815796      -0.00214192      -0.00149813       0.00001312
Te       5.08540336       1.39135448       5.20813320      -0.00107470       0.00150431       0.00185144
Te       3.00691895       4.33078031       8.80817791       0.00107870      -0.00150049      -0.00184898
Te       3.00691716       4.33077988       5.20813378       0.00106864      -0.00150573       0.00185189
Te       5.08540398       1.39135549       8.80817813      -0.00106795       0.00151116      -0.00184768
