9
Lattice="4.403236298489185 -5.6785025267263307e-08 2.5422096956843654 1.4677453970025323 4.151410825633329 2.542209665009355 1.512975865309466e-08 -2.68707297067301e-08 5.084419365163213" Properties=species:S:1:pos:R:3:forces:R:3 energy=-52.99593734741211 free_energy=-52.99593734741211 stress="-0.00047428449033759534 -8.695079656284577e-10 -1.1314275383256245e-07 -8.695079656284577e-10 -0.00047428972902707756 9.463098749051824e-09 -1.1314275383256245e-07 9.463098749051824e-09 -0.0004741199081763625" pbc="T T T"
Mn       1.46774547       1.03785229       2.54221034       0.00000050       0.00000063       0.00000113
Mn       4.40323661       3.11355848       7.62662942       0.00000017       0.00000031       0.00000161
Be       0.00000015      -0.00000008       0.00000025       0.00000057       0.00000106      -0.00000471
O        1.35252665       0.95638064       5.08441856       0.00157273       0.00111419      -0.00000309
O        4.51845516       3.19503034       5.08441895      -0.00157642      -0.00111496       0.00000016
O        3.72697303       0.95638016       3.71353187      -0.00078711       0.00111610       0.00136769
O        2.14400850       3.19503049       6.45530673       0.00078890      -0.00111544      -0.00136548
O        2.14400868       3.19503067       3.71353176       0.00078967      -0.00111890       0.00136888
O        3.72697275       0.95638018       6.45530707      -0.00078827       0.00111711      -0.00136572
