9
Lattice="5.311616615081528 3.8063048094660864e-07 3.066664344863229 1.770539138282206 5.007840899594387 3.0666645046853915 -8.043542187559577e-07 -3.730228769857213e-07 6.133330082908926" Properties=species:S:1:pos:R:3:forces:R:3 energy=-39.82658767700195 free_energy=-39.82658767700195 stress="0.000255793594988063 -5.100475153341222e-09 2.327267623059015e-07 -5.100475153341222e-09 0.0002552264486439526 2.320495866570127e-07 2.327267623059015e-07 2.320495866570127e-07 0.0002557183906901628" pbc="T T T"
Mn       1.77053747       1.25196051       3.06666876      -0.00000604       0.00000029       0.00001849
Mn       5.31161178       3.75586790       9.19998777      -0.00001852      -0.00005763      -0.00002926
Be       0.00000019      -0.00000004      -0.00000011       0.00002176      -0.00001546       0.00001189
Se       1.62682589       1.15034875       6.13333163       0.00092256       0.00069061       0.00001409
Se       5.45532538       3.85749915       6.13333671      -0.00096309      -0.00067186       0.00003242
Se       4.49820096       1.15034657       4.47553791      -0.00047204       0.00069296       0.00081205
Se       2.58395763       3.85750068       7.79111751       0.00049365      -0.00065449      -0.00082618
Se       2.58395490       3.85749398       4.47553706       0.00048134      -0.00067943       0.00080276
Se       4.49820545       1.15034619       7.79111856      -0.00045988       0.00069499      -0.00083631
