9
Lattice="4.497544902211807 8.329007014686555e-08 2.5966586778658285 1.499181677123221 4.240326329711497 2.5966587393085887 -1.3799386574524007e-09 7.427594590895976e-08 5.193317358121774" Properties=species:S:1:pos:R:3:forces:R:3 energy=-50.09342575073242 free_energy=-50.09342575073242 stress="-4.926139808958396e-05 -5.8637816380269214e-08 2.486572725501901e-08 -5.8637816380269214e-08 -4.9373727961210534e-05 -3.0358130231888936e-08 2.486572725501901e-08 -3.0358130231888936e-08 -4.9179223424289376e-05" pbc="T T T"
Mn       1.49918159       1.06008160       2.59665855      -0.00000017      -0.00000015      -0.00000131
Mn       4.49754493       3.18024468       7.78997643      -0.00000072      -0.00000089       0.00000237
Cu       0.00000007       0.00000017      -0.00000014      -0.00000228      -0.00000599       0.00000239
O        1.50568209       1.06467808       5.19331742       0.00194299       0.00137338       0.00000046
O        4.49104420       3.17564834       5.19331710      -0.00193799      -0.00136963      -0.00000062
O        3.74470391       1.06467830       3.90061748      -0.00096835       0.00137243       0.00168055
O        2.25202284       3.17564840       6.48601745       0.00096905      -0.00137207      -0.00168067
O        2.25202287       3.17564826       3.90061768       0.00096853      -0.00136942       0.00167763
O        3.74470388       1.06467819       6.48601714      -0.00097120       0.00137255      -0.00168148
