9
Lattice="4.677697816911034 1.9066290823016689e-07 2.700670215970672 1.5592327772274066 4.410175984362667 2.7006702301186274 1.192915312717698e-07 1.0167948738056963e-07 5.401340225322336" Properties=species:S:1:pos:R:3:forces:R:3 energy=-47.48786926269531 free_energy=-47.48786926269531 stress="-0.0002603186876513064 1.2991365316850079e-08 -4.82082462838207e-08 1.2991365316850079e-08 -0.00026035375776700675 -8.434352594122174e-08 -4.82082462838207e-08 -8.434352594122174e-08 -0.00026050899759866297" pbc="T T T"
Mn       1.55923173       1.10254423       2.70067008      -0.00000486       0.00000045      -0.00000300
Mn       4.67769813       3.30763313       8.10201194       0.00000104       0.00000498       0.00000731
Ca       0.00000005      -0.00000016      -0.00000009      -0.00000049       0.00000575      -0.00000053
O        1.75568667       1.24145757       5.40134035      -0.00492117      -0.00348310       0.00000285
O        4.48124477       3.16871835       5.40133978       0.00492066       0.00347830      -0.00000445
O        3.79985547       1.24145778       4.22113882       0.00246410      -0.00347860      -0.00425880
O        2.43707559       3.16871861       6.58154184      -0.00246044       0.00347836       0.00425620
O        2.43707553       3.16871852       4.22113872      -0.00245807       0.00347707      -0.00425701
O        3.79985485       1.24145708       6.58154132       0.00245890      -0.00348352       0.00425717
