9
Lattice="5.244796414249178 -1.9060475575224918e-08 3.028084566630177 1.7482654456473325 4.944841792904447 3.0280845801378216 -1.931772604818438e-07 -1.2005349198740365e-07 6.056169467853164" Properties=species:S:1:pos:R:3:forces:R:3 energy=-47.68125534057617 free_energy=-47.68125534057617 stress="-3.110717807430774e-05 3.163837192232677e-09 4.2879921835492496e-08 3.163837192232677e-09 -3.115382060059346e-05 2.4492607053616666e-08 4.2879921835492496e-08 2.4492607053616666e-08 -3.117635424132459e-05" pbc="T T T"
Mn       1.74826440       1.23620920       3.02808522      -0.00000243      -0.00000334       0.00000170
Mn       5.24479582       3.70863130       9.08425290      -0.00000100      -0.00000035      -0.00000133
Co       0.00000006       0.00000024      -0.00000028       0.00000027      -0.00000498       0.00000674
S        1.76448708       1.24768063       6.05616937       0.00214501       0.00151584       0.00000115
S        5.22857451       3.69716115       6.05616964      -0.00214024      -0.00151251       0.00000026
S        4.36255274       1.24768072       4.55617533      -0.00107148       0.00151461       0.00185610
S        2.63050957       3.69716195       7.55616334       0.00107304      -0.00151344      -0.00185739
S        2.63050884       3.69716075       4.55617541       0.00106817      -0.00151333       0.00185248
S        4.36255351       1.24768069       7.55616345      -0.00107138       0.00151771      -0.00185969
