9
Lattice="6.515094525733461 -1.925676439658443e-08 3.761491539120003 2.1716981635584154 6.142490059041009 3.761491527914698 -4.13166508337024e-08 -4.293888596089434e-08 7.522983149802542" Properties=species:S:1:pos:R:3:forces:R:3 energy=-35.49642562866211 free_energy=-35.49642562866211 stress="-4.466674454306485e-06 9.11112785217938e-09 4.489963068010638e-09 9.11112785217938e-09 -4.46499961981317e-06 -7.435081439410851e-09 4.489963068010638e-09 -7.435081439410851e-09 -4.453969722817419e-06" pbc="T T T"
Mn       2.17169822       1.53562163       3.76149128       0.00000039      -0.00000482      -0.00000245
Mn       6.51509593       4.60686844      11.28447493       0.00000596       0.00000619       0.00000351
Ca      -0.00000003      -0.00000024      -0.00000022       0.00000005       0.00000301       0.00000113
Te       2.42901870       1.71757538       7.52298312       0.00043184       0.00030547      -0.00000014
Te       6.25777414       4.42491480       7.52298275      -0.00043569      -0.00030572      -0.00000202
Te       5.30058528       1.71757480       5.86508378      -0.00021682       0.00030325       0.00037655
Te       3.38620668       4.42491488       9.18088294       0.00021568      -0.00030736      -0.00037932
Te       3.38620705       4.42491540       5.86508359       0.00021671      -0.00030343       0.00037912
Te       5.30058466       1.71757492       9.18088272      -0.00021810       0.00030350      -0.00037638
