9
Lattice="4.558770693932117 6.585917226318714e-08 2.6320076034257247 1.5195903396309323 4.298050205852064 2.6320075233572306 8.320544858358118e-08 -3.922835129094207e-08 5.264015062735381" Properties=species:S:1:pos:R:3:forces:R:3 energy=-58.170135498046875 free_energy=-58.170135498046875 stress="-3.957563603762537e-05 -1.9497763048548222e-07 7.965887505179126e-09 -1.9497763048548222e-07 -3.9445465517928824e-05 -9.252372756840543e-10 7.965887505179126e-09 -9.252372756840543e-10 -3.904574623447843e-05" pbc="T T T"
Mn       1.51959044       1.07451228       2.63200747       0.00000057      -0.00000160      -0.00000165
Mn       4.55877082       3.22353785       7.89602338       0.00000095       0.00000271       0.00000485
Cr       0.00000020      -0.00000015       0.00000048      -0.00000031       0.00000417      -0.00001447
O        1.50306076       1.06282432       5.26401556      -0.00543228      -0.00384569      -0.00000220
O        4.57530062       3.23522631       5.26401488       0.00542107       0.00383642      -0.00000371
O        3.80724022       1.06282425       3.93369648       0.00271751      -0.00384244      -0.00471079
O        2.27112059       3.23522555       6.59433298      -0.00272217       0.00385618       0.00471723
O        2.27112078       3.23522581       3.93369622      -0.00271289       0.00384185      -0.00470906
O        3.80724022       1.06282458       6.59433337       0.00272746      -0.00385192       0.00471953
