9
Lattice="4.096983648011233 -2.7149575531716143e-08 2.3653946294102157 1.3656611796660953 3.8626732723823642 2.3653946480137904 2.6483011281045237e-08 4.1510950558699356e-08 4.730789212950523" Properties=species:S:1:pos:R:3:forces:R:3 energy=-61.16033172607422 free_energy=-61.16033172607422 stress="0.0001506983389845118 2.396222100742307e-07 1.2770337320944236e-07 2.396222100742307e-07 0.00015105301281437278 1.8835007153938932e-07 1.2770337320944236e-07 1.8835007153938932e-07 0.0001506781263742596" pbc="T T T"
Mn       1.36566110       0.96566834       2.36539463      -0.00000029      -0.00000005       0.00000032
Mn       4.09698374       2.89700501       7.09618397       0.00000098       0.00000116       0.00000019
C        0.00000047       0.00000027       0.00000025       0.00000431       0.00000171      -0.00000061
N        1.29658075       0.91682082       4.73078930       0.00124848       0.00088382       0.00000136
N        4.16606360       2.94585197       4.73078922      -0.00124872      -0.00088537       0.00000126
N        3.44869331       0.91682121       3.48826668      -0.00062591       0.00088334       0.00108123
N        2.01395168       2.94585210       5.97331163       0.00062406      -0.00088537      -0.00108242
N        2.01395156       2.94585231       3.48826644       0.00062424      -0.00088394       0.00108278
N        3.44869320       0.91682101       5.97331194      -0.00062728       0.00088370      -0.00108349
