9
Lattice="5.2499202506451335 3.0384032476519385e-07 3.031042860848248 1.7499735591121304 4.949673268698983 3.0310431106673006 -1.0889760068785257e-08 2.9826441907594636e-07 6.062085740558119" Properties=species:S:1:pos:R:3:forces:R:3 energy=-50.338951110839844 free_energy=-50.338951110839844 stress="-1.5038322999316733e-05 -1.4141061654981968e-09 6.507482996909175e-09 -1.4141061654981968e-09 -1.5084513506735675e-05 -2.2383899178635147e-09 6.507482996909175e-09 -2.2383899178635147e-09 -1.4994422599556856e-05" pbc="T T T"
Mn       1.74997212       1.23741791       3.03104311      -0.00000095       0.00000006       0.00000011
Mn       5.24992094       3.71225611       9.09312725      -0.00000063       0.00000005      -0.00000064
Cr      -0.00000013      -0.00000005       0.00000016      -0.00000117       0.00000095       0.00000028
S        1.82184380       1.28823829       6.06208602      -0.00007769      -0.00005642       0.00000090
S        5.17805035       3.66143544       6.06208679       0.00007999       0.00005829       0.00000020
S        4.33899857       1.28823819       4.60880610       0.00003882      -0.00005566      -0.00006992
S        2.66089556       3.66143591       7.51536576      -0.00003946       0.00005686       0.00006706
S        2.66089486       3.66143506       4.60880626      -0.00003859       0.00005424      -0.00006717
S        4.33899911       1.28823873       7.51536535       0.00003980      -0.00005835       0.00006926
