9
Lattice="6.163790171769941 1.1475963170349864e-08 3.5586661948349034 2.0545967726655725 5.811277118652107 3.5586661291511033 7.303072990396412e-08 -2.8805436307193742e-08 7.11733226317684" Properties=species:S:1:pos:R:3:forces:R:3 energy=-42.81597900390625 free_energy=-42.81597900390625 stress="-9.101680188905448e-05 -4.4684483668788744e-08 -2.8818698538657372e-09 -4.4684483668788744e-08 -9.097270958591253e-05 -8.444953181196979e-09 -2.8818698538657372e-09 -8.444953181196979e-09 -9.095977293327451e-05" pbc="T T T"
Mn       2.05459655       1.45281832       3.55866584      -0.00000128      -0.00000738      -0.00000123
Mn       6.16379008       4.35845860      10.67599703       0.00000012       0.00000619      -0.00001112
Cr      -0.00000011      -0.00000013       0.00000001       0.00000232       0.00000288      -0.00000226
Te       2.13093081       1.50679515       7.11733251       0.00315461       0.00222870       0.00000122
Te       6.08745662       4.30448178       7.11733335      -0.00315817      -0.00223048       0.00000528
Te       5.09832480       1.50679511       5.40410664      -0.00157610       0.00222635       0.00273150
Te       3.12006255       4.30448201       8.83055807       0.00157798      -0.00222514      -0.00272901
Te       3.12006199       4.30448208       5.40410681       0.00157543      -0.00222717       0.00273304
Te       5.09832478       1.50679546       8.83055813      -0.00157498       0.00222606      -0.00272741
