9
Lattice="4.121968394941898 -1.9629034601348622e-07 2.379819808533273 1.3739894782327489 3.8862281313581493 2.379819465039126 2.2024803181576563e-07 -2.6495376428364375e-07 4.759639235585734" Properties=species:S:1:pos:R:3:forces:R:3 energy=-57.12070846557617 free_energy=-57.12070846557617 stress="5.5359210819005966e-05 2.2242389263738005e-08 2.389658959600638e-07 2.2242389263738005e-08 5.5181048082886264e-05 -3.564502293329497e-08 2.389658959600638e-07 -3.564502293329497e-08 5.544817031477578e-05" pbc="T T T"
Mn       1.37398930       0.97155688       2.37981978      -0.00000010      -0.00000119      -0.00000014
Mn       4.12196865       2.91467068       7.13945889      -0.00000137       0.00000003       0.00000337
C        0.00000051      -0.00000009       0.00000026      -0.00000750       0.00000058      -0.00000978
O        1.20116998       0.84935460       4.75963919       0.00063705       0.00045168      -0.00000070
O        4.29478829       3.03687288       4.75963930      -0.00063872      -0.00045288       0.00000164
O        3.52138362       0.84935480       3.42006336      -0.00031787       0.00045699       0.00055313
O        1.97457411       3.03687285       6.09921481       0.00032139      -0.00045037      -0.00055087
O        1.97457449       3.03687263       3.42006304       0.00031775      -0.00044876       0.00054514
O        3.52138355       0.84935492       6.09921553      -0.00031084       0.00044513      -0.00054133
