9
Lattice="5.617159446587681 5.0239046197836475e-08 3.2430685335155336 1.8723865423242023 5.295908968077054 3.243068511410256 2.4850315167188622e-08 -9.50153963063273e-09 6.486137023989107" Properties=species:S:1:pos:R:3:forces:R:3 energy=-45.77385711669922 free_energy=-45.77385711669922 stress="-0.00032469825237058103 -1.6913999090206744e-09 -3.4088791789343986e-09 -1.6913999090206744e-09 -0.0003247547138016671 2.5383994906036378e-09 -3.4088791789343986e-09 2.5383994906036378e-09 -0.0003246773558203131" pbc="T T T"
Mn       1.87238553       1.32397943       3.24307008      -0.00000824       0.00001616       0.00001306
Mn       5.61716075       3.97193410       9.72920784       0.00001151       0.00001988       0.00002059
Cr       0.00000016       0.00000006       0.00000006       0.00000015       0.00000068       0.00000403
Se       1.95937090       1.38548359       6.48613698       0.00148961       0.00104747      -0.00000202
Se       5.53017578       3.91042419       6.48613673      -0.00148442      -0.00105865      -0.00000518
Se       4.63747382       1.38548409       4.93993262      -0.00074535       0.00104921       0.00128586
Se       2.85207063       3.91042459       8.03234047       0.00073451      -0.00105527      -0.00129581
Se       2.85207167       3.91042349       4.93993212       0.00074298      -0.00105994       0.00128254
Se       4.63747480       1.38548254       8.03233937      -0.00074073       0.00104028      -0.00130306
