9
Lattice="4.637419412097423 -1.6521688108069385e-07 2.677415434686459 1.5458063774816206 4.372200719322384 2.677415326345867 5.2813571758565946e-08 -9.534474061908403e-08 5.354830777897116" Properties=species:S:1:pos:R:3:forces:R:3 energy=-43.96747589111328 free_energy=-43.96747589111328 stress="0.0001402335037710145 6.172017918970596e-08 1.0365272196111164e-08 6.172017918970596e-08 0.0001402036432409659 -8.832971687411373e-09 1.0365272196111164e-08 -8.832971687411373e-09 0.00014022542745806277" pbc="T T T"
Mn       1.54580685       1.09305033       2.67741553       0.00000174       0.00000073       0.00000111
Mn       4.63741933       3.27914994       8.03224615      -0.00000062      -0.00000192       0.00000112
Cd       0.00000001      -0.00000033       0.00000021       0.00000269       0.00001098       0.00000465
O        1.72832483       1.22210991       5.35483081       0.00521779       0.00368792      -0.00000007
O        4.45490124       3.15009061       5.35483082      -0.00522274      -0.00369349      -0.00000206
O        3.77325687       1.22211004       4.17418810      -0.00261036       0.00369173       0.00451839
O        2.40996865       3.15009081       6.53547319       0.00261012      -0.00369418      -0.00452349
O        2.40996856       3.15009044       4.17418806       0.00261086      -0.00369266       0.00451991
O        3.77325704       1.22211021       6.53547333      -0.00260988       0.00369135      -0.00451946
