9
Lattice="5.954322699545331 -2.3884863727042092e-08 3.4377298551575706 1.9847741689122118 5.613789411537977 3.437729927471775 7.612405328195157e-08 1.4239430928801874e-07 6.875459578464393" Properties=species:S:1:pos:R:3:forces:R:3 energy=-37.46340560913086 free_energy=-37.46340560913086 stress="0.0001122324465541169 2.7255710577378522e-08 -6.594313362029425e-08 2.7255710577378522e-08 0.00011228485527681187 -4.183503676813416e-08 -6.594313362029425e-08 -4.183503676813416e-08 0.00011227084178244695" pbc="T T T"
Mn       1.98477443       1.40345084       3.43773150       0.00000134       0.00003436       0.00001695
Mn       5.95432311       4.21034325      10.31318702       0.00000450       0.00001172      -0.00002947
Ca      -0.00000009      -0.00000037      -0.00000008       0.00000011       0.00000596       0.00000120
Se       2.25405090       1.59385422       6.87545896      -0.00431479      -0.00305466      -0.00000902
Se       5.68504800       4.01993404       6.87546135       0.00433002       0.00304104       0.00001988
Se       4.82729608       1.59385341       5.38979509       0.00214730      -0.00306567      -0.00373749
Se       3.11179959       4.01993460       8.36112573      -0.00215706       0.00304465       0.00374676
Se       3.11179760       4.01993358       5.38979386      -0.00217669       0.00303383      -0.00374519
Se       4.82729816       1.59385457       8.36112401       0.00216532      -0.00305140       0.00373632
