9
Lattice="6.110110557688974 -1.436824464918282e-08 3.5276738652724933 2.0367034655998344 5.7606674567772815 3.527673934698848 3.0651922548915635e-08 1.0670374488466151e-07 7.055347677454387" Properties=species:S:1:pos:R:3:forces:R:3 energy=-36.803627014160156 free_energy=-36.803627014160156 stress="-1.5052652088343166e-05 8.803399786927457e-09 -1.6339429809164585e-09 8.803399786927457e-09 -1.5061410522321239e-05 -5.96643001671282e-09 -1.6339429809164585e-09 -5.96643001671282e-09 -1.5073478607519064e-05" pbc="T T T"
Mn       2.03670515       1.44016659       3.52767260       0.00001299      -0.00000211      -0.00001029
Mn       6.11010974       4.32050033      10.58302405      -0.00000810      -0.00000317       0.00001832
Cu       0.00000001       0.00000009      -0.00000010       0.00000030      -0.00000055       0.00000311
Te       2.13019215       1.50627331       7.05534781       0.00009535       0.00006670       0.00000362
Te       6.01662170       4.25439468       7.05534603      -0.00009748      -0.00006342      -0.00001007
Te       5.04501420       1.50627420       5.37247376      -0.00004806       0.00007142       0.00007741
Te       3.10179919       4.25439349       8.73822169       0.00004672      -0.00007229      -0.00008114
Te       3.10180088       4.25439443       5.37247420       0.00005482      -0.00006363       0.00007951
Te       5.04501322       1.50627309       8.73822190      -0.00005651       0.00006714      -0.00008045
