9
Lattice="5.477776245548195 -2.3507728524531916e-08 3.1625956258658006 1.8259253740943349 5.16449699032372 3.1625956586450337 5.2059583634529e-08 7.69578982866696e-08 6.325191161561755" Properties=species:S:1:pos:R:3:forces:R:3 energy=-37.23331832885742 free_energy=-37.23331832885742 stress="0.00020126717572566122 -1.093380497252383e-08 4.257973529320225e-08 -1.093380497252383e-08 0.0002012007316807285 -4.106436790607404e-08 4.257973529320225e-08 -4.106436790607404e-08 0.00020132501958869398" pbc="T T T"
Mn       1.82592570       1.29112365       3.16259595      -0.00000031      -0.00000348       0.00000151
Mn       5.47777538       3.87337290       9.48778663       0.00000050       0.00000237      -0.00000065
Cd       0.00000021       0.00000021       0.00000008       0.00000095      -0.00000376       0.00000338
S        2.00111602       1.41500250       6.32519113      -0.00309190      -0.00218979      -0.00000160
S        5.30258533       3.74949468       6.32519119       0.00309214       0.00219181       0.00000123
S        4.47721789       1.41500228       4.89561319       0.00154100      -0.00219271      -0.00267643
S        2.82648395       3.74949507       7.75476945      -0.00154281       0.00219136       0.00267905
S        2.82648364       3.74949417       4.89561351      -0.00154860       0.00219041      -0.00268057
S        4.47721852       1.41500265       7.75476871       0.00154912      -0.00218633       0.00267375
