9
Lattice="5.722462280358847 1.614543396439246e-07 3.3038649605367816 1.9074874597358367 5.395189153268862 3.303865167120282 -1.0621650580693792e-07 1.7790575187508726e-07 6.607730105045905" Properties=species:S:1:pos:R:3:forces:R:3 energy=-39.871891021728516 free_energy=-39.871891021728516 stress="-0.0003225200925953686 -8.094482417675408e-09 -3.158360684096806e-08 -8.094482417675408e-09 -0.00032254590769298375 1.2567330287538425e-08 -3.158360684096806e-08 1.2567330287538425e-08 -0.00032254518009722233" pbc="T T T"
Mn       1.90748711       1.34879716       3.30386449      -0.00000041      -0.00000072      -0.00000409
Mn       5.72246174       4.04639218       9.91159618      -0.00000176      -0.00000259       0.00000715
Ca      -0.00000033       0.00000129      -0.00000046       0.00000598      -0.00001533       0.00000562
S        2.12088259       1.49969044       6.60773037      -0.00785799      -0.00555578       0.00000428
S        5.50906699       3.89549878       6.60772891       0.00786213       0.00555670      -0.00001065
S        4.66202127       1.49969041       5.14060316       0.00392977      -0.00555316      -0.00680210
S        2.96792882       3.89549866       8.07485697      -0.00393250       0.00555852       0.00680983
S        2.96792924       3.89549862       5.14060378      -0.00392950       0.00556310      -0.00681094
S        4.66202120       1.49969039       8.07485742       0.00392438      -0.00555069       0.00680105
