9
Lattice="5.539458345527308 1.6718149506863213e-07 3.1982078488597496 1.846486234842975 5.222652235471272 3.1982079145963382 -4.7871142107718475e-08 4.6660565424832776e-08 6.396415780634735" Properties=species:S:1:pos:R:3:forces:R:3 energy=-38.82143783569336 free_energy=-38.82143783569336 stress="-6.604837835766375e-05 -3.8326490425788506e-08 -9.950117174639672e-09 -3.8326490425788506e-08 -6.620743806706741e-05 1.580928099542689e-08 -9.950117174639672e-09 1.580928099542689e-08 -6.615080928895622e-05" pbc="T T T"
Mn       1.84648894       1.30566715       3.19820565       0.00002420       0.00003499      -0.00001766
Mn       5.53945388       3.91699242       9.59462370      -0.00003851       0.00002583       0.00000060
Cu       0.00000001      -0.00000009       0.00000012       0.00000177      -0.00000300       0.00000232
Se       2.01631660       1.42574864       6.39641603      -0.00099352      -0.00072478       0.00000440
Se       5.36962997       3.79690140       6.39641529       0.00100499       0.00070512      -0.00000294
Se       4.53130026       1.42574952       4.94438845       0.00049619      -0.00071639      -0.00086915
Se       2.85464463       3.79689957       7.84844645      -0.00049387       0.00068951       0.00088763
Se       2.85464495       3.79690134       4.94438662      -0.00049022       0.00070150      -0.00087982
Se       4.53129889       1.42574988       7.84844383       0.00048910      -0.00071295       0.00087458
