9
Lattice="5.590128198021604 -1.9037588898125863e-07 3.2274618023736332 1.863375923776436 5.270423111178802 3.227461737841941 -3.271211154430295e-08 -1.0216583361911703e-07 6.454923661406363" Properties=species:S:1:pos:R:3:forces:R:3 energy=-42.88096618652344 free_energy=-42.88096618652344 stress="-2.1838561224285513e-05 9.029195169318882e-09 6.23264151400349e-09 9.029195169318882e-09 -2.175766167056281e-05 -8.810473239861949e-09 6.23264151400349e-09 -8.810473239861949e-09 -2.1778989321319386e-05" pbc="T T T"
Mn       1.86337701       1.31760351       3.22746179       0.00000896      -0.00002191       0.00000027
Mn       5.59012814       3.95281731       9.68238294       0.00000042       0.00000343      -0.00002411
Co      -0.00000012       0.00000022       0.00000006      -0.00000187       0.00000014      -0.00000086
Se       1.88155232       1.33045790       6.45492357      -0.00085640      -0.00060753      -0.00000053
Se       5.57195135       3.93996553       6.45492521       0.00085241       0.00061609       0.00001303
Se       4.64935162       1.33045772       4.85693420       0.00042462      -0.00061076      -0.00074087
Se       2.80415268       3.93996527       8.05291277      -0.00042260       0.00061303       0.00074276
Se       2.80415161       3.93996530       4.85693445      -0.00043120       0.00061067      -0.00073697
Se       4.64935164       1.33045846       8.05291374       0.00042589      -0.00060334       0.00074735
