9
Lattice="6.0660187734757 4.6438100568450336e-08 3.502217649215681 2.0220062543925255 5.719097421914674 3.502217730994393 -2.775237780087795e-08 8.053416176971659e-08 7.004435346499874" Properties=species:S:1:pos:R:3:forces:R:3 energy=-40.603370666503906 free_energy=-40.603370666503906 stress="-0.00012440761202014983 1.0389848981162686e-08 -1.5402154218691066e-08 1.0389848981162686e-08 -0.00012444224557839334 5.737169850306145e-09 -1.5402154218691066e-08 5.737169850306145e-09 -0.0001244349405169487" pbc="T T T"
Mn       2.02200815       1.42977755       3.50221643       0.00001378       0.00002260      -0.00000905
Mn       6.06601865       4.28932280      10.50665454      -0.00000225      -0.00000400       0.00001132
Co      -0.00000027      -0.00000010       0.00000033       0.00000202      -0.00000078      -0.00000367
Te       2.01046641       1.42161437       7.00443530      -0.00165115      -0.00116733       0.00000199
Te       6.07755915       4.29748255       7.00443388       0.00165276       0.00116337      -0.00000666
Te       5.06078555       1.42161485       5.24333241       0.00082413      -0.00116378      -0.00143071
Te       3.02723877       4.29748120       8.76553904      -0.00083113       0.00115648       0.00143630
Te       3.02723928       4.29748241       5.24333210      -0.00082451       0.00115968      -0.00143241
Te       5.06078431       1.42161450       8.76553889       0.00081637      -0.00116622       0.00143290
