9
Lattice="4.128502762232495 2.250540326440452e-08 2.383592109306378 1.3761676042541158 3.8923895685666388 2.3835921168841234 5.558785578644459e-09 1.321146452168328e-08 4.767184208984646" Properties=species:S:1:pos:R:3:forces:R:3 energy=-60.5811882019043 free_energy=-60.5811882019043 stress="4.249004632583819e-05 5.380974776869607e-09 -6.647421457728342e-08 5.380974776869607e-09 4.208484824630432e-05 -6.251065798323907e-08 -6.647421457728342e-08 -6.251065798323907e-08 4.254207669873722e-05" pbc="T T T"
Mn       1.37616768       0.97309708       2.38359218       0.00000102       0.00000011       0.00000060
Mn       4.12850273       2.91929253       7.15077635      -0.00000044       0.00000065      -0.00000012
Co       0.00000014       0.00000006       0.00000014      -0.00000504      -0.00000194      -0.00000139
N        1.42476955       1.00746380       4.76718439      -0.00586745      -0.00414870       0.00000238
N        4.07990062       2.88492559       4.76718413       0.00587241       0.00415149      -0.00000012
N        3.41611789       1.00746407       3.61747866       0.00293370      -0.00414851      -0.00508358
N        2.08855250       2.88492574       5.91688950      -0.00293460       0.00414789       0.00508145
N        2.08855222       2.88492556       3.61747875      -0.00293375       0.00414933      -0.00508159
N        3.41611815       1.00746396       5.91688957       0.00293349      -0.00415018       0.00508281
