9
Lattice="5.308132643867616 -1.965712091532148e-07 3.0646516448376055 1.7693774383250362 5.004554532195382 3.064651513724375 1.5021971758534814e-08 -1.4995815548592444e-07 6.129303263656445" Properties=species:S:1:pos:R:3:forces:R:3 energy=-41.99977493286133 free_energy=-41.99977493286133 stress="-0.000357343495124951 -6.1343743418262875e-09 -1.779909020171999e-08 -6.1343743418262875e-09 -0.0003573168069124222 1.6847392814156592e-08 -1.779909020171999e-08 1.6847392814156592e-08 -0.0003573307767510414" pbc="T T T"
Mn       1.76937727       1.25113964       3.06465151      -0.00000104       0.00000410       0.00000087
Mn       5.30813230       3.75341622       9.19395488      -0.00000139       0.00000157      -0.00000085
Cu       0.00000009      -0.00000005      -0.00000002      -0.00000078      -0.00000084      -0.00000123
S        1.84700400       1.30602859       6.12930319       0.00161737       0.00114581      -0.00000065
S        5.23050699       3.69852471       6.12930312      -0.00161684      -0.00114691       0.00000019
S        4.38463104       1.30602888       4.66420344      -0.00080696       0.00114515       0.00139993
S        2.69287888       3.69852497       7.59440324       0.00080910      -0.00114694      -0.00140172
S        2.69287883       3.69852496       4.66420339       0.00080803      -0.00114736       0.00140250
S        4.38463097       1.30602878       7.59440301      -0.00080729       0.00114533      -0.00139862
