9
Lattice="4.519566409925074 -5.873785059336072e-09 2.6093728942392116 1.5065221327121747 4.261088172615966 2.609372891453493 -2.834234797275485e-08 -2.34528749594266e-08 5.218745837568811" Properties=species:S:1:pos:R:3:forces:R:3 energy=-53.150577545166016 free_energy=-53.150577545166016 stress="-8.691834955243394e-05 3.34442766813936e-08 5.278331727254226e-08 3.34442766813936e-08 -8.710657129995525e-05 -2.4488941985367774e-09 5.278331727254226e-08 -2.4488941985367774e-09 -8.711152622709051e-05" pbc="T T T"
Mn       1.50652246       1.06527207       2.60937286       0.00000205       0.00000107       0.00000039
Mn       4.51956657       3.19581643       7.82811990      -0.00000047       0.00000102       0.00000289
Co      -0.00000008       0.00000012      -0.00000005       0.00000185      -0.00000108       0.00000124
O        1.46563285       1.03635880       5.21874578       0.00081062       0.00057244       0.00000037
O        4.56045557       3.22472936       5.21874511      -0.00081110      -0.00057560      -0.00000271
O        3.78674976       1.03635882       3.87864785      -0.00040603       0.00057364       0.00070316
O        2.23933847       3.22472935       6.55884353       0.00040507      -0.00057387      -0.00070322
O        2.23933867       3.22472911       3.87864803       0.00040478      -0.00057226       0.00070262
O        3.78674975       1.03635857       6.55884346      -0.00040680       0.00057483      -0.00070572
