9
Lattice="3.3158773416163085 -2.2499982186259078 1.9250350318503058 0.9541651601505228 2.6126898361869295 2.7078575625318626 -0.876859480945656 1.7342347660406554 3.35302046223676" Properties=species:S:1:pos:R:3:forces:R:3 energy=-114165272.0 free_energy=-114165272.0 stress="27351436.0 12068515.0 -6967194.0 12068515.0 6246031.5 -5019685.5 -6967194.0 -5019685.5 3505611.0" pbc="T T T"
Mn       0.96069787      -0.42813668       0.13327154 -29478224.00000000 -10245523.00000000 17238566.00000000
Mn       3.07031052      -0.59516692       4.56117490 2887412.00000000 -32842408.00000000 -19756560.00000000
C        3.13608748      -2.34662250       0.78253083 -47968568.00000000 219697376.00000000 18046536.00000000
S        2.42474707       0.49878510       3.74901689 -99577456.00000000 -225231328.00000000 164507616.00000000
S        3.55701875       0.81810174       4.13155288 -162143632.00000000 -182359040.00000000 -155054336.00000000
S        6.91102452      -3.32032004       3.17756838 175609312.00000000 37177804.00000000 198659392.00000000
S        1.83652612       2.35899673       6.49582349 272265824.00000000 102736976.00000000 -30434256.00000000
S        3.56499060       1.57103564       4.27832315 14157336.00000000 35362568.00000000 -247379392.00000000
S        5.42305646      -1.40733669       5.63865036 -125751944.00000000 55703548.00000000 54172420.00000000
