9
Lattice="5.753359681200627 3.004291026688753e-07 3.321703846412135 1.9177867884690647 5.4243198858097825 3.321703941984013 1.6356745115681216e-07 2.3271082798536148e-07 6.643407409517095" Properties=species:S:1:pos:R:3:forces:R:3 energy=-35.082176208496094 free_energy=-35.082176208496094 stress="4.900142448605038e-05 -7.378814359526586e-08 -5.9173373756493675e-08 -7.378814359526586e-08 4.8927344323601574e-05 -7.224009834772005e-08 -5.9173373756493675e-08 -7.224009834772005e-08 4.888372859568335e-05" pbc="T T T"
Mn       1.91779069       1.35607891       3.32170392       0.00004348      -0.00001399       0.00000207
Mn       5.75335745       4.06824007       9.96510620      -0.00002783      -0.00000170      -0.00005485
Cd       0.00000046      -0.00000037      -0.00000044      -0.00000345       0.00000322       0.00000212
Se       2.18904453       1.54788751       6.64340733      -0.00028405      -0.00021206      -0.00000385
Se       5.48210125       3.87643376       6.64341133       0.00028130       0.00022033       0.00002915
Se       4.65883529       1.54788712       5.21747087       0.00012210      -0.00021413      -0.00025883
Se       3.01231171       3.87643155       8.06934433      -0.00012070       0.00020456       0.00026354
Se       3.01230868       3.87643232       5.21747195      -0.00014473       0.00020367      -0.00025010
Se       4.65883642       1.54789076       8.06934526       0.00013380      -0.00018978       0.00027063
