9
Lattice="5.301492364414256 2.236216611145132e-07 3.060817951065993 1.767164232731937 4.998295662129026 3.060818123529722 -3.286511441607009e-08 1.879849138828858e-07 6.121635959056032" Properties=species:S:1:pos:R:3:forces:R:3 energy=-48.834407806396484 free_energy=-48.834407806396484 stress="-0.0002508302277419716 3.6340885856134264e-09 -8.794426298308622e-10 3.6340885856134264e-09 -0.00025088118854910135 1.081610356834517e-08 -8.794426298308622e-10 1.081610356834517e-08 -0.00025082178763113916" pbc="T T T"
Mn       1.76716345       1.24957267       3.06081824      -0.00000425      -0.00000658       0.00000062
Mn       5.30149272       3.74872033       9.18245278       0.00000135      -0.00000879      -0.00000482
Fe      -0.00000014       0.00000016       0.00000028       0.00000319       0.00000172      -0.00000479
S        1.76684607       1.24935017       6.12163615       0.00721377       0.00510412      -0.00000011
S        5.30180982       3.74894681       6.12163667      -0.00721729      -0.00510085       0.00000241
S        4.41806924       1.24934972       4.59095174      -0.00360754       0.00510499       0.00625095
S        2.65058754       3.74894713       7.65231980       0.00360706      -0.00509867      -0.00624833
S        2.65058752       3.74894705       4.59095235       0.00360921      -0.00510031       0.00625145
S        4.41806989       1.24935037       7.65232021      -0.00360560       0.00510389      -0.00624803
