9
Lattice="6.086008379052719 -6.389576977876719e-08 3.513758673308413 2.028669436916592 5.737943659485905 3.5137586084015635 7.954920445415586e-08 -2.3244376131386795e-08 7.027517208833405" Properties=species:S:1:pos:R:3:forces:R:3 energy=-41.910953521728516 free_energy=-41.910953521728516 stress="-0.0003606558311730623 -3.0632342884473474e-08 3.297267170410123e-08 -3.0632342884473474e-08 -0.0003606071404647082 -5.08868041038113e-08 3.297267170410123e-08 -5.08868041038113e-08 -0.0003605998936109245" pbc="T T T"
Mn       2.02866756       1.43448309       3.51376045      -0.00001409      -0.00002144       0.00001210
Mn       6.08600890       4.30345772      10.54127871       0.00000428       0.00000168       0.00002040
Fe       0.00000001      -0.00000053      -0.00000050       0.00000329       0.00001210       0.00000609
Te       1.97826709       1.39884606       7.02751692      -0.00340243      -0.00240448      -0.00000522
Te       6.13641068       4.33909823       7.02751642       0.00339210       0.00240295      -0.00000917
Te       5.09687550       1.39884634       5.22698797       0.00170540      -0.00240157      -0.00294743
Te       3.01780266       4.33910003       8.82804464      -0.00169858       0.00241287       0.00292889
Te       3.01780394       4.33909810       5.22698819      -0.00169697       0.00241084      -0.00294701
Te       5.09687525       1.39884527       8.82804519       0.00170702      -0.00241288       0.00294119
