9
Lattice="4.496980366041078 -2.799769493001663e-08 2.596332375911786 1.498993524921357 4.239793383208274 2.5963322096853694 1.5161673960687407e-07 -9.63756358587786e-08 5.192664489215688" Properties=species:S:1:pos:R:3:forces:R:3 energy=-54.821495056152344 free_energy=-54.821495056152344 stress="0.00026695404085330665 1.2378643887700491e-08 1.413445271936098e-08 1.2378643887700491e-08 0.00026665470795705914 -3.9740648105635046e-08 1.413445271936098e-08 -3.9740648105635046e-08 0.0002669519162736833" pbc="T T T"
Mn       1.49899322       1.05994900       2.59633213      -0.00000021       0.00000221       0.00000036
Mn       4.49698121       3.17984503       7.78899537       0.00000183       0.00000109      -0.00000608
Ge      -0.00000001      -0.00000004      -0.00000005       0.00000327      -0.00000111       0.00000069
O        1.51831342       1.07360944       5.19266435       0.00213814       0.00151366       0.00000338
O        4.47766109       3.16618263       5.19266546      -0.00213671      -0.00151330       0.00000065
O        3.73782335       1.07360874       3.91123009      -0.00107163       0.00151336       0.00185585
O        2.25815025       3.16618430       6.47409927       0.00106919      -0.00151491      -0.00185430
O        2.25815013       3.16618381       3.91123008       0.00107211      -0.00151300       0.00185406
O        3.73782391       1.07360960       6.47409959      -0.00107610       0.00151354      -0.00185490
