9
Lattice="5.761405592893201 -8.81065152687473e-09 3.3263490799347757 1.9204685389522589 5.431905322413731 3.3263490517115932 -6.689640234836378e-10 -3.503922573388207e-08 6.6526981610282485" Properties=species:S:1:pos:R:3:forces:R:3 energy=-39.82200622558594 free_energy=-39.82200622558594 stress="-0.0003799466066993773 7.742697150092681e-09 -2.5358023236776717e-08 7.742697150092681e-09 -0.00037998301559127867 -1.4073018306248741e-08 -2.5358023236776717e-08 -1.4073018306248741e-08 -0.00037995664752088487" pbc="T T T"
Mn       1.92046934       1.35797847       3.32634855       0.00000739       0.00002027      -0.00000683
Mn       5.76140669       4.07392883       9.97905006       0.00001094      -0.00000191       0.00002125
Ge      -0.00000031      -0.00000028       0.00000044       0.00000655       0.00000624      -0.00000180
Se       2.00456324       1.41744031       6.65269847      -0.00838585      -0.00592746       0.00000129
Se       5.67731183       4.01446489       6.65269691       0.00837860       0.00591911      -0.00001012
Se       4.75912416       1.41744045       5.06235102       0.00419001      -0.00592095      -0.00725791
Se       2.92274857       4.01446409       8.24304445      -0.00420215       0.00591600       0.00725663
Se       2.92274965       4.01446463       5.06235080      -0.00418966       0.00591789      -0.00725923
Se       4.75912334       1.41743974       8.24304451       0.00418439      -0.00592905       0.00725672
