9
Lattice="4.658633068754219 -0.4194220227826306 3.4235555011956333 1.1849960311304768 4.489887978562068 3.3787549677600768 0.05691702602374008 -0.01760743520586788 6.792511870630891" Properties=species:S:1:pos:R:3:forces:R:3 energy=-70.31670379638672 free_energy=-70.31670379638672 stress="9.560639591654763e-05 1.0332736565032974e-05 -0.00012652612349484116 1.0332736565032974e-05 -0.00015194584557320923 -0.00020091625628992915 -0.00012652612349484116 -0.00020091625628992915 -5.4969543270999566e-05" pbc="T T T"
Mn       2.28182576       0.31868846       5.05263498      -0.00251475      -0.00117835       0.00045636
Mn       4.79459388       2.06985198       8.58350665      -0.00018179       0.00512852       0.00195382
Ge       0.40576166      -0.60162156      -0.02177589       0.00094143      -0.00216383       0.00052078
N        0.67094802       0.90678422       5.75567210      -0.00159671       0.00186121      -0.00040293
N        4.77297903       3.76916189       7.84094301       0.00039506      -0.00306302      -0.00008568
N        3.23750045       1.00153043       6.36766984      -0.00192983      -0.00248243      -0.00410163
N        2.28805409       4.00513697       6.82332874       0.00014101      -0.00212951      -0.00122747
N        1.36209689       3.35513737       6.67478828      -0.00187357      -0.00137843       0.00010835
N        3.78842072       1.38676564       7.30253799       0.00661933       0.00540598       0.00277820
