9
Lattice="5.810943289044997 -4.8578216709440614e-08 3.354949577549332 1.9369810331427357 5.478609334180922 3.354949607696708 2.0797034943777632e-07 1.839800636085386e-07 6.709898794883452" Properties=species:S:1:pos:R:3:forces:R:3 energy=-34.24925231933594 free_energy=-34.24925231933594 stress="0.0002885606372728944 6.388258810829939e-08 -2.3507308100079172e-08 6.388258810829939e-08 0.00028858857695013285 -3.9071576196647584e-08 -2.3507308100079172e-08 -3.9071576196647584e-08 0.00028853362891823053" pbc="T T T"
Mn       1.93697727       1.36965440       3.35495084      -0.00004058       0.00002275       0.00001884
Mn       5.81094421       4.10895638      10.06484562       0.00001337      -0.00001252      -0.00002832
Hg      -0.00000016       0.00000008       0.00000024      -0.00000154      -0.00000265       0.00000029
Se       2.23952754       1.58358652       6.70989839       0.00290351       0.00206389      -0.00000516
Se       5.50839776       3.89502127       6.70990147      -0.00289215      -0.00207156       0.00001593
Se       4.69118025       1.58358453       5.29443795      -0.00144659       0.00205152       0.00252303
Se       3.05674507       3.89502497       8.12536059       0.00145402      -0.00205304      -0.00251922
Se       3.05674326       3.89502323       5.29443753       0.00144042      -0.00206254       0.00251919
Se       4.69118292       1.58358648       8.12535924      -0.00143058       0.00206423      -0.00252464
