9
Lattice="4.636826903084124 -6.035010979953935e-08 2.6770731591582497 1.5456089116856044 4.371642244244632 2.677073157617556 -6.233829213772247e-08 -4.59667962222965e-08 5.354146426289577" Properties=species:S:1:pos:R:3:forces:R:3 energy=-42.95771789550781 free_energy=-42.95771789550781 stress="-0.0003499528975225985 8.87685587258602e-08 8.818870078641794e-09 8.87685587258602e-08 -0.00035001381183974445 -2.2666840848728498e-08 8.818870078641794e-09 -2.2666840848728498e-08 -0.0003500330203678459" pbc="T T T"
Mn       1.54560863       1.09291053       2.67707320      -0.00000053       0.00000030       0.00000092
Mn       4.63682643       3.27873125       8.03121902      -0.00000203      -0.00000132      -0.00000168
Hg      -0.00000009      -0.00000006       0.00000009       0.00000023       0.00000405       0.00000133
O        1.65174434       1.16795954       5.35414635       0.00456554       0.00322768       0.00000080
O        4.53069150       3.20368267       5.35414646      -0.00456661      -0.00322899      -0.00000004
O        3.81095473       1.16795939       4.10752545      -0.00228608       0.00323179       0.00395927
O        2.37148121       3.20368298       6.60076739       0.00228807      -0.00323349      -0.00396061
O        2.37148093       3.20368262       4.10752541       0.00228620      -0.00323313       0.00395933
O        3.81095533       1.16795963       6.60076749      -0.00228450       0.00323308      -0.00395900
