9
Lattice="5.513883146425387 1.4629542441781782e-07 3.183442015428565 1.8379611280897725 5.198539595334231 3.1834421170087936 -1.7733153768669306e-07 -9.824911708475644e-10 6.366884338004375" Properties=species:S:1:pos:R:3:forces:R:3 energy=-36.10219955444336 free_energy=-36.10219955444336 stress="-9.628838597564027e-06 2.9367157594606397e-08 3.0989419030902354e-08 2.9367157594606397e-08 -9.833550393523183e-06 1.5576837597564008e-08 3.0989419030902354e-08 1.5576837597564008e-08 -9.545273314870428e-06" pbc="T T T"
Mn       1.83795854       1.29963383       3.18344234      -0.00001372      -0.00000713       0.00000040
Mn       5.51388470       3.89890747       9.55032864       0.00000780       0.00001337       0.00000660
Hg      -0.00000003      -0.00000112      -0.00000060       0.00000085       0.00001360       0.00000549
S        2.02952681       1.43509148       6.36688452      -0.00117019      -0.00083134       0.00000532
S        5.32231845       3.76344780       6.36688344       0.00116697       0.00082448      -0.00000388
S        4.49912083       1.43509114       4.94106464       0.00059402      -0.00083742      -0.00100899
S        2.85272264       3.76344967       7.79270391      -0.00058921       0.00083044       0.00099918
S        2.85272383       3.76344874       4.94106370      -0.00058569       0.00083277      -0.00100482
S        4.49912067       1.43508992       7.79270329       0.00058912      -0.00083867       0.00100085
