9
Lattice="6.382074989817781 1.885263506254048e-08 3.6846927749356277 2.127358333496816 6.017078048006968 3.6846927995600467 6.92786504106767e-08 7.914599975508392e-08 7.36938542987715" Properties=species:S:1:pos:R:3:forces:R:3 energy=-31.86372184753418 free_energy=-31.86372184753418 stress="-2.6563287974568084e-05 -6.249003536851205e-09 4.392224806082368e-09 -6.249003536851205e-09 -2.6584955776343122e-05 2.9686983982202264e-09 4.392224806082368e-09 2.9686983982202264e-09 -2.6589890694594942e-05" pbc="T T T"
Mn       2.12735712       1.50426883       3.68469282      -0.00000824      -0.00000424       0.00000005
Mn       6.38207615       4.51280863      11.05407759       0.00000732       0.00000217      -0.00000687
Hg       0.00000022       0.00000046       0.00000048      -0.00000108      -0.00000340      -0.00000287
Te       2.35069144       1.66219035       7.36938552      -0.00544113      -0.00384642      -0.00000019
Te       6.15874171       4.35488789       7.36938598       0.00544412       0.00384860       0.00000255
Te       5.20672959       1.66218958       5.72045180       0.00272106      -0.00384925      -0.00470738
Te       3.30270399       4.35488828       9.01831883      -0.00272348       0.00385307       0.00471297
Te       3.30270350       4.35488857       5.72045191      -0.00272404       0.00384901      -0.00470901
Te       5.20672983       1.66218996       9.01831911       0.00272539      -0.00384952       0.00471075
