9
Lattice="4.6515227171775395 -3.0113862814342746e-08 2.685558019183909 1.5505075468254406 4.385497770380244 2.685558014291653 -1.8843299604563802e-08 -1.9315997265381363e-08 5.371116071005336" Properties=species:S:1:pos:R:3:forces:R:3 energy=-48.202613830566406 free_energy=-48.202613830566406 stress="-0.00011882979742949829 -4.751778348577318e-08 7.700665882737212e-09 -4.751778348577318e-08 -0.00011875523341586813 1.971990037930027e-08 7.700665882737212e-09 1.971990037930027e-08 -0.00011871837341459468" pbc="T T T"
Mn       1.55050769       1.09637471       2.68555799       0.00000042       0.00000088      -0.00000047
Mn       4.65152269       3.28912291       8.05667339      -0.00000006      -0.00000257      -0.00000540
In      -0.00000002      -0.00000027      -0.00000026      -0.00000037       0.00000382       0.00000681
O        1.70638686       1.20659776       5.37111614       0.00116241       0.00082293       0.00000095
O        4.49564332       3.17890002       5.37111648      -0.00116324      -0.00082302       0.00000446
O        3.79832919       1.20659816       4.16333254      -0.00058234       0.00082073       0.00100553
O        2.40370091       3.17889980       6.57889981       0.00058386      -0.00082633      -0.00100964
O        2.40370096       3.17890000       4.16333253       0.00058091      -0.00082359       0.00100750
O        3.79832933       1.20659783       6.57889979      -0.00058186       0.00082722      -0.00100929
