9
Lattice="5.491865853802816 -4.0724717644501845e-08 3.1707304109598424 1.8306218629501225 5.177780854130739 3.17073049742705 -1.1744583406097875e-07 2.2853479959071997e-08 6.341461025341804" Properties=species:S:1:pos:R:3:forces:R:3 energy=-40.660911560058594 free_energy=-40.660911560058594 stress="-0.0003609679115470499 -9.128298672500534e-10 6.630881443925318e-08 -9.128298672500534e-10 -0.0003611033607739955 4.0753363350631844e-08 6.630881443925318e-08 4.0753363350631844e-08 -0.0003610990825109184" pbc="T T T"
Mn       1.83062114       1.29444419       3.17073031      -0.00000022      -0.00000383      -0.00000274
Mn       5.49186565       3.88333749       9.51219275      -0.00000013       0.00000396       0.00000244
In       0.00000046      -0.00000061       0.00000033      -0.00000625       0.00001587      -0.00000893
S        2.02553891       1.43227133       6.34146159      -0.00063142      -0.00045131       0.00000397
S        5.29694941       3.74550908       6.34146045       0.00062671       0.00044675      -0.00000394
S        4.47909714       1.43227155       4.92489845       0.00032100      -0.00044873      -0.00054571
S        2.84339080       3.74550958       7.75802357      -0.00031565       0.00045066       0.00054339
S        2.84339089       3.74550965       4.92489759      -0.00031039       0.00044441      -0.00053883
S        4.47909597       1.43227106       7.75802270       0.00031650      -0.00045805       0.00055033
