9
Lattice="5.679488922694699 -2.26941746036013e-09 3.279054408838703 1.893162912159863 5.35467365890727 3.2790545126441426 -7.749014770692581e-08 7.234136898853644e-08 6.5581089518942015" Properties=species:S:1:pos:R:3:forces:R:3 energy=-36.6986083984375 free_energy=-36.6986083984375 stress="9.742868860485032e-05 -1.963557849649078e-08 5.273215109014018e-08 -1.963557849649078e-08 9.717668581288308e-05 1.3499993123389231e-08 5.273215109014018e-08 1.3499993123389231e-08 9.743222472025082e-05" pbc="T T T"
Mn       1.89316466       1.33866330       3.27905337       0.00001767      -0.00005224      -0.00001341
Mn       5.67948997       4.01600745       9.83716468       0.00000946       0.00002418       0.00001546
Mg      -0.00000019      -0.00000065      -0.00000076      -0.00000075       0.00000717       0.00001098
Se       2.09332135       1.48020104       6.55810954       0.00685005       0.00483423       0.00000708
Se       5.47932964       3.87447488       6.55810799      -0.00686209      -0.00481880      -0.00001107
Se       4.63282734       1.48020117       5.09192369      -0.00342905       0.00483114       0.00592611
Se       2.93982347       3.87447349       8.02429348       0.00342542      -0.00483217      -0.00594299
Se       2.93982381       3.87447447       5.09192550       0.00342828      -0.00481934       0.00594288
Se       4.63282698       1.48019978       8.02429407      -0.00343898       0.00482596      -0.00593494
