9
Lattice="4.479515836701243 -1.4274613184901469e-07 2.586249742166574 1.4931719116491582 4.223327560040159 2.5862495678106794 5.2075965631005964e-08 -1.767182358372174e-07 5.172499394134931" Properties=species:S:1:pos:R:3:forces:R:3 energy=-49.20210647583008 free_energy=-49.20210647583008 stress="6.185153324622661e-05 -8.1501303483833e-09 -1.5767984251624512e-08 -8.1501303483833e-09 6.193335866555572e-05 5.902603561480646e-08 -1.5767984251624512e-08 5.902603561480646e-08 6.195063178893179e-05" pbc="T T T"
Mn       1.49317117       1.05583187       2.58624949      -0.00000201       0.00000067      -0.00000084
Mn       4.47951554       3.16749557       7.75874897      -0.00000248       0.00000045      -0.00000099
Mg      -0.00000009       0.00000001      -0.00000044       0.00000121      -0.00000291       0.00000651
O        1.56938499       1.10972249       5.17249940       0.00089625       0.00063230       0.00000110
O        4.40330297       3.11360461       5.17249942      -0.00089455      -0.00063391       0.00000052
O        3.69482371       1.10972228       3.94537710      -0.00044543       0.00063311       0.00077280
O        2.27786479       3.11360483       6.39962201       0.00044855      -0.00063449      -0.00077571
O        2.27786452       3.11360513       3.94537692       0.00044809      -0.00063035       0.00077486
O        3.69482363       1.10972214       6.39962192      -0.00044952       0.00063530      -0.00077859
