9
Lattice="5.379679633181854 -5.006667325227193e-08 3.1059596596599395 1.7932265277294435 5.072010765491661 3.1059596067651554 2.94835594840234e-08 -4.393459797243636e-08 6.211919268252827" Properties=species:S:1:pos:R:3:forces:R:3 energy=-39.87644577026367 free_energy=-39.87644577026367 stress="5.5444048484787345e-05 -1.2488706069291311e-08 1.2100421997729427e-08 -1.2488706069291311e-08 5.544979649130255e-05 2.1081255852095637e-08 1.2100421997729427e-08 2.1081255852095637e-08 5.545830208575353e-05" pbc="T T T"
Mn       1.79322691       1.26800261       3.10595891      -0.00000066       0.00000123      -0.00000123
Mn       5.37967969       3.80400858       9.31787981      -0.00000091       0.00000035       0.00000115
Mg      -0.00000021      -0.00000004       0.00000023       0.00000328      -0.00000155       0.00000114
S        1.91973597       1.35745833       6.21191871       0.00500574       0.00354051      -0.00000298
S        5.25317003       3.71455258       6.21191853      -0.00500790      -0.00354055      -0.00000515
S        4.41981194       1.35745813       4.76850054      -0.00250155       0.00353834       0.00433760
S        2.75309424       3.71455172       7.65533880       0.00250251      -0.00354464      -0.00433149
S        2.75309496       3.71455254       4.76849966       0.00250573      -0.00353660       0.00433671
S        4.41981120       1.35745823       7.65533895      -0.00250633       0.00354284      -0.00433583
