9
Lattice="5.662457218980031 -1.1023318596003465e-07 3.2692211343495656 1.8874857339458537 5.338615151109853 3.2692209642368613 1.883444864745234e-07 -7.51649798041329e-08 6.538441942476876" Properties=species:S:1:pos:R:3:forces:R:3 energy=-41.16815948486328 free_energy=-41.16815948486328 stress="-8.701110346009955e-05 2.6481686177248775e-08 7.924809253267995e-09 2.6481686177248775e-08 -8.69894283823669e-05 2.1557309271003078e-09 7.924809253267995e-09 2.1557309271003078e-09 -8.705146319698542e-05" pbc="T T T"
Mn       1.88748446       1.33465177       3.26922202      -0.00001478      -0.00001974       0.00001034
Mn       5.66245844       4.00396197       9.80766122       0.00001203       0.00000792      -0.00002139
Ni       0.00000015       0.00000024       0.00000022      -0.00000280      -0.00000237      -0.00000115
Se       1.90623535       1.34791121       6.53844181       0.00306949       0.00216982      -0.00000477
Se       5.64370746       3.99070392       6.53844304      -0.00306833      -0.00216323       0.00000977
Se       4.70933994       1.34791079       4.92006956      -0.00153361       0.00216302       0.00266394
Se       2.84060392       3.99070440       8.15681418       0.00153689      -0.00215930      -0.00266287
Se       2.84060225       3.99070372       4.92006966       0.00152689      -0.00216493       0.00266626
Se       4.70934062       1.34791185       8.15681438      -0.00152609       0.00216901      -0.00266021
