9
Lattice="4.1671173782356075 2.4191651622694683e-08 2.405886210702179 1.3890391269026818 3.928795753475212 2.4058862487795385 -6.614200675735101e-08 -1.344147960566506e-10 4.811772535965667" Properties=species:S:1:pos:R:3:forces:R:3 energy=-57.73830795288086 free_energy=-57.73830795288086 stress="0.000731695385184139 3.935781833774854e-08 5.18127940551949e-08 3.935781833774854e-08 0.0007321450975723565 -1.6067997421487235e-07 5.18127940551949e-08 -1.6067997421487235e-07 0.0007319487631320953" pbc="T T T"
Mn       1.38903964       0.98219848       2.40588681       0.00000568      -0.00000114       0.00000411
Mn       4.16711749       2.94659722       7.21765840       0.00000237       0.00000118      -0.00000352
Ni       0.00000020      -0.00000003      -0.00000013       0.00000185       0.00000255       0.00000410
N        1.48455434       1.04973914       4.81177074      -0.00385168      -0.00271429      -0.00002006
N        4.07160175       2.87905823       4.81177157       0.00384161       0.00273037      -0.00001434
N        3.42484089       1.04973759       3.69154891       0.00193505      -0.00273089      -0.00332169
N        2.13131726       2.87905722       5.93199756      -0.00190884       0.00271815       0.00333911
N        2.13131505       2.87905674       3.69154851      -0.00193892       0.00271711      -0.00332560
N        3.42483936       1.04973856       5.93199753       0.00191301      -0.00272258       0.00333811
