9
Lattice="6.355145525230395 7.233923184855385e-09 3.669144957357136 2.118381881884035 5.991688688796899 3.669144899644556 4.23532296412974e-08 -4.0734994941759406e-08 7.338289841356392" Properties=species:S:1:pos:R:3:forces:R:3 energy=-43.57252883911133 free_energy=-43.57252883911133 stress="-7.335916961892508e-06 2.2369842866964973e-08 -2.041003810404618e-09 2.2369842866964973e-08 -7.339618150581373e-06 -4.0985717042474334e-09 -2.041003810404618e-09 -4.0985717042474334e-09 -7.354633453360293e-06" pbc="T T T"
Mn       2.11838163       1.49792251       3.66914546      -0.00000179       0.00000163       0.00000422
Mn       6.35514657       4.49376659      11.00743381       0.00000499       0.00000091      -0.00000563
Nb      -0.00000014      -0.00000039      -0.00000045      -0.00000173       0.00000259       0.00000348
Te       2.22630919       1.57423865       7.33828992      -0.00108266      -0.00076392      -0.00000033
Te       6.24721826       4.41745001       7.33829057       0.00108159       0.00076333       0.00000282
Te       5.24199062       1.57423815       5.59718539       0.00054022      -0.00076651      -0.00093649
Te       3.23153637       4.41745067       9.07939453      -0.00053904       0.00076239       0.00093113
Te       3.23153612       4.41745010       5.59718509      -0.00054178       0.00076253      -0.00093384
Te       5.24199119       1.57423833       9.07939446       0.00054012      -0.00076300       0.00093456
