9
Lattice="5.8698476851849986 1.0924830229626803e-08 3.388958158336694 1.95661590932281 5.534145484919801 3.388958151475823 3.7998204834739236e-08 1.846597380629804e-08 6.777916250858551" Properties=species:S:1:pos:R:3:forces:R:3 energy=-47.14887237548828 free_energy=-47.14887237548828 stress="-1.6102536392281763e-05 -1.0520429860605418e-08 -3.844832896504613e-09 -1.0520429860605418e-08 -1.6131116353790276e-05 1.4484104582379587e-08 -3.844832896504613e-09 1.4484104582379587e-08 -1.6127647540997714e-05" pbc="T T T"
Mn       1.95661633       1.38353556       3.38895814       0.00000265      -0.00000743      -0.00000083
Mn       5.86984734       4.15060924      10.16687311      -0.00000247       0.00000023      -0.00001190
Nb      -0.00000020      -0.00000030      -0.00000002       0.00000212       0.00000329      -0.00000295
Se       2.03511824       1.43904607       6.77791624      -0.00024575      -0.00017460      -0.00000074
Se       5.79134528       4.09510010       6.77791703       0.00024134       0.00017543       0.00000645
Se       4.85228853       1.43904581       5.15142242       0.00012162      -0.00017482      -0.00021221
Se       2.97417549       4.09509968       8.40441051      -0.00012035       0.00017552       0.00021624
Se       2.97417492       4.09509972       5.15142248      -0.00012228       0.00017414      -0.00020869
Se       4.85228860       1.43904620       8.40441038       0.00012300      -0.00017166       0.00021446
