9
Lattice="5.282785031797824 -1.716173469767314e-07 3.050017464486459 1.7609282394763281 4.980657254862693 3.0500173651601616 -2.355472161866668e-08 -1.3830508161102733e-07 6.100034969770965" Properties=species:S:1:pos:R:3:forces:R:3 energy=-45.309364318847656 free_energy=-45.309364318847656 stress="-4.4746506318915635e-05 2.4663370012945052e-08 2.417322519931986e-08 2.4663370012945052e-08 -4.479379640542902e-05 -2.667573006931434e-08 2.417322519931986e-08 -2.667573006931434e-08 -4.4791850086767226e-05" pbc="T T T"
Mn       1.76092747       1.24516612       3.05001750      -0.00000379       0.00000853      -0.00000037
Mn       5.28278580       3.73549157       9.15005423       0.00000493      -0.00000461       0.00000772
Ni      -0.00000005       0.00000003      -0.00000018      -0.00000193      -0.00000132      -0.00001065
S        1.76601771       1.24876329       6.10003524       0.00022480       0.00016063       0.00000005
S        5.27769586       3.73189304       6.10003403      -0.00022188      -0.00016193      -0.00000218
S        4.39977670       1.24876358       4.57943309      -0.00011273       0.00016528       0.00019762
S        2.64393599       3.73189351       7.62063600       0.00010726      -0.00016122      -0.00019407
S        2.64393696       3.73189393       4.57943332       0.00011338      -0.00016263       0.00019556
S        4.39977663       1.24876278       7.62063602      -0.00011022       0.00015706      -0.00019380
