9
Lattice="4.44709330636304 3.388372065906693e-08 2.5675305529834853 1.4823644534737468 4.192759859395396 2.5675305771049217 -3.434363245759625e-08 5.257953089939425e-09 5.135061165451888" Properties=species:S:1:pos:R:3:forces:R:3 energy=-49.729331970214844 free_energy=-49.729331970214844 stress="0.00011626198829617351 -9.296351066723219e-08 -3.4826708628088454e-08 -9.296351066723219e-08 0.00011619785072980449 -3.3040933544725704e-08 -3.4826708628088454e-08 -3.3040933544725704e-08 0.00011633563553914428" pbc="T T T"
Mn       1.48236457       1.04818949       2.56753067      -0.00000042      -0.00000114      -0.00000100
Mn       4.44709356       3.14456972       7.70259223      -0.00000015      -0.00000041       0.00000105
Ni      -0.00000040      -0.00000060      -0.00000132       0.00001120       0.00001773       0.00002859
O        1.47260634       1.04129014       5.13506138      -0.00313750      -0.00221874      -0.00000193
O        4.45685175       3.15147056       5.13506098       0.00312376       0.00220890      -0.00000170
O        3.71078985       1.04129035       3.84284542       0.00157188      -0.00222087      -0.00272369
O        2.21866736       3.15147009       6.42727723      -0.00156489       0.00221173       0.00270709
O        2.21866764       3.15146999       3.84284529      -0.00156984       0.00221793      -0.00271928
O        3.71079011       1.04128982       6.42727730       0.00156592      -0.00221469       0.00271067
