9
Lattice="5.583005693655641 7.814692181272967e-08 3.2233498824528692 1.8610019603190449 5.263708118771155 3.223349901927717 4.7224943033579185e-08 5.72447659300057e-08 6.44669968310975" Properties=species:S:1:pos:R:3:forces:R:3 energy=-40.90930938720703 free_energy=-40.90930938720703 stress="-7.550915142928716e-06 3.2894265089566943e-09 -3.2222246204582916e-08 3.2894265089566943e-09 -7.558396191598149e-06 4.344363091490777e-08 -3.2222246204582916e-08 4.344363091490777e-08 -7.544233994849492e-06" pbc="T T T"
Mn       1.86100056       1.31592687       3.22334972      -0.00000678       0.00000069       0.00000012
Mn       5.58300555       3.94778038       9.67004880      -0.00000076      -0.00000405      -0.00000563
Pb       0.00000014      -0.00000010       0.00000015      -0.00000038       0.00000084      -0.00000196
S        2.04642998       1.44704504       6.44669966      -0.00000853      -0.00000410      -0.00000016
S        5.39757804       3.81666338       6.44670037       0.00000835       0.00000224       0.00000308
S        4.55979109       1.44704477       4.99561043       0.00000610      -0.00000495      -0.00000445
S        2.88421733       3.81666386       7.89778910      -0.00000274       0.00000697       0.00000849
S        2.88421687       3.81666397       4.99561039      -0.00000269       0.00000481      -0.00000458
S        4.55979135       1.44704484       7.89778926       0.00000743      -0.00000247       0.00000515
