9
Lattice="5.82516656024338 4.689880694809706e-09 3.363161477903358 1.9417221934246218 5.492019648758592 3.363161473997291 -2.4361420592266325e-08 -2.2010024853728095e-08 6.726322998001944" Properties=species:S:1:pos:R:3:forces:R:3 energy=-40.685794830322266 free_energy=-40.685794830322266 stress="-8.150080248015001e-05 3.3611402550093317e-09 -6.394204055126806e-10 3.3611402550093317e-09 -8.150641224347055e-05 1.6641113376181238e-08 -6.394204055126806e-10 1.6641113376181238e-08 -8.150649955496192e-05" pbc="T T T"
Mn       1.94172318       1.37300511       3.36316012       0.00001056       0.00000220      -0.00001193
Mn       5.82516649       4.11901520      10.08948368       0.00000023       0.00000497      -0.00000845
Pd      -0.00000016       0.00000011      -0.00000056       0.00000009      -0.00000135       0.00001041
Se       2.03924185       1.44196153       6.72632337       0.00284490       0.00201052       0.00000536
Se       5.72764688       4.05005801       6.72632325      -0.00284517      -0.00200909       0.00000416
Se       4.80554548       1.44196149       5.12919700      -0.00142288       0.00200465       0.00246134
Se       2.96134302       4.05005756       8.32345001       0.00142448      -0.00201684      -0.00246131
Se       2.96134298       4.05005811       5.12919712       0.00141810      -0.00200847       0.00246257
Se       4.80554512       1.44196145       8.32344981      -0.00143012       0.00201353      -0.00246239
