9
Lattice="5.759730077814112 -3.731844092767779e-08 3.325381625253558 1.9199099644076651 5.430325445719237 3.325381670886515 -2.5680870477609654e-08 3.7729602836378973e-08 6.650763294987643" Properties=species:S:1:pos:R:3:forces:R:3 energy=-42.22471618652344 free_energy=-42.22471618652344 stress="-0.00042728768312372267 -2.4148750554786602e-08 -1.4234120548906048e-08 -2.4148750554786602e-08 -0.00042730808490887284 5.288357840527169e-08 -1.4234120548906048e-08 5.288357840527169e-08 -0.0004272839578334242" pbc="T T T"
Mn       1.91990771       1.35757956       3.32538104      -0.00002251      -0.00001714      -0.00000417
Mn       5.75972878       4.07274578       9.97614280      -0.00001016       0.00001557      -0.00002037
Pt      -0.00000007       0.00000023      -0.00000029       0.00000078      -0.00000305       0.00000548
Se       1.99059988       1.40756526       6.65076354       0.00790857       0.00558223       0.00000240
Se       5.68904036       4.02275888       6.65076401      -0.00789870      -0.00558642       0.00000688
Se       4.76443113       1.40756544       5.04929249      -0.00394358       0.00557837       0.00684921
Se       2.91521143       4.02275979       8.25223572       0.00395970      -0.00557971      -0.00684011
Se       2.91520973       4.02276037       5.04929202       0.00395132      -0.00558020       0.00684789
Se       4.76443111       1.40756644       8.25223506      -0.00394543       0.00559020      -0.00684741
