9
Lattice="5.889519865834149 3.247019990157036e-07 3.400314322208183 1.9631733194066499 5.552692096388159 3.4003147991052582 1.0757014832152795e-07 6.601409248588691e-07 6.8006284580996335" Properties=species:S:1:pos:R:3:forces:R:3 energy=-37.7145881652832 free_energy=-37.7145881652832 stress="-7.161892881413223e-06 2.3156401596224896e-07 -2.0768320396769013e-08 2.3156401596224896e-07 -7.435167844960233e-06 1.7184536460490563e-08 -2.0768320396769013e-08 1.7184536460490563e-08 -7.6045835157856345e-06" pbc="T T T"
Mn       1.96318754       1.38817542       3.40030571       0.00011898       0.00001719      -0.00008338
Mn       5.88951721       4.16451841      10.20093831      -0.00003725      -0.00000611      -0.00005139
Pb      -0.00000342      -0.00000056      -0.00000181       0.00001884       0.00000912       0.00000473
Se       2.29320084       1.62153813       6.80063106       0.00023830       0.00016552       0.00002363
Se       5.55949170       3.93115766       6.80063411      -0.00026304      -0.00014877       0.00002337
Se       4.74291962       1.62153269       5.38628026      -0.00015694       0.00016876       0.00020460
Se       3.10977541       3.93114862       8.21498190       0.00013766      -0.00023024      -0.00016773
Se       3.10977309       3.93116217       5.38627976       0.00013855      -0.00017030       0.00021529
Se       4.74291138       1.62153986       8.21498047      -0.00019512       0.00019481      -0.00016911
