9
Lattice="6.539501911117452 -2.618335700635662e-08 3.775583185518054 2.1798339460145515 6.16550134029653 3.7755831849499235 -4.433710625717168e-08 -3.2046824490886965e-08 7.551166447830138" Properties=species:S:1:pos:R:3:forces:R:3 energy=-35.13576126098633 free_energy=-35.13576126098633 stress="2.8842225219705142e-05 -1.635851987202841e-08 4.6970005662672065e-09 -1.635851987202841e-08 2.8868409572169185e-05 -1.3372744689377214e-08 4.6970005662672065e-09 -1.3372744689377214e-08 2.8870532332803123e-05" pbc="T T T"
Mn       2.17983396       1.54137466       3.77558440       0.00000032      -0.00000427       0.00000755
Mn       6.53950237       4.62412607      11.32674851       0.00000178       0.00000118      -0.00000385
Pb       0.00000002       0.00000004       0.00000023       0.00000106       0.00000076      -0.00000044
Te       2.45998494       1.73947182       7.55116581      -0.00029202      -0.00020603      -0.00000430
Te       6.25935063       4.42602985       7.55116701       0.00028941       0.00020684       0.00000292
Te       5.30950876       1.73947165       5.90599267       0.00014323      -0.00020798      -0.00025325
Te       3.40982656       4.42602980       9.19633961      -0.00014530       0.00020950       0.00025195
Te       3.40982621       4.42602917       5.90599305      -0.00014691       0.00020664      -0.00025276
Te       5.30950981       1.73947204       9.19633999       0.00014837      -0.00020669       0.00025219
