9
Lattice="4.376589763809854 6.621759957876448e-09 2.526825471668314 1.4588632403527413 4.126288350364152 2.52682550716427 6.32311408764003e-08 8.818469914035373e-08 5.0536508338171" Properties=species:S:1:pos:R:3:forces:R:3 energy=-51.62234115600586 free_energy=-51.62234115600586 stress="-4.0770293708192185e-05 1.5751164994526334e-07 -2.789603570363397e-08 1.5751164994526334e-07 -4.077710764249787e-05 4.625071170494266e-08 -2.789603570363397e-08 4.625071170494266e-08 -4.108852954232134e-05" pbc="T T T"
Mn       1.45886432       1.03157336       2.52682522      -0.00000081      -0.00000135       0.00000115
Mn       4.37658887       3.09471573       7.58047880       0.00000176       0.00000268       0.00000320
Pd       0.00000006       0.00000006       0.00000005       0.00000469      -0.00000174      -0.00001515
O        1.54553769       1.09286124       5.05365077       0.00036436       0.00026101      -0.00000316
O        4.28991577       3.03342716       5.05364998      -0.00037193      -0.00026798       0.00000107
O        3.60382058       1.09286017       3.86530005      -0.00019154       0.00026697       0.00033176
O        2.23163219       3.03342777       6.24200116       0.00018820      -0.00025660      -0.00031954
O        2.23163299       3.03342834       3.86529990       0.00019211      -0.00026631       0.00032565
O        3.60381965       1.09286000       6.24200137      -0.00018659       0.00026277      -0.00032511
