9
Lattice="5.394313143669041 -4.6560193528585526e-09 3.1144080974679884 1.798104435095159 5.085806880530775 3.1144079965554643 5.868533289936421e-08 -8.20953037034781e-08 6.228816093290067" Properties=species:S:1:pos:R:3:forces:R:3 energy=-44.215965270996094 free_energy=-44.215965270996094 stress="-0.00010612082405714318 6.129999263748687e-08 -4.554710386628358e-09 6.129999263748687e-08 -0.00010607137664919719 2.8082325354006343e-09 -4.554710386628358e-09 2.8082325354006343e-09 -0.00010610379831632599" pbc="T T T"
Mn       1.79810582       1.27145283       3.11440742       0.00000547       0.00000398      -0.00000291
Mn       5.39431350       3.81435403       9.34322279       0.00000150      -0.00000384      -0.00000683
Pd      -0.00000034      -0.00000028      -0.00000114       0.00000827       0.00000619       0.00003058
S        1.89749691       1.34173316       6.22881631      -0.00748128      -0.00528967      -0.00000034
S        5.29492083       3.74407405       6.22881699       0.00746900       0.00528181       0.00000112
S        4.44556441       1.34173317       4.75768808       0.00373822      -0.00528687      -0.00647950
S        2.74685231       3.74407363       7.69994465      -0.00373411       0.00527924       0.00646859
S        2.74685227       3.74407355       4.75768870      -0.00374067       0.00528711      -0.00647902
S        4.44556465       1.34173312       7.69994487       0.00373289      -0.00527811       0.00646770
