9
Lattice="4.687735579119245 1.0766814133730022e-07 2.7064654240525288 1.562578596943509 4.419639789084046 2.706465477642294 -3.7706164251732e-09 6.2967575290948e-08 5.412930854635999" Properties=species:S:1:pos:R:3:forces:R:3 energy=-48.83631896972656 free_energy=-48.83631896972656 stress="-4.049999552080408e-05 3.5172117662796154e-08 1.8339873619765967e-08 3.5172117662796154e-08 -4.057922706124373e-05 -3.252156588473554e-08 1.8339873619765967e-08 -3.252156588473554e-08 -4.0598006307845935e-05" pbc="T T T"
Mn       1.56257803       1.10490989       2.70646534      -0.00000303      -0.00000390      -0.00000198
Mn       4.68773545       3.31472964       8.11939647      -0.00000140      -0.00000041       0.00000028
Pb       0.00000001      -0.00000015      -0.00000016       0.00000130       0.00000533       0.00000258
O        1.67086252       1.18147845       5.41293095      -0.00059728      -0.00042227       0.00000053
O        4.57945143       3.23816172       5.41293073       0.00059445       0.00042043       0.00000161
O        3.85230486       1.18147842       4.15347495       0.00030081      -0.00041997      -0.00051463
O        2.39800982       3.23816194       6.67238698      -0.00029507       0.00041900       0.00051272
O        2.39801015       3.23816179       4.15347487      -0.00029650       0.00042170      -0.00051551
O        3.85230445       1.18147817       6.67238698       0.00029685      -0.00042012       0.00051440
