9
Lattice="4.13739353138543 -5.7985585373386196e-09 2.3887252718360164 1.3791311895142893 3.9007720254503497 2.3887252409141495 1.331270035229914e-08 -2.8457897765719785e-08 4.777450520613762" Properties=species:S:1:pos:R:3:forces:R:3 energy=-61.86770248413086 free_energy=-61.86770248413086 stress="0.0008166069746948779 -2.508810226231617e-08 1.139793610605011e-07 -2.508810226231617e-08 0.0008165767067112029 -1.5726660862469544e-08 1.139793610605011e-07 -1.5726660862469544e-08 0.0008166730985976756" pbc="T T T"
Mn       1.37913124       0.97519309       2.38872527       0.00000010      -0.00000034       0.00000036
Mn       4.13739370       2.92557892       7.16617588       0.00000068      -0.00000150      -0.00000036
P       -0.00000002       0.00000003      -0.00000019       0.00000202      -0.00000043       0.00000264
N        1.37198594       0.97014069       4.77745050      -0.00353014      -0.00249559      -0.00000050
N        4.14453872       2.93063131       4.77745037       0.00352788       0.00249487       0.00000056
N        3.45140067       0.97014052       3.57690011       0.00176293      -0.00249445      -0.00305593
N        2.06512400       2.93063141       5.97800098      -0.00176376       0.00249535       0.00305510
N        2.06512416       2.93063137       3.57690004      -0.00176555       0.00249702      -0.00306046
N        3.45140045       0.97014061       5.97800109       0.00176579      -0.00249517       0.00305760
