9
Lattice="4.82827461301537 4.084070093533577e-09 2.787605627098613 1.609424857301266 4.552141034309666 2.787605657503653 -3.88976930774668e-08 9.73358882444945e-09 5.575211321570008" Properties=species:S:1:pos:R:3:forces:R:3 energy=-45.40205383300781 free_energy=-45.40205383300781 stress="-0.0006607169052585959 -2.5644794732215814e-08 -1.4336973386264162e-08 -2.5644794732215814e-08 -0.0006607062532566488 4.7802043212641365e-08 -1.4336973386264162e-08 4.7802043212641365e-08 -0.0006606713286601007" pbc="T T T"
Mn       1.60942481       1.13803519       2.78760560       0.00000010      -0.00000159       0.00000007
Mn       4.82827453       3.41410586       8.36281683      -0.00000050       0.00000137      -0.00000041
Sr      -0.00000014       0.00000004      -0.00000009       0.00000459      -0.00000310      -0.00000375
O        1.85884022       1.31439847       5.57521129       0.00253733       0.00179444       0.00000096
O        4.57885919       3.23774259       5.57521142      -0.00254026      -0.00179555       0.00000058
O        3.89885457       1.31439847       4.39740851      -0.00126934       0.00179487       0.00219801
O        2.53884498       3.23774255       6.75301419       0.00126758      -0.00179033      -0.00219512
O        2.53884497       3.23774258       4.39740851       0.00126962      -0.00179377       0.00219809
O        3.89885456       1.31439846       6.75301418      -0.00126912       0.00179392      -0.00219856
