9
Lattice="4.624258049864495 5.1679398740048474e-08 2.669816679835541 1.5414193670505258 4.359792510920115 2.6698167346170205 -1.3266484702252228e-08 5.7712528475160917e-08 5.339633382649301" Properties=species:S:1:pos:R:3:forces:R:3 energy=-52.08720397949219 free_energy=-52.08720397949219 stress="-1.5466470358660445e-05 3.244377566602452e-08 -6.122996154545035e-08 3.244377566602452e-08 -1.529982364445459e-05 2.7643583422332085e-08 -6.122996154545035e-08 2.7643583422332085e-08 -1.5389543477795087e-05" pbc="T T T"
Mn       1.54141895       1.08994795       2.66981636      -0.00000108      -0.00000113      -0.00000149
Mn       4.62425825       3.26984460       8.00945030       0.00000007       0.00000018       0.00000002
Sn       0.00000025      -0.00000012       0.00000031      -0.00000775      -0.00000024      -0.00000548
O        1.64441854       1.16277969       5.33963366      -0.00104284      -0.00073475       0.00000125
O        4.52125896       3.19701286       5.33963346       0.00104558       0.00073820       0.00000224
O        3.80204876       1.16277976       4.09392488       0.00052112      -0.00073445      -0.00090176
O        2.36362855       3.19701315       6.58534202      -0.00051808       0.00073373       0.00089991
O        2.36362893       3.19701332       4.09392476      -0.00051796       0.00073552      -0.00089705
O        3.80204857       1.16277925       6.58534165       0.00052106      -0.00073642       0.00090200
