9
Lattice="4.18965975388631 -3.416793862114054e-08 2.4189010915191282 1.396553205369324 3.9500489439598363 2.418901115269505 -4.487781142432199e-08 -2.645263083869385e-09 4.837802260768895" Properties=species:S:1:pos:R:3:forces:R:3 energy=-60.98468017578125 free_energy=-60.98468017578125 stress="-3.781652412726544e-05 -4.2137507705319877e-08 -9.786324284277725e-08 -4.2137507705319877e-08 -3.773188655031845e-05 4.592893620980476e-09 -9.786324284277725e-08 4.592893620980476e-09 -3.774070137296803e-05" pbc="T T T"
Mn       1.39655309       0.98751219       2.41890122      -0.00000051       0.00000012       0.00000041
Mn       4.18965987       2.96253679       7.25670315       0.00000203       0.00000061       0.00000026
Si       0.00000015       0.00000012       0.00000006       0.00000081      -0.00000369       0.00000160
N        1.42223177       1.00566929       4.83780246       0.00447381       0.00316185       0.00000065
N        4.16398134       2.94437933       4.83780217      -0.00447106      -0.00316429      -0.00000177
N        3.47854358       1.00566949       3.65058950      -0.00223595       0.00316143       0.00387275
N        2.10766906       2.94437962       6.02501477       0.00223491      -0.00315994      -0.00387281
N        2.10766873       2.94437940       3.65058991       0.00223279      -0.00316101       0.00387579
N        3.47854399       1.00566934       6.02501480      -0.00223649       0.00316530      -0.00387716
