9
Lattice="6.368050221449594 2.707402417853842e-08 3.676595385670502 2.122683326595321 6.003855265423348 3.676595569406737 -1.0072864683180794e-07 1.5380410394468771e-07 7.353190945808149" Properties=species:S:1:pos:R:3:forces:R:3 energy=-40.95768356323242 free_energy=-40.95768356323242 stress="-1.4889999874867499e-05 2.116512298755424e-08 -1.0353963908471542e-08 2.116512298755424e-08 -1.4898029803589452e-05 3.318151087228216e-09 -1.0353963908471542e-08 3.318151087228216e-09 -1.490495378675405e-05" pbc="T T T"
Mn       2.12268341       1.50096334       3.67659573       0.00000048      -0.00000514       0.00000075
Mn       6.36805015       4.50289305      11.02978544       0.00000006       0.00000787      -0.00000648
Sc       0.00000012      -0.00000004      -0.00000014      -0.00000120      -0.00000359      -0.00000003
Te       2.28201231       1.61362592       7.35319076      -0.00244431      -0.00173226      -0.00000051
Te       6.20872085       4.39022875       7.35319138       0.00245023       0.00173346       0.00000282
Te       5.22704383       1.61362587       5.65287607       0.00122131      -0.00173384      -0.00211775
Te       3.26368986       4.39022945       9.05350618      -0.00122353       0.00173219       0.00212163
Te       3.26368929       4.39022947       5.65287627      -0.00122492       0.00173217      -0.00211725
Te       5.22704396       1.61362600       9.05350592       0.00122191      -0.00173092       0.00211672
