9
Lattice="4.568714402324294 7.810576611585261e-08 2.6377484617810762 1.5229048916632486 4.307425198356915 2.6377484319037645 3.054727749117711e-08 -1.4991898194689123e-08 5.275496870652721" Properties=species:S:1:pos:R:3:forces:R:3 energy=-56.88838195800781 free_energy=-56.88838195800781 stress="0.00025499972980469465 1.853018432029785e-07 8.059851674957486e-10 1.853018432029785e-07 0.00025483276112936437 -2.5707810991093538e-08 8.059851674957486e-10 -2.5707810991093538e-08 0.0002547969052102417" pbc="T T T"
Mn       1.52290458       1.07685672       2.63774861      -0.00000124       0.00000167       0.00000026
Mn       4.56871424       3.23056920       7.91324582      -0.00000169       0.00000147       0.00000195
Sc      -0.00000021       0.00000015      -0.00000041       0.00000413      -0.00000087       0.00000975
O        1.63443510       1.15571961       5.27549684      -0.00143260      -0.00101590       0.00000094
O        4.45718468       3.15170511       5.27549665       0.00143379       0.00101298      -0.00000046
O        3.75149716       1.15571971       4.05321031       0.00071314      -0.00101018      -0.00123549
O        2.34012201       3.15170549       6.49778353      -0.00071114       0.00100437       0.00123098
O        2.34012229       3.15170521       4.05321019      -0.00071567       0.00101063      -0.00123921
O        3.75149749       1.15571985       6.49778358       0.00071162      -0.00100487       0.00123200
