9
Lattice="5.8077953861016525 5.2042188562848256e-08 3.3531323455962365 1.935931815034027 5.475642042212508 3.3531323965168416 1.7753210435306164e-08 7.49181805263737e-08 6.706264660442983" Properties=species:S:1:pos:R:3:forces:R:3 energy=-42.8843879699707 free_energy=-42.8843879699707 stress="5.7172394008375704e-05 7.83342368748663e-09 -4.620763860430088e-08 7.83342368748663e-09 5.708757453248836e-05 -5.362099031458456e-08 -4.620763860430088e-08 -5.362099031458456e-08 5.709939796361141e-05" pbc="T T T"
Mn       1.93593323       1.36890797       3.35313434       0.00001438      -0.00002334       0.00001941
Mn       5.80779503       4.10673230      10.05939389      -0.00000776       0.00000607      -0.00002972
Sc      -0.00000014      -0.00000027       0.00000030      -0.00000148       0.00000305       0.00000062
Se       2.10741569       1.49016784       6.70626398      -0.00057524      -0.00041038      -0.00000925
Se       5.63631060       3.98547529       6.70626650       0.00056770       0.00041944       0.00001630
Se       4.75408636       1.49016725       5.17820785       0.00027684      -0.00041632      -0.00049982
Se       2.98964088       3.98547558       8.23432124      -0.00027251       0.00041774       0.00049584
Se       2.98963956       3.98547417       5.17820790      -0.00029060       0.00040699      -0.00049616
Se       4.75408764       1.49016857       8.23432161       0.00028880      -0.00040313       0.00050294
