9
Lattice="6.429719625474579 -7.274618277200334e-08 3.712200330800777 2.1432397985893377 6.06199778860878 3.7122003446278686 -2.9397591201304674e-08 -3.852551773300011e-09 7.4244007125196685" Properties=species:S:1:pos:R:3:forces:R:3 energy=-36.27532196044922 free_energy=-36.27532196044922 stress="-1.293209697905695e-05 -2.4476589643995794e-08 7.731570939029098e-09 -2.4476589643995794e-08 -1.293772947974503e-05 4.547780554919889e-12 7.731570939029098e-09 4.547780554919889e-12 -1.290240470552817e-05" pbc="T T T"
Mn       2.14323943       1.51549875       3.71220020      -0.00000193      -0.00000472      -0.00000074
Mn       6.42971966       4.54649905      11.13660140      -0.00000003       0.00000586       0.00000231
Sn      -0.00000014       0.00000004      -0.00000006       0.00000259      -0.00000020      -0.00000152
Te       2.32192860       1.64185103       7.42440076      -0.00357071      -0.00252771       0.00000021
Te       6.25103087       4.42014672       7.42440048       0.00356975       0.00252543      -0.00000060
Te       5.26875543       1.64185106       5.72304970       0.00178608      -0.00252712      -0.00309192
Te       3.30420402       4.42014651       9.12575176      -0.00178666       0.00252827       0.00309370
Te       3.30420439       4.42014662       5.72304959      -0.00178566       0.00252812      -0.00309369
Te       5.26875526       1.64185105       9.12575172       0.00178669      -0.00252794       0.00309215
