9
Lattice="5.458257098174689 -4.32279142875315e-08 3.1513266687120915 1.8194190253766327 5.146093920965785 3.151326610848841 6.936610479314084e-08 -2.18184908994797e-08 6.302653217278587" Properties=species:S:1:pos:R:3:forces:R:3 energy=-41.63140106201172 free_energy=-41.63140106201172 stress="0.0001799886958906427 -4.616715543193095e-08 -2.0590960048139095e-08 -4.616715543193095e-08 0.00018002667638938874 6.5808496430008745e-09 -2.0590960048139095e-08 6.5808496430008745e-09 0.0001800239842850715" pbc="T T T"
Mn       1.81941815       1.28652359       3.15132725      -0.00000387      -0.00000005       0.00000219
Mn       5.45825701       3.85956884       9.45397776      -0.00000058      -0.00000707      -0.00001173
Se      -0.00000031      -0.00000030       0.00000150       0.00000427       0.00000863      -0.00005487
S        1.81688987       1.28473569       6.30265353      -0.00579727      -0.00409478      -0.00000371
S        5.46078638       3.86135846       6.30265480       0.00578606       0.00408921       0.00000522
S        4.54981237       1.28473523       4.72479956       0.00288969      -0.00408272      -0.00500494
S        2.72786530       3.86135809       7.88050581      -0.00290322       0.00411136       0.00503150
S        2.72786352       3.86135901       4.72479970      -0.00288686       0.00408162      -0.00499862
S        4.54981254       1.28473673       7.88050609       0.00291158      -0.00410600       0.00503543
