9
Lattice="6.094175577894546 -1.1368935988247226e-08 3.5184738175902983 2.0313917993492896 5.745643702742551 3.5184739028593808 -8.210061054785967e-08 4.637896477244456e-08 7.03694777738312" Properties=species:S:1:pos:R:3:forces:R:3 energy=-36.492698669433594 free_energy=-36.492698669433594 stress="6.752767512807623e-05 4.324189617488372e-10 1.6350796272490697e-08 4.324189617488372e-10 6.764792487956583e-05 -3.243865265289969e-08 1.6350796272490697e-08 -3.243865265289969e-08 6.755072536179796e-05" pbc="T T T"
Mn       2.03139238       1.43641137       3.51847382       0.00000687       0.00000412       0.00000032
Mn       6.09417555       4.30923130      10.55542192      -0.00000175      -0.00001660       0.00000207
Sr       0.00000022      -0.00000031      -0.00000010      -0.00000118       0.00000240       0.00000429
Se       2.36303234       1.67091794       7.03694771       0.00010587       0.00008772      -0.00000176
Se       5.76253406       4.07472647       7.03694750      -0.00011108      -0.00008141      -0.00000188
Se       4.91265882       1.67091771       5.56491945      -0.00005783       0.00008878       0.00008679
Se       3.21290777       4.07472711       8.50897491       0.00005360      -0.00008269      -0.00009866
Se       3.21290910       4.07472619       5.56492127       0.00005972      -0.00008629       0.00009779
Se       4.91265896       1.67091720       8.50897553      -0.00005416       0.00008400      -0.00008890
