9
Lattice="5.880294581841754 1.5960137809529006e-07 3.3949894874832354 1.9600982520449166 5.543994882873895 3.394989647483087 -7.480645763091779e-08 1.4306282859645408e-07 6.789979104535073" Properties=species:S:1:pos:R:3:forces:R:3 energy=-38.50611114501953 free_energy=-38.50611114501953 stress="-0.00021787786681670696 2.1948952877437478e-08 1.2559718598481595e-08 2.1948952877437478e-08 -0.00021785395801998675 -1.7053860545956923e-08 1.2559718598481595e-08 -1.7053860545956923e-08 -0.00021783409465570003" pbc="T T T"
Mn       1.96009886       1.38599853       3.39498992       0.00000365      -0.00000247       0.00000309
Mn       5.88029448       4.15799629      10.18496797      -0.00000251      -0.00000073      -0.00000676
Sr       0.00000014      -0.00000003       0.00000006      -0.00000120      -0.00000025      -0.00000006
S        2.24070884       1.58442033       6.78997915      -0.00798206      -0.00564720      -0.00000186
S        5.59968366       3.95957483       6.78997978       0.00798088       0.00564755       0.00000524
S        4.75993994       1.58442031       5.33549976       0.00398920      -0.00564485      -0.00691509
S        3.08045273       3.95957501       8.24445811      -0.00398763       0.00564739       0.00691315
S        3.08045223       3.95957479       5.33550002      -0.00399260       0.00564337      -0.00691227
S        4.75994025       1.58442069       8.24445816       0.00399224      -0.00564268       0.00691457
