9
Lattice="5.888027043222335 -1.1151839843337866e-08 3.399453933210616 1.9626756345271779 5.551285204793748 3.3994539956213767 -8.68133558646795e-08 1.505095316630754e-08 6.798908016786382" Properties=species:S:1:pos:R:3:forces:R:3 energy=-39.39259719848633 free_energy=-39.39259719848633 stress="-5.975634485366754e-05 -3.911068091611014e-08 6.775170646733386e-09 -3.911068091611014e-08 -5.9743557358160615e-05 2.6870583980098672e-08 6.775170646733386e-09 2.6870583980098672e-08 -5.96953796048183e-05" pbc="T T T"
Mn       1.96267604       1.38781992       3.39945473       0.00000212      -0.00001262       0.00000672
Mn       5.88802832       4.16346355      10.19835977       0.00001060      -0.00000213      -0.00002078
Sn       0.00000005      -0.00000004       0.00000008      -0.00000049      -0.00000367      -0.00000510
Se       2.13546984       1.51000616       6.79890803       0.00053152       0.00038190      -0.00000146
Se       5.71523189       4.04127989       6.79890878      -0.00053409      -0.00037252       0.00000897
Se       4.82029089       1.51000514       5.24882583      -0.00027239       0.00037145       0.00046271
Se       3.03041141       4.04128001       8.34898991       0.00026695      -0.00036697      -0.00046018
Se       3.03041001       4.04127997       5.24882634       0.00025890      -0.00037392       0.00046708
Se       4.82029192       1.51000625       8.34899027      -0.00026327       0.00037868      -0.00045802
