9
Lattice="4.236234118434215 4.786900466365028e-08 2.445790804994202 1.4120780585959007 3.9939597981964794 2.4457908500509076 -1.2248363864963405e-08 4.652207345445139e-08 4.89158163120318" Properties=species:S:1:pos:R:3:forces:R:3 energy=-58.601078033447266 free_energy=-58.601078033447266 stress="1.3976655282021966e-05 1.068655564040455e-08 1.415357502310144e-07 1.068655564040455e-08 1.3633054550155066e-05 -1.0066994349244851e-07 1.415357502310144e-07 -1.0066994349244851e-07 1.3670768566953484e-05" pbc="T T T"
Mn       1.41207781       0.99849000       2.44579072       0.00000175       0.00000140       0.00000049
Mn       4.23623397       2.99547011       7.33737267      -0.00000186      -0.00000105       0.00000146
S        0.00000008       0.00000005       0.00000011      -0.00000437      -0.00000195       0.00000080
N        1.37674477       0.97350584       4.89158160       0.00012827       0.00009251       0.00000091
N        4.27156754       3.02045398       4.89158162      -0.00012672      -0.00008953      -0.00000022
N        3.54786159       0.97350580       3.63808659      -0.00006402       0.00009048       0.00011313
N        2.10045069       3.02045428       6.14507655       0.00006658      -0.00009215      -0.00011325
N        2.10045074       3.02045417       3.63808669       0.00006372      -0.00008798       0.00011015
N        3.54786162       0.97350555       6.14507645      -0.00006527       0.00008798      -0.00011289
