9
Lattice="4.510278292660882 5.0490266200886036e-08 2.604010226372924 1.5034261365356882 4.252331379954349 2.6040102413043003 2.8370721916344092e-08 3.834822571617777e-08 5.208020403606332" Properties=species:S:1:pos:R:3:forces:R:3 energy=-53.81242370605469 free_energy=-53.81242370605469 stress="0.0005907467566430569 -3.399217263222454e-08 1.2298842477775906e-07 -3.399217263222454e-08 0.0005907450104132295 8.553421082524437e-08 1.2298842477775906e-07 8.553421082524437e-08 0.0005903246346861124" pbc="T T T"
Mn       1.50342594       1.06308255       2.60401036       0.00000158       0.00000068      -0.00000120
Mn       4.51027870       3.18924870       7.81203073      -0.00000196      -0.00000139       0.00000052
Se      -0.00000014      -0.00000010      -0.00000009      -0.00000042       0.00000097       0.00000165
O        1.47396290       1.04224878       5.20802026       0.00804758       0.00568986       0.00000181
O        4.53974181       3.21008281       5.20802030      -0.00805247      -0.00569260       0.00000274
O        3.77329660       1.04224939       3.88049896      -0.00402004       0.00568819       0.00697231
O        2.24040710       3.21008260       6.53554204       0.00402600      -0.00569344      -0.00697505
O        2.24040753       3.21008231       3.88049888       0.00402147      -0.00568748       0.00697279
O        3.77329750       1.04224893       6.53554189      -0.00402355       0.00569391      -0.00697529
