9
Lattice="6.668078574728012 -4.3911219354551576e-08 3.849817125169522 2.222692853886442 6.286724874572885 3.849817061007907 1.0250316331192078e-07 -6.1009494972201784e-09 7.699634072798317" Properties=species:S:1:pos:R:3:forces:R:3 energy=-34.76715087890625 free_energy=-34.76715087890625 stress="-2.326867797819432e-05 -4.551586219037063e-09 -1.3272051235801996e-09 -4.551586219037063e-09 -2.3289800083148293e-05 -2.9102378285017494e-09 -1.3272051235801996e-09 -2.9102378285017494e-09 -2.3280119421542622e-05" pbc="T T T"
Mn       2.22269344       1.57168101       3.84981685       0.00000304      -0.00000095      -0.00000130
Mn       6.66807826       4.71504421      11.54945176      -0.00000064       0.00000091       0.00000175
Sr      -0.00000005       0.00000082      -0.00000020       0.00000066      -0.00000499      -0.00000024
Te       2.54170420       1.79725590       7.69963421       0.00172844       0.00121939       0.00000016
Te       6.34906724       4.48946910       7.69963392      -0.00172677      -0.00121925      -0.00000211
Te       5.39722664       1.79725570       6.05099731      -0.00086471       0.00122238       0.00149845
Te       3.49354513       4.48946827       9.34827056       0.00086273      -0.00122022      -0.00149366
Te       3.49354515       4.48946835       6.05099761       0.00086411      -0.00121923       0.00149385
Te       5.39722611       1.79725598       9.34827109      -0.00086687       0.00122206      -0.00149699
