9
Lattice="5.514243012930823 2.3471101757504296e-08 3.183649601390653 1.8380810490010424 5.198878002355214 3.183649562312153 1.7866435269910217e-08 -3.5227739773980745e-08 6.367299171835767" Properties=species:S:1:pos:R:3:forces:R:3 energy=-43.005615234375 free_energy=-43.005615234375 stress="-8.986533066490665e-05 -2.3478392563447414e-08 -4.028046785009565e-09 -2.3478392563447414e-08 -8.990035712486133e-05 -1.407074279313747e-08 -4.028046785009565e-09 -1.407074279313747e-08 -8.990502101369202e-05" pbc="T T T"
Mn       1.83808108       1.29971979       3.18365037       0.00000053       0.00000113       0.00000248
Mn       5.51424129       3.89915871       9.55094637      -0.00000776       0.00000149      -0.00001054
Sn       0.00000003      -0.00000023      -0.00000054       0.00000227       0.00000654       0.00001082
S        1.99170713       1.40834882       6.36729904       0.00089210       0.00062785      -0.00000118
S        5.36061754       3.79052859       6.36730025      -0.00089344      -0.00063236       0.00000646
S        4.51838914       1.40834889       4.90851838      -0.00044632       0.00062372       0.00076887
S        2.83393559       3.79052943       7.82608093       0.00045389      -0.00063241      -0.00077601
S        2.83393443       3.79052828       4.90851794       0.00044480      -0.00063182       0.00077088
S        4.51839001       1.40834961       7.82608070      -0.00044584       0.00063583      -0.00077203
