9
Lattice="5.7771050436522255 -1.3513895601230485e-07 3.3354130067771424 1.925701533020211 5.446706803034861 3.3354130427812745 -1.6298841157329692e-07 -7.115434686221735e-08 6.670826295858477" Properties=species:S:1:pos:R:3:forces:R:3 energy=-45.8240852355957 free_energy=-45.8240852355957 stress="-1.3727799341722857e-06 -1.6620469445172148e-09 1.9287282881919054e-08 -1.6620469445172148e-09 -1.369362507830374e-06 8.926730465930177e-09 1.9287282881919054e-08 8.926730465930177e-09 -1.4002990837980178e-06" pbc="T T T"
Mn       1.92570246       1.36167376       3.33541233       0.00000841      -0.00002394      -0.00000608
Mn       5.77710501       4.08502884      10.00624043       0.00000122      -0.00000921       0.00001175
Ti       0.00000018      -0.00000008      -0.00000010      -0.00000170       0.00000300      -0.00000011
Se       2.00426177       1.41722794       6.67082664      -0.00038184      -0.00026345       0.00000171
Se       5.69854369       4.02947995       6.67082576       0.00037418       0.00027501      -0.00000321
Se       4.77497359       1.41722811       5.07115479       0.00018955      -0.00026204      -0.00033334
Se       2.92783259       4.02948014       8.27049647      -0.00019022       0.00027321       0.00032360
Se       2.92783339       4.02948032       5.07115555      -0.00018390       0.00027640      -0.00032497
Se       4.77497296       1.41722737       8.27049750       0.00018422      -0.00026880       0.00033061
