9
Lattice="5.410715090770869 1.0945466422822016e-07 3.1238779239365493 1.803571730345373 5.101271365958316 3.1238780447871033 5.987724179859687e-08 1.9035068888209957e-07 6.247755744162704" Properties=species:S:1:pos:R:3:forces:R:3 energy=-50.66446304321289 free_energy=-50.66446304321289 stress="3.097823355346918e-05 1.6373691735793727e-08 -8.691213082556715e-09 1.6373691735793727e-08 3.104063944192603e-05 7.773805599242678e-09 -8.691213082556715e-09 7.773805599242678e-09 3.1022045732242987e-05" pbc="T T T"
Mn       1.80357140       1.27531785       3.12387752      -0.00000182       0.00000010      -0.00000215
Mn       5.41071642       3.82595378       9.37163417       0.00000499      -0.00000043       0.00000231
Ti       0.00000004      -0.00000010      -0.00000001       0.00000084       0.00000201       0.00000299
S        1.89098916       1.33713207       6.24775584      -0.00103000      -0.00072719       0.00000088
S        5.32329741       3.76413995       6.24775551       0.00102681       0.00072658      -0.00000163
S        4.46522064       1.33713167       4.76152312       0.00051498      -0.00072831      -0.00089067
S        2.74906614       3.76413995       7.73398872      -0.00051446       0.00072585       0.00088930
S        2.74906600       3.76413992       4.76152334      -0.00051528       0.00072868      -0.00089052
S        4.46522026       1.33713167       7.73398862       0.00051375      -0.00072731       0.00088963
