9
Lattice="4.53514489473694 3.6144863513924684e-08 2.6183668217266383 1.511714987740314 4.275775469231508 2.6183668412117402 2.8388257437768804e-08 4.393775319638899e-08 5.236733594283365" Properties=species:S:1:pos:R:3:forces:R:3 energy=-61.454010009765625 free_energy=-61.454010009765625 stress="7.676333916606382e-05 2.405744226052775e-08 -2.2356250184429882e-08 2.405744226052775e-08 7.695104432059452e-05 8.902809156552394e-08 -2.2356250184429882e-08 8.902809156552394e-08 7.672932406421751e-05" pbc="T T T"
Mn       1.51171530       1.06894270       2.61836710       0.00000101      -0.00000422       0.00000099
Mn       4.53514471       3.20683257       7.85509951      -0.00000040       0.00000286      -0.00000431
Ti      -0.00000000       0.00000018      -0.00000017       0.00000121      -0.00000332       0.00000208
O        1.53750884       1.08718279       5.23673371       0.00073963       0.00051850       0.00000191
O        4.50935098       3.18859295       5.23673432      -0.00073665      -0.00051731       0.00000048
O        3.76639020       1.08718270       3.94988826      -0.00036976       0.00051767       0.00063789
O        2.28046985       3.18859318       6.52357876       0.00036737      -0.00051636      -0.00063592
O        2.28046917       3.18859252       3.94988840       0.00036764      -0.00051916       0.00063783
O        3.76639065       1.08718289       6.52357872      -0.00037000       0.00052071      -0.00064087
