9
Lattice="6.267381899255687 -1.5407784622760353e-08 3.618474467914637 2.0891272955457683 5.908944271386388 3.61847445003897 -1.0086575159949058e-08 -2.90254115789001e-08 7.236948953299688" Properties=species:S:1:pos:R:3:forces:R:3 energy=-42.3986930847168 free_energy=-42.3986930847168 stress="-0.000313572003506124 1.1352621065441326e-08 -5.4671831506425406e-09 1.1352621065441326e-08 -0.00031357273110188544 -4.171179845968709e-09 -5.4671831506425406e-09 -4.171179845968709e-09 -0.00031356592080555856" pbc="T T T"
Mn       2.08912703       1.47723632       3.61847535      -0.00000182       0.00000126       0.00000545
Mn       6.26738342       4.43170820      10.85542295       0.00001034       0.00000062      -0.00000265
Ti      -0.00000009      -0.00000003       0.00000000       0.00000000      -0.00000023       0.00000080
Te       2.18821733       1.54730394       7.23694892      -0.00132693      -0.00093432      -0.00000193
Te       6.16829149       4.36164050       7.23694922       0.00132477       0.00093566       0.00000130
Te       5.17327282       1.54730309       5.51352642       0.00065990      -0.00093729      -0.00114596
Te       3.18323585       4.36164096       8.96037103      -0.00066377       0.00093695       0.00114336
Te       3.18323553       4.36164057       5.51352650      -0.00066494       0.00093437      -0.00114501
Te       5.17327331       1.54730334       8.96037109       0.00066252      -0.00093702       0.00114463
