9
Lattice="6.189154994944912 3.905527059959692e-08 3.573310308336048 2.0630516550699873 5.835191385475387 3.573310389280563 -4.7321814400226944e-08 6.567476754193987e-08 7.146620698635972" Properties=species:S:1:pos:R:3:forces:R:3 energy=-42.33946990966797 free_energy=-42.33946990966797 stress="-0.00020389127894304693 -2.3204398402754123e-09 -1.1632049989884763e-08 -2.3204398402754123e-09 -0.00020389191922731698 9.147282931110112e-09 -1.1632049989884763e-08 9.147282931110112e-09 -0.0002038716193055734" pbc="T T T"
Mn       2.06305137       1.45879739       3.57331072      -0.00000173      -0.00000368       0.00000184
Mn       6.18915516       4.37639337      10.71993087       0.00000120       0.00000019      -0.00000214
V        0.00000014      -0.00000014       0.00000018       0.00000097       0.00000128      -0.00000112
Te       2.15228697       1.52189698       7.14662062       0.00053978       0.00038240      -0.00000035
Te       6.09991962       4.31329474       7.14662097      -0.00054182      -0.00038212       0.00000145
Te       5.11301123       1.52189714       5.43724566      -0.00026973       0.00038176       0.00046588
Te       3.13919533       4.31329477       8.85599524       0.00027021      -0.00037904      -0.00046774
Te       3.13919508       4.31329487       5.43724571       0.00026949      -0.00038244       0.00046925
Te       5.11301152       1.52189685       8.85599558      -0.00026826       0.00038171      -0.00046705
