9
Lattice="5.741279854127848 -1.5005153521765547e-07 3.3147294441828983 1.913759807167063 5.412930690929188 3.3147294489268697 -1.195221125046585e-07 -7.87046993372281e-08 6.629459095384199" Properties=species:S:1:pos:R:3:forces:R:3 energy=-45.6182975769043 free_energy=-45.6182975769043 stress="-9.111575491260737e-05 1.1444348801958881e-09 3.205187937282972e-08 1.1444348801958881e-09 -9.109681559493765e-05 -4.347234572321668e-09 3.205187937282972e-08 -4.347234572321668e-09 -9.111957479035482e-05" pbc="T T T"
Mn       1.91376012       1.35323190       3.31472877       0.00000309      -0.00000641      -0.00000612
Mn       5.74128004       4.05969924       9.94419068       0.00000437       0.00001182       0.00002354
V        0.00000006       0.00000013       0.00000003      -0.00000043       0.00000006       0.00000090
Se       1.96731307       1.39109967       6.62945921      -0.00248297      -0.00175963       0.00000401
Se       5.68772671       4.02183067       6.62945760       0.00248210       0.00176001      -0.00001253
Se       4.75762343       1.39110045       5.01847254       0.00124360      -0.00175853      -0.00215365
Se       2.89741590       4.02183015       8.24044531      -0.00124652       0.00175737       0.00214826
Se       2.89741612       4.02183027       5.01847259      -0.00124065       0.00175871      -0.00215206
Se       4.75762270       1.39109934       8.24044519       0.00123709      -0.00176360       0.00214802
