9
Lattice="5.324798357408091 7.881429106798309e-08 3.0742739483668933 1.7749327794972052 5.020268641667618 3.0742740879914825 -7.750950475314833e-08 1.1619705622054571e-07 6.148548030984163" Properties=species:S:1:pos:R:3:forces:R:3 energy=-50.681915283203125 free_energy=-50.681915283203125 stress="-0.00011319878831272945 -7.454469042045275e-09 -1.606002086873559e-08 -7.454469042045275e-09 -0.00011322324280627072 1.6901191557394668e-09 -1.606002086873559e-08 1.6901191557394668e-09 -0.0001131929166149348" pbc="T T T"
Mn       1.77493264       1.25506723       3.07427441      -0.00000033      -0.00000135       0.00000007
Mn       5.32479776       3.76520165       9.22282051      -0.00000234       0.00000024      -0.00000690
V       -0.00000004      -0.00000014      -0.00000022      -0.00000128       0.00000286      -0.00000041
S        1.83963201       1.30081649       6.14854816       0.00153792       0.00108778       0.00000228
S        5.26009951       3.71945239       6.14854914      -0.00154001      -0.00108907       0.00000256
S        4.40498211       1.30081633       4.66744223      -0.00076824       0.00108767       0.00133088
S        2.69474926       3.71945300       7.62965399       0.00077215      -0.00108713      -0.00133261
S        2.69474844       3.71945214       4.66744214       0.00077072      -0.00108889       0.00133413
S        4.40498255       1.30081636       7.62965394      -0.00076863       0.00108793      -0.00132978
