9
Lattice="6.540338530827627 -8.355833610538903e-08 3.7760662431424312 2.1801128532263343 6.166290297981982 3.7760660900348983 2.4864008073828863e-08 -1.699361737518181e-07 7.552132443219109" Properties=species:S:1:pos:R:3:forces:R:3 energy=-40.483734130859375 free_energy=-40.483734130859375 stress="1.6798145225038752e-05 -6.732594037828221e-09 1.7162495424827284e-08 -6.732594037828221e-09 1.678561784501653e-05 -1.909990032800124e-08 1.7162495424827284e-08 -1.909990032800124e-08 1.6783153114374727e-05" pbc="T T T"
Mn       2.18011219       1.54157407       3.77606662      -0.00000406       0.00000811       0.00000234
Mn       6.54033833       4.62471606      11.32819824       0.00000092      -0.00000612      -0.00000099
Y        0.00000014      -0.00000011       0.00000041      -0.00000075       0.00000057      -0.00000339
Te       2.40311777       1.69926150       7.55213246      -0.00107697      -0.00075815       0.00000053
Te       6.31733377       4.46702872       7.55213231       0.00107571       0.00075832       0.00000005
Te       5.33877963       1.69926111       5.85722726       0.00053777      -0.00075831      -0.00093056
Te       3.38167201       4.46702884       9.24703746      -0.00053497       0.00075752       0.00093067
Te       3.38167164       4.46702870       5.85722709      -0.00053826       0.00075889      -0.00093085
Te       5.33878016       1.69926129       9.24703724       0.00054070      -0.00076079       0.00093222
