9
Lattice="4.735518450897981 9.714998539292238e-08 2.7340527456863137 1.578506202831653 4.464689803678382 2.7340528133429256 -7.773891254905539e-08 2.789235426130589e-08 5.468105626020389" Properties=species:S:1:pos:R:3:forces:R:3 energy=-55.4510383605957 free_energy=-55.4510383605957 stress="4.8118108679773286e-05 9.93965016959919e-08 -6.486271786343423e-08 9.93965016959919e-08 4.8051788326120004e-05 1.3977479795812542e-07 -6.486271786343423e-08 1.3977479795812542e-07 4.7951140004443005e-05" pbc="T T T"
Mn       1.57850587       1.11617292       2.73405303      -0.00000013      -0.00000027      -0.00000009
Mn       4.73551831       3.34851759       8.20215822       0.00000031       0.00000133      -0.00000136
Y        0.00000035       0.00000004      -0.00000010      -0.00000470      -0.00000330       0.00000266
O        1.75149393       1.23849330       5.46810573      -0.00204021      -0.00144282      -0.00000056
O        4.56253050       3.22619623       5.46810537       0.00204554       0.00144386       0.00000224
O        3.85977148       1.23849336       4.25089058       0.00101988      -0.00144365      -0.00176528
O        2.45425318       3.22619699       6.68532057      -0.00101803       0.00144151       0.00176653
O        2.45425302       3.22619667       4.25089054      -0.00101916       0.00143829      -0.00176173
O        3.85977153       1.23849257       6.68532070       0.00101644      -0.00143525       0.00175768
