9
Lattice="6.019603038784094 -5.098674260150992e-08 3.4754194465239454 2.006534265135067 5.67533636987474 3.4754195037777746 -1.6769074968890167e-07 -4.845392428099411e-08 6.950839183496747" Properties=species:S:1:pos:R:3:forces:R:3 energy=-42.1593017578125 free_energy=-42.1593017578125 stress="-9.97086590359686e-06 -1.1654693210516598e-08 1.626442447388854e-08 -1.1654693210516598e-08 -9.952333130058832e-06 6.17276469938588e-08 1.626442447388854e-08 6.17276469938588e-08 -9.948367733159102e-06" pbc="T T T"
Mn       2.00653446       1.41883488       3.47541869       0.00000309       0.00000737      -0.00001143
Mn       6.01960249       4.25650200      10.42626247      -0.00000434      -0.00000036       0.00004111
Y       -0.00000004      -0.00000039       0.00000088       0.00000016       0.00000249      -0.00000933
Se       2.23776351       1.58233741       6.95083937      -0.00068314      -0.00048662       0.00000773
Se       5.78837414       4.09299846       6.95083733       0.00068590       0.00048175      -0.00002085
Se       4.90072176       1.58233861       5.41337902       0.00034709      -0.00047415      -0.00059617
Se       3.12541467       4.09299759       8.48829791      -0.00035671       0.00047781       0.00059228
Se       3.12541707       4.09299899       5.41337870      -0.00032790       0.00048321      -0.00059707
Se       4.90072051       1.58233754       8.48829816       0.00033586      -0.00049145       0.00059390
