9
Lattice="5.709926320937669 7.148764139136332e-09 3.296627786505704 1.9033087389005523 5.383370749623331 3.2966278583603303 -3.496947293301782e-08 6.327635290921856e-08 6.593255633580299" Properties=species:S:1:pos:R:3:forces:R:3 energy=-45.845272064208984 free_energy=-45.845272064208984 stress="5.0426897360011935e-06 1.2217737932473938e-08 9.197131944915782e-09 1.2217737932473938e-08 4.9767745622375514e-06 2.5822972204991856e-08 9.197131944915782e-09 2.5822972204991856e-08 4.985773557564244e-06" pbc="T T T"
Mn       1.90330848       1.34584253       3.29662830      -0.00000072       0.00000339       0.00000287
Mn       5.70992603       4.03752776       9.88988334      -0.00000228      -0.00000640      -0.00000244
Y       -0.00000002      -0.00000002      -0.00000033       0.00000017      -0.00000054       0.00000304
S        2.10887606       1.49120081       6.59325535       0.00031869       0.00022673      -0.00000168
S        5.50435928       3.89216972       6.59325584      -0.00031687      -0.00022799       0.00000249
S        4.65548837       1.49120117       5.12296743      -0.00015894       0.00022993       0.00027210
S        2.95774697       3.89217003       8.06354364       0.00016103      -0.00022476      -0.00027602
S        2.95774636       3.89217005       5.12296795       0.00015740      -0.00022884       0.00027614
S        4.65548859       1.49120119       8.06354363      -0.00015853       0.00022815      -0.00027634
