9
Lattice="5.364848744202112 9.918714635389183e-09 3.0973969560174823 1.7882829114948928 5.058028088957814 3.0973969778248946 -1.1492058657440185e-07 -5.455258646645937e-08 6.194794111083271" Properties=species:S:1:pos:R:3:forces:R:3 energy=-39.43765640258789 free_energy=-39.43765640258789 stress="0.00016891147242859006 -2.544365551582217e-10 3.552476357526757e-08 -2.544365551582217e-10 0.00016890573897399008 2.3788137681890476e-08 3.552476357526757e-08 2.3788137681890476e-08 0.00016885643708519638" pbc="T T T"
Mn       1.78828556       1.26450707       3.09739693       0.00000890       0.00000041      -0.00000035
Mn       5.36484748       3.79352119       9.29219099      -0.00000321       0.00000061      -0.00000030
Zn      -0.00000006      -0.00000004      -0.00000008       0.00000165      -0.00000287       0.00000044
S        1.88608617       1.33366419       6.19479406       0.00032382       0.00022611       0.00000018
S        5.26704482       3.72436417       6.19479391      -0.00032707      -0.00022677       0.00000006
S        4.42180460       1.33366447       4.73079504      -0.00016671       0.00022955       0.00027734
S        2.73132658       3.72436338       7.65879277       0.00016510      -0.00022855      -0.00027475
S        2.73132661       3.72436341       4.73079534       0.00016395      -0.00022866       0.00027584
S        4.42180438       1.33366429       7.65879315      -0.00016659       0.00023010      -0.00027826
