9
Lattice="4.5155956282248795 3.4745573240798886e-08 2.607080296572918 1.505198602227623 4.257344327887743 2.607080250279416 8.611692209097601e-08 4.196136846209713e-09 5.21416044398696" Properties=species:S:1:pos:R:3:forces:R:3 energy=-46.770851135253906 free_energy=-46.770851135253906 stress="-0.00011673787230392918 1.976480135112979e-08 5.1037961412703226e-08 1.976480135112979e-08 -0.00011664096382446587 -6.502682481368538e-08 5.1037961412703226e-08 -6.502682481368538e-08 -0.00011674725101329386" pbc="T T T"
Mn       1.50519875       1.06433596       2.60708028       0.00000002       0.00000006      -0.00000228
Mn       4.51559568       3.19300855       7.82124099       0.00000127       0.00000201      -0.00000071
Zn       0.00000001       0.00000019      -0.00000049       0.00000474      -0.00000482       0.00002043
O        1.55514198       1.09965108       5.21416063      -0.00227824      -0.00161266       0.00000177
O        4.46565223       3.15769314       5.21416020       0.00227755       0.00161052       0.00000072
O        3.73802486       1.09965110       3.95387263       0.00114158      -0.00161564      -0.00197655
O        2.28276949       3.15769308       6.47444857      -0.00113760       0.00160643       0.00197023
O        2.28276950       3.15769298       3.95387257      -0.00114524       0.00161946      -0.00198147
O        3.73802482       1.09965135       6.47444856       0.00113560      -0.00160542       0.00196728
