9
Lattice="6.210175213003644 1.596772560644905e-07 3.5854463547944473 2.0700585360167554 5.855009475166611 3.5854463874661184 -1.6963614711307304e-08 2.801934310856396e-08 7.170892738970751" Properties=species:S:1:pos:R:3:forces:R:3 energy=-34.01805114746094 free_energy=-34.01805114746094 stress="6.787479378544958e-07 -2.0609822737327477e-09 -4.596192759720452e-09 -2.0609822737327477e-09 6.627852258134226e-07 1.1912383968137874e-08 -4.596192759720452e-09 1.1912383968137874e-08 6.629334734498116e-07" pbc="T T T"
Mn       2.07005675       1.46375178       3.58544704      -0.00001275      -0.00000425       0.00000519
Mn       6.21017634       4.39125719      10.75633858       0.00000872      -0.00000091      -0.00000507
Zn       0.00000009      -0.00000011      -0.00000029       0.00000137       0.00000042       0.00000314
Te       2.18789925       1.54707899       7.17089272       0.00108413       0.00076857      -0.00000108
Te       6.09233450       4.30793061       7.17089318      -0.00108392      -0.00077021       0.00000264
Te       5.11622591       1.54707852       5.48022311      -0.00054011       0.00076480       0.00094176
Te       3.16400786       4.30793195       8.86156212       0.00054156      -0.00076285      -0.00094424
Te       3.16400769       4.30793122       5.48022323       0.00053849      -0.00076523       0.00094215
Te       5.11622658       1.54707853       8.86156225      -0.00053754       0.00076968      -0.00094449
