9
Lattice="5.6349749299777505 1.9432018450008795e-07 3.2533544687364593 1.8783251201744247 5.3127054820042545 3.253354537484481 1.3172146682372421e-08 9.351293124394958e-08 6.506708914658038" Properties=species:S:1:pos:R:3:forces:R:3 energy=-36.34196853637695 free_energy=-36.34196853637695 stress="0.0003753658675123006 8.654668448571101e-08 -1.325165810417417e-10 8.654668448571101e-08 0.0003753015771508217 -1.896679791002498e-08 -1.325165810417417e-10 -1.896679791002498e-08 0.0003752676129806787" pbc="T T T"
Mn       1.87832437       1.32817320       3.25335534      -0.00000582      -0.00002902       0.00000925
Mn       5.63497817       3.98452622       9.76006430       0.00002747      -0.00002733       0.00000624
Zn       0.00000011       0.00000030      -0.00000017       0.00000057      -0.00000051       0.00000223
Se       2.03953886       1.44217451       6.50670884      -0.00751810      -0.00529365      -0.00000314
Se       5.47375922       3.87053415       6.50670923       0.00750101       0.00531866      -0.00000014
Se       4.61520571       1.44217333       5.01964676       0.00375692      -0.00529936      -0.00650589
Se       2.89809317       3.87053500       7.99376898      -0.00376233       0.00531881       0.00648479
Se       2.89809431       3.87053394       5.01964813      -0.00375775       0.00531483      -0.00649272
Se       4.61520635       1.44217240       7.99377036       0.00375803      -0.00530255       0.00649932
