9
Lattice="4.077446394697347 -1.4750704382729158e-08 2.3541138991927335 1.3591487549731727 3.8442532056145646 2.3541139500321635 1.0312283215181466e-07 1.35184159068267e-07 4.708227619771497" Properties=species:S:1:pos:R:3:forces:R:3 energy=-70.56779479980469 free_energy=-70.56779479980469 stress="0.0001359039160888642 -2.9905766751880947e-09 -2.741713558407355e-07 -2.9905766751880947e-09 0.00013540827785618603 -2.4634905670950502e-08 -2.741713558407355e-07 -2.4634905670950502e-08 0.00013655374641530216" pbc="T T T"
Mo       1.35915116       0.96106346       2.35411479       0.00003502      -0.00000070       0.00001249
Mo       4.07744538       2.88318892       7.06234068      -0.00001087      -0.00001448      -0.00001304
Cr      -0.00000015      -0.00000014       0.00000024      -0.00000106       0.00000361      -0.00000457
N        1.49023769       1.05375929       4.70822773       0.00741720       0.00528172      -0.00000109
N        3.94635738       2.79049375       4.70822896      -0.00742346      -0.00528118       0.00001834
N        3.33232407       1.05375841       3.64469614      -0.00376269       0.00526294       0.00640678
N        2.10426986       2.79049531       5.77175797       0.00373510      -0.00525171      -0.00642562
N        2.10426904       2.79049731       3.64469864       0.00373510      -0.00523847       0.00645936
N        3.33232656       1.05375660       5.77175638      -0.00372478       0.00523907      -0.00645298
