9
Lattice="4.205276722940336 3.7099082338647657e-08 2.427917754265929 1.4017589218408553 3.964773234392623 2.4279177902636064 -1.7161384919979194e-08 3.195304528030033e-08 4.855835538256249" Properties=species:S:1:pos:R:3:forces:R:3 energy=-66.69691467285156 free_energy=-66.69691467285156 stress="-0.0002893380878958851 -1.5851234991259844e-07 3.9469167489869506e-08 -1.5851234991259844e-07 -0.00028947071405127645 -1.1616196005093116e-08 3.9469167489869506e-08 -1.1616196005093116e-08 -0.0002892349730245769" pbc="T T T"
Mo       1.40175873       0.99119371       2.42791816      -0.00000806       0.00000791       0.00000523
Mo       4.20527658       2.97357999       7.28375278      -0.00000272      -0.00000107      -0.00000605
Co      -0.00000006      -0.00000011       0.00000007      -0.00000013       0.00000078      -0.00000192
N        1.44697608       1.02316731       4.85583570      -0.00379452      -0.00267926       0.00000442
N        4.16005932       2.94160615       4.85583583       0.00379488       0.00267911       0.00000249
N        3.48178814       1.02316677       3.68103628       0.00189556      -0.00268900      -0.00328913
N        2.12524737       2.94160629       6.03063488      -0.00189514       0.00268680       0.00328931
N        2.12524742       2.94160605       3.68103606      -0.00189401       0.00268310      -0.00329179
N        3.48178888       1.02316705       6.03063460       0.00190462      -0.00268786       0.00328611
