9
Lattice="4.119726512201293 -7.03132959206131e-08 2.37852532462337 1.3732421952666942 3.884114939741691 2.378525167309965 1.6466410632363412e-07 -7.623367760358964e-08 4.757050364040135" Properties=species:S:1:pos:R:3:forces:R:3 energy=-65.30937957763672 free_energy=-65.30937957763672 stress="-4.815020474779885e-06 6.316899003877552e-08 -4.158516730967676e-08 6.316899003877552e-08 -4.758318937092554e-06 9.25585723621225e-08 -4.158516730967676e-08 9.25585723621225e-08 -4.874527803622186e-06" pbc="T T T"
Mo       1.37324250       0.97102894       2.37852573       0.00000180       0.00000227       0.00000781
Mo       4.11972693       2.91308629       7.13557533       0.00000646       0.00000223      -0.00000572
C        0.00000014       0.00000023       0.00000029      -0.00000063       0.00000028       0.00001067
N        1.30547055       0.92310659       4.75705019       0.00004363       0.00003016      -0.00000249
N        4.18749829       2.96100800       4.75705052      -0.00004709      -0.00003028       0.00000298
N        3.46699137       0.92310676       3.50909578      -0.00002080       0.00002980       0.00003707
N        2.02597748       2.96100783       6.00500483       0.00002044      -0.00003755      -0.00004101
N        2.02597716       2.96100773       3.50909599       0.00001884      -0.00003159       0.00003564
N        3.46699137       0.92310668       6.00500494      -0.00002396       0.00003445      -0.00004351
