9
Lattice="4.35199115977427 -6.829599168532975e-08 2.512623279734365 1.4506637059039795 4.103096335355425 2.5126231924921765 5.6375910346504575e-08 -6.698563622608512e-08 5.025246461822797" Properties=species:S:1:pos:R:3:forces:R:3 energy=-71.58091735839844 free_energy=-71.58091735839844 stress="-0.00035458573256619275 -1.3056882686157678e-08 3.183101071613237e-08 -1.3056882686157678e-08 -0.0003546492080204189 -3.1178268500298145e-07 3.183101071613237e-08 -3.1178268500298145e-07 -0.00035457377089187503" pbc="T T T"
Mo       1.45066365       1.02577426       2.51262277      -0.00000011      -0.00000463       0.00002993
Mo       4.35199114       3.07732233       7.53786919       0.00000430       0.00000238       0.00003326
Fe      -0.00000005      -0.00000048      -0.00000322       0.00001313       0.00010897       0.00071607
N        1.57006906       1.11020597       5.02524677      -0.00266051      -0.00188613      -0.00005174
N        4.23258624       2.99289006       5.02524672       0.00261402       0.00184345      -0.00005654
N        3.56695641       1.11020643       3.87234351       0.00139093      -0.00196350      -0.00246477
N        2.23569781       2.99289071       6.17815141      -0.00125003       0.00175321       0.00210166
N        2.23569842       2.99288981       3.87234349      -0.00137389       0.00193596      -0.00244045
N        3.56695704       1.11020562       6.17815098       0.00126207      -0.00178993       0.00213194
