9
Lattice="3.990531787808723 4.478683927120768e-07 2.3039355589588046 1.3301777634882153 3.7623059284579243 2.303935422766079 2.468572133832575e-07 7.752870917639848e-09 4.607870690348323" Properties=species:S:1:pos:R:3:forces:R:3 energy=-62.42938232421875 free_energy=-62.42938232421875 stress="-0.00027833753847517073 -3.2478044431627495e-06 -2.7777039122156566e-06 -3.2478044431627495e-06 -0.0002494170912541449 -1.5406826605612878e-06 -2.7777039122156566e-06 -1.5406826605612878e-06 -0.0002886634028982371" pbc="T T T"
Mo       1.33019614       0.94058038       2.30393768       0.00036643       0.00005486       0.00003227
Mo       3.99054577       2.82171689       6.91180116       0.00027674      -0.00023709      -0.00007327
Ge      -0.00000124       0.00000043       0.00000072      -0.00001333       0.00000490       0.00000918
N        1.52219491       1.07637964       4.60787111       0.00059605       0.00099432      -0.00003495
N        3.79851664       2.68593640       4.60787627      -0.00054824      -0.00071061       0.00012082
N        3.22941302       1.07637115       3.62218315      -0.00069875       0.00084007       0.00020671
N        2.09127714       2.68594043       5.59354055       0.00029337      -0.00077951      -0.00060391
N        2.09127376       2.68593406       3.62220223       0.00022817      -0.00094104       0.00061464
N        3.22942337       1.07636565       5.59355383      -0.00049949       0.00077295      -0.00027156
