9
Lattice="4.330524454964717 -4.039444741660829e-08 2.5002293895562566 1.4435080901347168 4.082857508407893 2.5002294301484946 -3.9818524113796204e-08 2.155917806895274e-08 5.000458848080221" Properties=species:S:1:pos:R:3:forces:R:3 energy=-65.48429107666016 free_energy=-65.48429107666016 stress="0.00038056058110669255 2.3887125166766054e-07 7.342168117929759e-08 2.3887125166766054e-07 0.00038127234438434243 1.1279543343789555e-07 7.342168117929759e-08 1.1279543343789555e-07 0.0003810549096670002" pbc="T T T"
Mo       1.44351024       1.02071280       2.50022803       0.00003380      -0.00002513      -0.00002820
Mo       4.33052140       3.06214456       7.50068568      -0.00004969       0.00001958      -0.00004597
Ir      -0.00000020      -0.00000043       0.00000032      -0.00000160       0.00000336       0.00000205
N        1.56083164       1.10367351       5.00045810      -0.00211686      -0.00151682      -0.00000564
N        4.21320069       2.97918362       5.00045865       0.00211394       0.00151324       0.00000218
N        3.55010773       1.10367314       3.85194935       0.00104544      -0.00152528      -0.00183183
N        2.22392675       2.97918284       6.14897055      -0.00101107       0.00149405       0.00186819
N        2.22392477       2.97918478       3.85194979      -0.00104550       0.00152886      -0.00182736
N        3.55010689       1.10367509       6.14897029       0.00103265      -0.00149149       0.00186640
