9
Lattice="4.388774809140992 1.1362092605753312e-07 2.5338602076887087 1.4629248760333369 4.1377769022408515 2.5338604977549712 -1.3797365458653906e-07 2.576951024751402e-07 5.067720654354802" Properties=species:S:1:pos:R:3:forces:R:3 energy=-81.510498046875 free_energy=-81.510498046875 stress="0.0001523808459751308 -1.3778308129985817e-06 9.145775834440428e-07 -1.3778308129985817e-06 0.0001531566376797855 -3.027788011422672e-07 9.145775834440428e-07 -3.027788011422672e-07 0.00015361337864305824" pbc="T T T"
Mo       1.46292514       1.03444446       2.53386022      -0.00001613      -0.00001642       0.00000392
Mo       4.38877460       3.10333296       7.60158109      -0.00000797      -0.00001234       0.00000403
Mn       0.00000278       0.00000196       0.00000141      -0.00084899      -0.00059955      -0.00046581
N        1.58446432       1.12038591       5.06772062      -0.00065017      -0.00044572       0.00007433
N        4.26723354       3.01739009       5.06772081       0.00115430       0.00081491       0.00005007
N        3.59654155       1.12038633       3.90604771       0.00055939      -0.00057089      -0.00073481
N        2.25515750       3.01739047       6.22939326      -0.00039989       0.00074530       0.00088370
N        2.25515765       3.01738976       3.90604816      -0.00036013       0.00070405      -0.00070703
N        3.59654132       1.12038702       6.22939279       0.00056994      -0.00061798       0.00089037
