9
Lattice="4.235630160987261 5.082079824251638e-08 2.445442220117236 1.4118767764625808 3.9933903655373237 2.4454422058811813 1.3945218382784937e-07 8.117202062215219e-08 4.890884198696258" Properties=species:S:1:pos:R:3:forces:R:3 energy=-63.504825592041016 free_energy=-63.504825592041016 stress="2.624056833155919e-05 -5.343904518895215e-08 -8.913114157849122e-08 -5.343904518895215e-08 2.5974457457778044e-05 -2.3313933183999325e-07 -8.913114157849122e-08 -2.3313933183999325e-07 2.6264277039445005e-05" pbc="T T T"
Mo       1.41187798       0.99834701       2.44544185       0.00001575      -0.00000919      -0.00000304
Mo       4.23563098       2.99504258       7.33632741       0.00001170      -0.00000494       0.00001472
Ni       0.00000021       0.00000008      -0.00000001      -0.00000800       0.00000535      -0.00000138
N        1.47809747       1.04517244       4.89088407      -0.00681430      -0.00481963      -0.00000553
N        4.16940942       2.94821785       4.89088342       0.00681287       0.00482753      -0.00000988
N        3.49658181       1.04517251       3.72551247       0.00341117      -0.00482225      -0.00590402
N        2.15092454       2.94821815       6.05625611      -0.00341967       0.00482246       0.00589269
N        2.15092541       2.94821782       3.72551191      -0.00340915       0.00482005      -0.00590590
N        3.49658066       1.04517352       6.05625744       0.00339967      -0.00481945       0.00592247
