9
Lattice="4.3503949365257375 4.97383697295969e-08 2.511701593793307 1.4501316851176735 4.101591914268709 2.511701606410775 1.5806829381547115e-08 2.6630274263876934e-08 5.023403160208378" Properties=species:S:1:pos:R:3:forces:R:3 energy=-70.27600860595703 free_energy=-70.27600860595703 stress="-7.521103270846652e-06 -4.577447754172681e-08 1.0820748030937466e-07 -4.577447754172681e-08 -7.79055062594125e-06 -5.888410470333838e-08 1.0820748030937466e-07 -5.888410470333838e-08 -7.455718332494143e-06" pbc="T T T"
Mo       1.45013096       1.02539866       2.51170168      -0.00000988       0.00000684       0.00000143
Mo       4.35039503       3.07619345       7.53510425       0.00000233      -0.00000543      -0.00000461
Os      -0.00000005       0.00000010       0.00000005       0.00000161      -0.00000316       0.00000016
N        1.52201959       1.07623014       5.02340327       0.00239670       0.00168926       0.00000082
N        4.27850729       3.02536160       5.02340314      -0.00239277      -0.00169200      -0.00000144
N        3.58938593       1.07623051       3.82980922      -0.00119317       0.00169760       0.00207889
N        2.21114148       3.02536169       6.21699725       0.00119793      -0.00169128      -0.00207365
N        2.21114081       3.02536108       3.82980912       0.00119001      -0.00169706       0.00207019
N        3.58938561       1.07623067       6.21699726      -0.00119328       0.00169516      -0.00207293
