9
Lattice="4.25000269104839 -0.04206288052231533 2.378211748383217 1.3777929744333959 4.021594087778294 2.37950078646373 -0.05426824821461074 -0.03940987167458326 4.868475257328951" Properties=species:S:1:pos:R:3:forces:R:3 energy=-75.33551788330078 free_energy=-75.33551788330078 stress="5.0900762289529666e-05 -2.5315552193205804e-05 0.00013841774489264935 -2.5315552193205804e-05 0.00028307666070759296 0.00020718405721709132 0.00013841774489264935 0.00020718405721709132 -6.233464227989316e-05" pbc="T T T"
Mo       1.85016502       1.30868901       3.19623226       0.00021659      -0.00038920       0.00038531
Mo       3.72232354       2.63231764       6.43029489       0.00200382      -0.00039319      -0.00451724
Pd      -0.00046800       0.00041749       0.00007478       0.00070001      -0.00338762      -0.00292458
N        2.06147271       0.37646628       5.08205528      -0.00222760       0.00072484      -0.00149018
N        4.53043706       2.12221028       4.54356257       0.00154823       0.00654474       0.00142911
N        3.88896824       1.81512425       3.43604589       0.00229992      -0.00162865      -0.00060990
N        2.19243318       3.56417298       5.30745193      -0.00052704       0.00068814       0.00374073
N        1.48304409       3.06242618       4.31876047      -0.00392225       0.00030368      -0.00076756
N        2.56582953       0.87883730       6.18918513      -0.00009152      -0.00246284       0.00475514
