9
Lattice="4.361269857283366 4.3272531527745366e-08 2.5179804450932286 1.4537566774625637 4.1118445238795776 2.5179804146604408 -1.5986971513258439e-07 -1.503173465018058e-07 5.035961167088927" Properties=species:S:1:pos:R:3:forces:R:3 energy=-61.653480529785156 free_energy=-61.653480529785156 stress="0.00016288387996610254 -2.7795641699412954e-07 4.1683259155433916e-07 -2.7795641699412954e-07 0.00016332794621121138 2.449200451337674e-07 4.1683259155433916e-07 2.449200451337674e-07 0.00016265257727354765" pbc="T T T"
Mo       1.45375585       1.02795951       2.51798193      -0.00000759      -0.00002084       0.00001574
Mo       4.36127299       3.08388501       7.55393803       0.00004411       0.00002294      -0.00005203
Pt       0.00000017       0.00000012      -0.00000022      -0.00000774       0.00000398       0.00000115
N        1.55112950       1.09681368       5.03596176      -0.00160331      -0.00113803       0.00000459
N        4.26389677       3.01503055       5.03596427       0.00160545       0.00114501       0.00004759
N        3.58570394       1.09681399       3.86129752       0.00079125      -0.00114620      -0.00140429
N        2.22932088       3.01503119       6.21062322      -0.00081220       0.00114572       0.00138247
N        2.22931928       3.01503070       3.86129933      -0.00083333       0.00114584      -0.00137496
N        3.58570617       1.09681296       6.21062244       0.00082284      -0.00115770       0.00137806
