9
Lattice="4.185090354365665 1.5930918013022734e-08 2.4162630549111954 1.3950301207256126 3.9457411048147435 2.4162630764164925 -1.5180383725485358e-08 1.560434971019112e-08 4.832526136115587" Properties=species:S:1:pos:R:3:forces:R:3 energy=-67.42945861816406 free_energy=-67.42945861816406 stress="0.0006253391038626432 8.337249113310463e-08 -1.094740795792859e-07 8.337249113310463e-08 0.0006257107015699148 3.124809211385582e-08 -1.094740795792859e-07 3.124809211385582e-08 0.0006253950414247811" pbc="T T T"
Mo       1.39503007       0.98643538       2.41626303      -0.00000069       0.00000143      -0.00000007
Mo       4.18509032       2.95930591       7.24878937       0.00000118       0.00000129      -0.00000014
P        0.00000003      -0.00000002       0.00000003      -0.00000262      -0.00000407      -0.00000200
N        1.37881116       0.97496670       4.83252610       0.00103307       0.00073028       0.00000052
N        4.20130933       2.97077442       4.83252604      -0.00102997      -0.00072718       0.00000043
N        3.49568486       0.97496667       3.61034855      -0.00051707       0.00073123       0.00089645
N        2.08443564       2.97077441       6.05470373       0.00051534      -0.00072992      -0.00089395
N        2.08443567       2.97077437       3.61034846       0.00051701      -0.00073218       0.00089550
N        3.49568478       0.97496673       6.05470373      -0.00051594       0.00072920      -0.00089550
