9
Lattice="4.173596097021128 3.137049011097169e-07 2.4096269004547697 1.3911990054870544 3.934903337701071 2.4096268818937827 5.684406913927718e-07 3.792157884619231e-07 4.819252816341382" Properties=species:S:1:pos:R:3:forces:R:3 energy=-65.91903686523438 free_energy=-65.91903686523438 stress="0.000397436146158725 1.609412976222302e-07 -1.957832409971161e-06 1.609412976222302e-07 0.00039889776962809265 -1.2147462484790594e-06 -1.957832409971161e-06 -1.2147462484790594e-06 0.0003989649412687868" pbc="T T T"
Mo       1.39120616       0.98371940       2.40963860       0.00012557      -0.00012472       0.00027976
Mo       4.17360058       2.95117511       7.22890394       0.00008440      -0.00008902       0.00041773
Rh      -0.00000046      -0.00000411       0.00000161      -0.00001172      -0.00000416      -0.00005261
N        1.57399360       1.11299522       4.81924985       0.00145936       0.00120610      -0.00007284
N        3.99078536       2.82192376       4.81924310      -0.00164348      -0.00099498      -0.00012199
N        3.38659417       1.11299723       3.77274338      -0.00080517       0.00119281       0.00122565
N        2.17819756       2.82192259       5.86574635       0.00073558      -0.00100887      -0.00145161
N        2.17820891       2.82190782       3.77274707       0.00082821      -0.00118196       0.00121695
N        3.38659683       1.11297916       5.86575260      -0.00077301       0.00100505      -0.00144172
