9
Lattice="4.318610537221857 3.722359600812957e-08 2.4933509276805212 1.4395368900550003 4.071624737980023 2.4933509117116355 1.2216203535815788e-07 6.682379956206346e-08 4.9867016437701865" Properties=species:S:1:pos:R:3:forces:R:3 energy=-72.72416687011719 free_energy=-72.72416687011719 stress="0.00031429450609721243 5.4751861711110905e-08 -5.559384419484559e-08 5.4751861711110905e-08 0.0003146762610413134 -5.9170677246811465e-08 -5.559384419484559e-08 -5.9170677246811465e-08 0.000314518780214712" pbc="T T T"
Mo       1.43953745       1.01790553       2.49335000       0.00000727      -0.00001027      -0.00001507
Mo       4.31861116       3.05371946       7.48005107       0.00000451       0.00000946      -0.00002225
Re       0.00000009      -0.00000016       0.00000012      -0.00000119       0.00000069       0.00000115
N        1.54581349       1.09305461       4.98670213      -0.00741386      -0.00525141       0.00000568
N        4.21233377       2.97857074       4.98670240       0.00740910       0.00525677       0.00000850
N        3.54570401       1.09305452       3.83206489       0.00371027      -0.00525224      -0.00641704
N        2.21244371       2.97856958       6.14133932      -0.00370544       0.00524056       0.00642967
N        2.21244253       2.97856993       3.83206501      -0.00372022       0.00524724      -0.00641584
N        3.54570408       1.09305521       6.14133921       0.00370961      -0.00524092       0.00642478
