9
Lattice="4.257942199832501 -1.1876183211606403e-07 2.458324123812438 1.4193140043190182 4.014426203784828 2.4583240377677447 8.838056356267696e-08 -4.28883004505319e-08 4.916648094545228" Properties=species:S:1:pos:R:3:forces:R:3 energy=-67.21265411376953 free_energy=-67.21265411376953 stress="-0.0006342289270833135 -2.613593608202791e-07 1.497765111935223e-08 -2.613593608202791e-07 -0.0006340362597256899 -1.8299360249329766e-07 1.497765111935223e-08 -1.8299360249329766e-07 -0.000633681018371135" pbc="T T T"
Mo       1.41931454       1.00360584       2.45832383       0.00000511      -0.00000867      -0.00000639
Mo       4.25794226       3.01081958       7.37497228      -0.00000012       0.00000196       0.00000288
Ru      -0.00000021      -0.00000009      -0.00000020       0.00000287       0.00000192      -0.00000059
N        1.52487416       1.07824908       4.91664806       0.00062013       0.00044221      -0.00000082
N        4.15238228       2.93617716       4.91664759      -0.00062418      -0.00044334      -0.00000928
N        3.49550461       1.07824878       3.77890456      -0.00031024       0.00042880       0.00053138
N        2.18175186       2.93617700       6.05439200       0.00031218      -0.00043142      -0.00052667
N        2.18175128       2.93617738       3.77890495       0.00030428      -0.00042146       0.00053388
N        3.49550435       1.07824938       6.05439205      -0.00030956       0.00042975      -0.00052339
