9
Lattice="4.266702140219728 -7.706366288729574e-08 2.463381394285397 1.4222339865555007 4.022685043350243 2.4633813726834104 -1.2770050459819226e-08 -3.548671206329773e-08 4.926762810689185" Properties=species:S:1:pos:R:3:forces:R:3 energy=-61.08185958862305 free_energy=-61.08185958862305 stress="-0.0002233421109849587 5.1484459362427515e-08 -1.7218204106939083e-07 5.1484459362427515e-08 -0.00022321168216876686 8.34201401289647e-08 -1.7218204106939083e-07 8.34201401289647e-08 -0.00022342360171023756" pbc="T T T"
Mo       1.42223461       1.00567186       2.46338099       0.00000827       0.00000598      -0.00000351
Mo       4.26670297       3.01701258       7.39014463       0.00001276      -0.00001137       0.00000754
Se      -0.00000031       0.00000005      -0.00000001       0.00000100       0.00000494       0.00000448
N        1.49126341       1.05448315       4.92676266       0.00426733       0.00302422      -0.00000188
N        4.19767222       2.96820231       4.92676276      -0.00427759      -0.00302172      -0.00000311
N        3.52107051       1.05448300       3.75485383      -0.00213546       0.00302279       0.00369644
N        2.16786571       2.96820180       6.09867189       0.00213104      -0.00302243      -0.00369847
N        2.16786545       2.96820266       3.75485366       0.00213349      -0.00302482       0.00370371
N        3.52107003       1.05448240       6.09867193      -0.00214154       0.00302291      -0.00370383
