9
Lattice="4.115270373032008 -6.431524489524546e-08 2.3759524109815264 1.371756746452549 3.8799141748625376 2.375952383132046 -8.091610696024992e-08 -9.132479393364787e-08 4.75190496211388" Properties=species:S:1:pos:R:3:forces:R:3 energy=-66.88264465332031 free_energy=-66.88264465332031 stress="-8.904373680707067e-05 7.102813981418876e-08 6.353758408295107e-08 7.102813981418876e-08 -8.936610538512468e-05 -1.3214622640589369e-07 6.353758408295107e-08 -1.3214622640589369e-07 -8.872237231116742e-05" pbc="T T T"
Mo       1.37175619       0.96997624       2.37595118      -0.00001056      -0.00003380      -0.00002072
Mo       4.11526951       2.90993578       7.12785190      -0.00000751       0.00000043      -0.00007903
Si      -0.00000014      -0.00000001       0.00000039       0.00000662       0.00000324       0.00000318
N        1.44844117       1.02420329       4.75190515      -0.00015688      -0.00009990       0.00000822
N        4.03858511       2.85571209       4.75190591       0.00014162       0.00011617       0.00001589
N        3.39105009       1.02420106       3.63034151       0.00007957      -0.00012213      -0.00010610
N        2.09597970       2.85571186       5.87347118      -0.00004554       0.00011122       0.00014520
N        2.09597681       2.85571198       3.63034079      -0.00008321       0.00011683      -0.00011373
N        3.39104952       1.02420375       5.87347101       0.00007492      -0.00009185       0.00014710
