9
Lattice="4.236117513131946 -7.421707333275462e-09 2.445723687401298 1.4120391891664177 3.993849800826718 2.4457236438927463 6.150142256659446e-08 -9.798798499881425e-09 4.891447268278992" Properties=species:S:1:pos:R:3:forces:R:3 energy=-69.28682708740234 free_energy=-69.28682708740234 stress="-0.0003210168215446174 -9.491925112570243e-08 2.014897759750056e-08 -9.491925112570243e-08 -0.0003206805558875203 -1.4671012138478545e-07 2.014897759750056e-08 -1.4671012138478545e-07 -0.00032073660986498" pbc="T T T"
Mo       1.41203923       0.99846267       2.44572566       0.00000014       0.00000907       0.00003608
Mo       4.23611762       2.99538899       7.33717339       0.00000532       0.00002909       0.00005064
Ti       0.00000005       0.00000007       0.00000031      -0.00000046      -0.00000541      -0.00001233
N        1.52857103       1.08086220       4.89144690      -0.00517851      -0.00367755      -0.00001123
N        4.11958599       2.91298701       4.89144671       0.00519049       0.00366896      -0.00001818
N        3.47183185       1.08086318       3.76950415       0.00258172      -0.00365442      -0.00449991
N        2.17632448       2.91298754       6.01338902      -0.00260329       0.00368434       0.00448680
N        2.17632467       2.91298620       3.76950409      -0.00259402       0.00365186      -0.00450557
N        3.47183212       1.08086131       6.01338830       0.00259939      -0.00370550       0.00447309
