9
Lattice="4.189131824972628 -8.303175481874822e-08 2.4185963148473175 1.3963772742379366 3.949550687633475 2.4185961805611567 2.0245730276361715e-07 -2.1307352019759125e-08 4.837192279028293" Properties=species:S:1:pos:R:3:forces:R:3 energy=-70.70623016357422 free_energy=-70.70623016357422 stress="-0.00017973010835703462 8.859100120162111e-08 -4.4005481925069034e-08 8.859100120162111e-08 -0.00017974298680201173 -6.654635953395882e-09 -4.4005481925069034e-08 -6.654635953395882e-09 -0.00017949195171240717" pbc="T T T"
Mo       1.39637993       0.98738655       2.41859480       0.00004817      -0.00002168      -0.00002322
Mo       4.18913396       2.96216228       7.25578962       0.00004131      -0.00001500       0.00001561
V       -0.00000052      -0.00000023       0.00000023      -0.00001045       0.00000292       0.00000023
N        1.51833750       1.07362637       4.83719296       0.00539762       0.00381964       0.00000932
N        4.06717142       2.87592425       4.83719270      -0.00540757      -0.00381356       0.00000060
N        3.42996212       1.07362751       3.73351366      -0.00272125       0.00383472       0.00465888
N        2.15554466       2.87592368       5.94086931       0.00267673      -0.00382507      -0.00468564
N        2.15554546       2.87592553       3.73351590       0.00269261      -0.00380504       0.00470030
N        3.42996259       1.07362637       5.94087011      -0.00271720       0.00382346      -0.00467581
