9
Lattice="5.301368312235919 -3.3038726105037294e-07 3.060746177718844 1.7671224615923364 4.9981779815818665 3.060746173667399 -1.7936261773587938e-07 -1.3179050475291053e-07 6.12149266610308" Properties=species:S:1:pos:R:3:forces:R:3 energy=-35.88055419921875 free_energy=-35.88055419921875 stress="-4.632122363545932e-05 -5.9986779987752925e-09 -2.269678445188106e-09 -5.9986779987752925e-09 -4.631305273505859e-05 1.3530707221320881e-08 -2.269678445188106e-09 1.3530707221320881e-08 -4.6295874199131504e-05" pbc="T T T"
Na       1.76712247       1.24954437       3.06074620       0.00000067      -0.00000029      -0.00000006
Na       5.30136803       3.74863335       9.18223872      -0.00000048      -0.00000056       0.00000032
Co      -0.00000014      -0.00000039      -0.00000018       0.00000052       0.00000195      -0.00000101
S        1.76888504       1.25079033       6.12149267       0.00060651       0.00042918      -0.00000030
S        5.29960602       3.74738683       6.12149210      -0.00060743      -0.00042939      -0.00000005
S        4.41692588       1.25079031       4.59264580      -0.00030324       0.00042865       0.00052470
S        2.65156445       3.74738710       7.65033967       0.00030300      -0.00042903      -0.00052533
S        2.65156473       3.74738729       4.59264583       0.00030336      -0.00042924       0.00052571
S        4.41692586       1.25079045       7.65033948      -0.00030279       0.00042880      -0.00052422
