9
Lattice="5.112475211900675 9.244448824594286e-07 2.95168969796772 1.704159012049696 4.8200874438593475 2.951690154349491 3.625497396030071e-07 8.153127678624008e-07 5.903378767980889" Properties=species:S:1:pos:R:3:forces:R:3 energy=-32.18454360961914 free_energy=-32.18454360961914 stress="0.00026575286756269634 -2.2837413737875067e-08 -6.642360261821523e-08 -2.2837413737875067e-08 0.0002660645986907184 9.207628437479798e-09 -6.642360261821523e-08 9.207628437479798e-09 0.00026581084239296615" pbc="T T T"
Na       1.70415866       1.20502241       2.95168946      -0.00000429       0.00000231      -0.00000182
Na       5.11247491       3.61506613       8.85506887       0.00000200      -0.00000194      -0.00000293
C        0.00004747       0.00003454       0.00008418       0.00172221       0.00128128       0.00311945
S        1.63616874       1.15694602       5.90337820      -0.00643921      -0.00456339       0.00003252
S        5.18041886       3.66311231       5.90337821       0.00460559       0.00327253       0.00002888
S        4.29439122       1.15694441       4.36865378       0.00327179      -0.00459206      -0.00558829
S        2.52226872       3.66310828       7.43806371      -0.00224942       0.00323397       0.00397772
S        2.52224303       3.66314366       4.36865394      -0.00321311       0.00460124      -0.00556797
S        4.29436664       1.15697860       7.43806514       0.00230455      -0.00323361       0.00400287
