9
Lattice="4.251845098809786 2.4246141904434305e-07 2.45480383482227 1.417281820897089 4.008678125576215 2.4548040206730652 2.9403673409960966e-07 4.355351364277261e-07 4.9096071603580755" Properties=species:S:1:pos:R:3:forces:R:3 energy=-43.99806213378906 free_energy=-43.99806213378906 stress="6.883050809847191e-05 5.181854589864088e-08 1.2927735326684342e-07 5.181854589864088e-08 6.861849396955222e-05 -2.1007510397907936e-08 1.2927735326684342e-07 -2.1007510397907936e-08 6.872160156490281e-05" pbc="T T T"
Na       1.41728177       1.00216953       2.45480392       0.00000089       0.00000206      -0.00000091
Na       4.25184539       3.00650908       7.36441120       0.00000084      -0.00000089      -0.00000044
C       -0.00000006       0.00000009      -0.00000000       0.00000364       0.00000277       0.00000404
O        1.23436563       0.87282785       4.90960706      -0.00097966      -0.00068033       0.00000098
O        4.43476182       3.13585080       4.90960798       0.00096804       0.00068128       0.00000129
O        3.63466261       0.87282802       3.52379522       0.00048664      -0.00068176      -0.00083971
O        2.03446457       3.13585084       6.29542009      -0.00048214       0.00067651       0.00083005
O        2.03446429       3.13585062       3.52379547      -0.00048789       0.00068337      -0.00083953
O        3.63466294       0.87282853       6.29541989       0.00048915      -0.00068277       0.00084293
