9
Lattice="5.278375245342976 -1.7508363782509732e-07 3.0474712276155698 1.7594581844459403 4.976499569403071 3.0474713412344987 -1.1956632034158803e-07 5.460806014788632e-08 6.094942662326161" Properties=species:S:1:pos:R:3:forces:R:3 energy=-38.24881362915039 free_energy=-38.24881362915039 stress="-7.964791439007968e-05 1.617296163658466e-08 -1.2723188724805823e-08 1.617296163658466e-08 -7.96525928308256e-05 1.2362245449537568e-08 -1.2723188724805823e-08 1.2362245449537568e-08 -7.96876338426955e-05" pbc="T T T"
Na       1.75945840       1.24412493       3.04747133      -0.00000001      -0.00000037       0.00000003
Na       5.27837525       3.73237468       9.14241322      -0.00000040      -0.00000027       0.00000091
Cr      -0.00000008       0.00000042       0.00000010       0.00000156       0.00000306       0.00000267
S        1.79317502       1.26796616       6.09494259       0.00452214       0.00319698       0.00000087
S        5.24465881       3.70853310       6.09494247      -0.00452459      -0.00319871      -0.00000091
S        4.38178751       1.26796569       4.60040651      -0.00225979       0.00319690       0.00391617
S        2.65604535       3.70853377       7.58947933       0.00226206      -0.00319961      -0.00391823
S        2.65604524       3.70853352       4.60040609       0.00226167      -0.00319695       0.00391722
S        4.38178781       1.26796575       7.58947922      -0.00226271       0.00319871      -0.00391898
