9
Lattice="5.599433735595595 4.453340552066248e-07 3.232834555288537 1.866478347242088 5.2791972888192324 3.232834528421034 -1.0089560526229416e-07 -1.0424975433879951e-07 6.465669285333416" Properties=species:S:1:pos:R:3:forces:R:3 energy=-33.304866790771484 free_energy=-33.304866790771484 stress="0.0002643938350956887 2.4498360673419484e-08 1.8567674064939865e-09 2.4498360673419484e-08 0.0002643346379045397 -8.033203435786618e-09 1.8567674064939865e-09 -8.033203435786618e-09 0.00026433911989443004" pbc="T T T"
Na       1.86647763       1.31979976       3.23283440       0.00000081      -0.00000047       0.00000121
Na       5.59943367       3.95939820       9.69850363      -0.00000018      -0.00000041       0.00000139
Co      -0.00000044      -0.00000021      -0.00000134       0.00000222       0.00000022       0.00000691
Se       1.89707358       1.34143385       6.46566939      -0.00296967      -0.00209984      -0.00000111
Se       5.56883925       3.93776409       6.46566909       0.00296792       0.00210011      -0.00000119
Se       4.65089779       1.34143349       4.87574821       0.00148372      -0.00209947      -0.00257187
Se       2.81501420       3.93776404       8.05559114      -0.00148393       0.00209868       0.00256802
Se       2.81501467       3.93776406       4.87574808      -0.00148424       0.00209936      -0.00257146
Se       4.65089745       1.34143316       8.05559120       0.00148329      -0.00209807       0.00256819
