9
Lattice="6.240417402631278 -1.9621744899160922e-07 3.6029067332100335 2.080139071227854 5.8835218292034694 3.6029065218773337 9.40642137772293e-08 -1.923151906495527e-07 7.205813303496054" Properties=species:S:1:pos:R:3:forces:R:3 energy=-33.457427978515625 free_energy=-33.457427978515625 stress="-5.193355264054844e-06 -1.3478320681770128e-08 7.423250014682026e-09 -1.3478320681770128e-08 -5.179213530936977e-06 -9.158503289086184e-09 7.423250014682026e-09 -9.158503289086184e-09 -5.192986918700626e-06" pbc="T T T"
Na       2.08013932       1.47088016       3.60290681      -0.00000023       0.00000026      -0.00000022
Na       6.24041727       4.41264112      10.80871994       0.00000015       0.00000031       0.00000004
Cr       0.00000036      -0.00000069       0.00000056      -0.00000323       0.00000220      -0.00000188
Te       2.20968690       1.56248502       7.20581315      -0.00006814      -0.00004924       0.00000000
Te       6.11086901       4.32103647       7.20581297       0.00007113       0.00004973       0.00000041
Te       5.13557367       1.56248521       5.51655151       0.00003493      -0.00005036      -0.00005981
Te       3.18498303       4.32103661       8.89507479      -0.00003446       0.00004847       0.00006023
Te       3.18498361       4.32103629       5.51655214      -0.00003544       0.00004975      -0.00006058
Te       5.13557310       1.56248559       8.89507437       0.00003537      -0.00005115       0.00006187
