9
Lattice="5.5773597163320785 3.146291319589064e-07 3.2200902151693587 1.859120242978984 5.2583850054383445 3.2200901443288967 2.2978285806846822e-07 7.571954879596825e-08 6.44018003234308" Properties=species:S:1:pos:R:3:forces:R:3 energy=-35.72499465942383 free_energy=-35.72499465942383 stress="-0.00010383318294771016 7.021456127631609e-08 -2.030877332970249e-08 7.021456127631609e-08 -0.00010388300870545208 1.3022309619525885e-10 -2.030877332970249e-08 1.3022309619525885e-10 -0.00010391761315986514" pbc="T T T"
Na       1.85911986       1.31459635       3.22009015       0.00000039       0.00000085       0.00000002
Na       5.57736038       3.94378911       9.66027020       0.00000075      -0.00000005       0.00000149
Cr      -0.00000009       0.00000042      -0.00000016       0.00000046      -0.00000204       0.00000064
Se       2.00224707       1.41580209       6.44017996       0.00536082       0.00379015       0.00000051
Se       5.43423320       3.84258300       6.44018027      -0.00536062      -0.00379089       0.00000019
Se       4.57623661       1.41580206       4.95408625      -0.00268275       0.00379350       0.00464630
Se       2.86024374       3.84258317       7.92627445       0.00268294      -0.00379274      -0.00464727
Se       2.86024308       3.84258332       4.95408596       0.00268180      -0.00379265       0.00464636
Se       4.57623689       1.41580205       7.92627447      -0.00268383       0.00379390      -0.00464828
