9
Lattice="4.755979497893215 -9.388175384535045e-08 2.7458662079441565 1.5853265292773182 4.483979883079068 2.7458660027097856 -2.5315318204700346e-08 -2.6926037876654694e-07 5.491732459735713" Properties=species:S:1:pos:R:3:forces:R:3 energy=-45.15834045410156 free_energy=-45.15834045410156 stress="-0.00026858592173084617 -4.938193853831763e-09 2.9144025859295652e-08 -4.938193853831763e-09 -0.00026864162646234035 -9.057347227781065e-08 2.9144025859295652e-08 -9.057347227781065e-08 -0.00026870009605772793" pbc="T T T"
Na       1.58532614       1.12099480       2.74586616      -0.00000030      -0.00000078       0.00000082
Na       4.75597953       3.36298474       8.23759830      -0.00000043       0.00000073      -0.00000031
Cr      -0.00000039      -0.00000084      -0.00000073       0.00000743       0.00002110       0.00004361
O        1.46300601       1.03450017       5.49173178       0.00560874       0.00396836       0.00000862
O        4.87830087       3.44948037       5.49173226      -0.00563294      -0.00397992       0.00000701
O        4.02447630       1.03450121       4.01286704      -0.00279370       0.00395620       0.00484908
O        2.31682873       3.44948037       6.97060002       0.00282907      -0.00399855      -0.00489122
O        2.31682914       3.44947787       4.01286596       0.00280219      -0.00395924       0.00486082
O        4.02447797       1.03449911       6.97059912      -0.00282025       0.00399244      -0.00487834
