9
Lattice="4.421280661567315 5.11139903792508e-07 2.5526274662514123 1.4737605286106572 4.168423521645609 2.552627767314976 1.1175931614399278e-07 4.4775198788005975e-07 5.105254738930098" Properties=species:S:1:pos:R:3:forces:R:3 energy=-41.53271484375 free_energy=-41.53271484375 stress="-0.0002984486927744001 4.3747812128458463e-07 -5.910896305749702e-08 4.3747812128458463e-07 -0.00029903106042183936 1.8716750105340907e-07 -5.910896305749702e-08 1.8716750105340907e-07 -0.0002992142108269036" pbc="T T T"
Na       1.47376019       1.04210569       2.55262736       0.00000067       0.00000207       0.00000022
Na       4.42128118       3.12631912       7.65788204      -0.00000047      -0.00000022       0.00000147
Fe      -0.00000011       0.00000070       0.00000038      -0.00000497      -0.00002043      -0.00001026
O        1.52210097       1.07628622       5.10525447       0.00196901       0.00139870       0.00000136
O        4.37294047       3.09213758       5.10525458      -0.00195694      -0.00138499       0.00000200
O        3.66023152       1.07628689       3.87080440      -0.00099397       0.00140570       0.00171948
O        2.23481051       3.09213819       6.33970665       0.00099020      -0.00140235      -0.00171726
O        2.23480994       3.09213786       3.87080391       0.00099367      -0.00140877       0.00172609
O        3.66023124       1.07628659       6.33970592      -0.00099674       0.00141048      -0.00172339
