9
Lattice="6.311021947426013 1.2238186200792764e-07 3.6436702842915163 2.1036741779447357 5.950089932569282 3.643670145577204 6.365864252316458e-08 -1.2487608523296125e-07 7.287340458323067" Properties=species:S:1:pos:R:3:forces:R:3 energy=-32.787845611572266 free_energy=-32.787845611572266 stress="-0.0001092482780222781 5.4043390207425546e-08 5.537644298669875e-08 5.4043390207425546e-08 -0.00010942827793769538 -5.6850115726092554e-08 5.537644298669875e-08 -5.6850115726092554e-08 -0.00010930545249721035" pbc="T T T"
Na       2.10367397       1.48752329       3.64367050       0.00000004      -0.00000028      -0.00000007
Na       6.31102207       4.46256657      10.93101036      -0.00000012       0.00000030       0.00000016
Fe      -0.00000010      -0.00000047       0.00000018       0.00000258       0.00000870      -0.00000973
Te       1.95209617       1.38034293       7.28734038       0.00553565       0.00391702      -0.00000056
Te       6.46259985       4.56974688       7.28734046      -0.00554148      -0.00392147       0.00000088
Te       5.33497470       1.38034211       5.33423434      -0.00277376       0.00392564       0.00480587
Te       3.07972280       4.56974798       9.24044664       0.00277407      -0.00392462      -0.00480359
Te       3.07972140       4.56974744       5.33423450       0.00277124      -0.00392326       0.00480152
Te       5.33497390       1.38034302       9.24044610      -0.00276820       0.00391801      -0.00479449
