9
Lattice="5.363127958644048 1.2639930688431933e-07 3.096402734550723 1.7877092229118983 5.0564060772212045 3.096403108338549 -2.2004469962374906e-08 4.4223525585299036e-07 6.192805507214471" Properties=species:S:1:pos:R:3:forces:R:3 energy=-37.664337158203125 free_energy=-37.664337158203125 stress="-3.903639026248129e-06 6.169502686503847e-09 1.0696441066215812e-08 6.169502686503847e-09 -3.947431196138496e-06 -4.8258755214192206e-08 1.0696441066215812e-08 -4.8258755214192206e-08 -3.902013759216061e-06" pbc="T T T"
Na       1.78770923       1.26410168       3.09640288      -0.00000013       0.00000051      -0.00000006
Na       5.36312779       3.79230514       9.28920802       0.00000065      -0.00000043       0.00000004
Fe       0.00000014       0.00000011      -0.00000025      -0.00000211      -0.00000152       0.00000876
S        1.77927428       1.25813714       6.19280609       0.00013000       0.00009286      -0.00000004
S        5.37156276       3.79826930       6.19280584      -0.00012714      -0.00009012       0.00000030
S        4.47349072       1.25813698       4.63729895      -0.00006381       0.00008970       0.00011075
S        2.67734635       3.79826994       7.74831208       0.00006559      -0.00009358      -0.00011557
S        2.67734696       3.79826880       4.63729977       0.00006211      -0.00008863       0.00010937
S        4.47349057       1.25813791       7.74831163      -0.00006533       0.00009167      -0.00011361
