9
Lattice="5.602059333102965 2.0386119977232433e-07 3.2343506426492525 1.8673532379162878 5.281673068250336 3.2343507557870828 -1.222147886283667e-07 5.214604690324366e-08 6.468701496980876" Properties=species:S:1:pos:R:3:forces:R:3 energy=-31.503686904907227 free_energy=-31.503686904907227 stress="4.248406912665814e-05 -8.019062391895204e-08 1.3190295966580834e-08 -8.019062391895204e-08 4.2546460463199764e-05 -1.0636797220797689e-08 1.3190295966580834e-08 -1.0636797220797689e-08 4.2620977183105424e-05" pbc="T T T"
Na       1.86735268       1.32041881       3.23435078       0.00000028      -0.00000052      -0.00000011
Na       5.60205946       3.96125531       9.70305196       0.00000032      -0.00000073       0.00000039
Ge       0.00000037       0.00000118       0.00000217      -0.00000962      -0.00002183      -0.00003896
S        1.90239557       1.34519695       6.46870181      -0.00098282      -0.00069636      -0.00000099
S        5.56701546       3.93647522       6.46870151       0.00100315       0.00071007      -0.00000131
S        4.65086158       1.34519734       4.88187439       0.00048816      -0.00069225      -0.00084764
S        2.81855213       3.93647519       8.05552712      -0.00050804       0.00071740       0.00087661
S        2.81855227       3.93647519       4.88187424      -0.00049400       0.00069702      -0.00085777
S        4.65086054       1.34519827       8.05552741       0.00050256      -0.00071281       0.00086981
