9
Lattice="5.777440174554288 -8.095052621479058e-08 3.335606617046885 1.9258133026096975 5.447022809845152 3.3356066388490984 -4.42447454937355e-09 2.3573537955738503e-08 6.671213241757282" Properties=species:S:1:pos:R:3:forces:R:3 energy=-30.017013549804688 free_energy=-30.017013549804688 stress="0.0003351611958350986 -6.800369334314382e-08 2.3045396702059406e-08 -6.800369334314382e-08 0.0003352718485984951 -3.123938796534276e-08 2.3045396702059406e-08 -3.123938796534276e-08 0.00033517778501845896" pbc="T T T"
Na       1.92581319       1.36175574       3.33560662       0.00000037       0.00000006       0.00000015
Na       5.77744003       4.08526708      10.00682012       0.00000155       0.00000048       0.00000102
Ge      -0.00000032      -0.00000020       0.00000013       0.00000409       0.00000386      -0.00000194
Se       2.02320891       1.43062470       6.67121331       0.00854889       0.00604582      -0.00000014
Se       5.68004519       4.01639847       6.67121324      -0.00855669      -0.00605045      -0.00000019
Se       4.76583570       1.43062478       5.08775682      -0.00427599       0.00604707       0.00740683
Se       2.93741790       4.01639756       8.25466972       0.00427547      -0.00604621      -0.00740737
Se       2.93741787       4.01639774       5.08775667       0.00427710      -0.00604708       0.00740661
Se       4.76583544       1.43062506       8.25466948      -0.00427487       0.00604640      -0.00740498
