9
Lattice="4.4712920852152545 4.932297206076283e-06 2.581493962650991 1.490432318240584 4.215580195611033 2.5814992056632495 -3.830717694070096e-06 3.7126319452676666e-06 5.162994560285944" Properties=species:S:1:pos:R:3:forces:R:3 energy=-40.29615020751953 free_energy=-40.29615020751953 stress="0.00032558428938500583 -6.761817985534435e-07 -3.224119993205932e-08 -6.761817985534435e-07 0.0003260992525611073 -1.1493530394091067e-07 -3.224119993205932e-08 -1.1493530394091067e-07 0.00032618895056657493" pbc="T T T"
Na       1.49042688       1.05389634       2.58150054       0.00001119       0.00000810      -0.00000488
Na       4.47129354       3.16169610       7.74449525      -0.00001638      -0.00001501      -0.00000995
Ge      -0.00000544       0.00001220       0.00000550       0.00003449      -0.00010965      -0.00005894
O        1.53912135       1.08833626       5.16299197      -0.00247049      -0.00172007       0.00000638
O        4.42260118       3.12724816       5.16299245       0.00245237       0.00176752       0.00001180
O        3.70172164       1.08833160       3.91443651       0.00122201      -0.00172216      -0.00217026
O        2.25999049       3.12725072       6.41156296      -0.00122857       0.00176394       0.00217271
O        2.26000201       3.12724922       3.91443209      -0.00123236       0.00176090      -0.00215006
O        3.70172154       1.08833382       6.41153853       0.00122896      -0.00173348       0.00220269
