9
Lattice="6.3741084838988895 -1.2793525650920778e-08 3.6800932480489656 2.1247027724742362 6.009567494963543 3.6800933232722546 -5.6714720294605496e-08 5.202582610470416e-08 7.360186594330757" Properties=species:S:1:pos:R:3:forces:R:3 energy=-27.93998146057129 free_energy=-27.93998146057129 stress="0.00011304677900625393 -1.1599630589387289e-08 -6.991296874758746e-09 -1.1599630589387289e-08 0.00011302476923447102 -7.680416302946469e-09 -6.991296874758746e-09 -7.680416302946469e-09 0.00011301528138574213" pbc="T T T"
Na       2.12470326       1.50239212       3.68009324      -0.00000006      -0.00000015       0.00000022
Na       6.37410792       4.50717510      11.04027984      -0.00000003       0.00000017      -0.00000003
Ge      -0.00000028      -0.00000009       0.00000083       0.00000030       0.00000024      -0.00000032
Te       2.33098863       1.64825729       7.36018600       0.00390606       0.00276150      -0.00000064
Te       6.16782325       4.36131067       7.36018659      -0.00390676      -0.00276192      -0.00000015
Te       5.20861437       1.64825742       5.69878770      -0.00195320       0.00276229       0.00338301
Te       3.29019739       4.36130942       9.02158536       0.00195371      -0.00276208      -0.00338256
Te       3.29019652       4.36131001       5.69878775       0.00195349      -0.00276217       0.00338317
Te       5.20861379       1.64825819       9.02158533      -0.00195353       0.00276208      -0.00338259
