9
Lattice="5.647933589432448 2.650430034880922e-07 3.2608360642185925 1.8826446551048654 5.324923649750074 3.2608362800164206 -1.1691718217414502e-07 1.8162435899242995e-07 6.521672330943721" Properties=species:S:1:pos:R:3:forces:R:3 energy=-39.936279296875 free_energy=-39.936279296875 stress="0.00012094108387827873 -8.14623319911334e-08 -6.483542147606158e-09 -8.14623319911334e-08 0.00012091336975572631 2.73379399118312e-08 -6.483542147606158e-09 2.73379399118312e-08 0.00012109081581002101" pbc="T T T"
Na       1.88264432       1.33123144       3.26083631      -0.00000009      -0.00000047      -0.00000063
Na       5.64793403       3.99369278       9.78250869      -0.00000049       0.00000033      -0.00000022
Hf       0.00000004      -0.00000017       0.00000066      -0.00000170       0.00000110      -0.00000548
S        2.02089333       1.42898789       6.52167236       0.00193042       0.00136498       0.00000053
S        5.50968435       3.89593544       6.52167264      -0.00192887      -0.00136384       0.00000207
S        4.63748659       1.42898818       5.01098238      -0.00096318       0.00136198       0.00166754
S        2.89309201       3.89593641       8.03236217       0.00096209      -0.00136079      -0.00166774
S        2.89309124       3.89593591       5.01098116       0.00096415      -0.00136389       0.00167127
S        4.63748659       1.42898845       8.03236226      -0.00096251       0.00136049      -0.00166735
