9
Lattice="5.86062374543265 -3.1957883048845303e-07 3.3836330329325626 1.9535409386222913 5.5254486304569825 3.3836330477475696 9.266308584090222e-08 8.366732280778207e-08 6.767265905368009" Properties=species:S:1:pos:R:3:forces:R:3 energy=-37.48863220214844 free_energy=-37.48863220214844 stress="-0.0002586692862678319 -1.6084786125247774e-07 -9.103906961627217e-09 -1.6084786125247774e-07 -0.00025845711934380233 3.818945870648349e-08 -9.103906961627217e-09 3.818945870648349e-08 -0.0002583904133643955" pbc="T T T"
Na       1.95354138       1.38136226       3.38363312      -0.00000083      -0.00000015       0.00000039
Na       5.86062354       4.14408663      10.15089895      -0.00000093      -0.00000022       0.00000067
Hf      -0.00000385       0.00000012       0.00000145       0.00002147      -0.00000191      -0.00000974
Se       2.15057162       1.52068352       6.76726652      -0.00525219      -0.00371068       0.00000186
Se       5.66359571       4.00476526       6.76726621       0.00524760       0.00371280       0.00000264
Se       4.78533789       1.52068371       5.24608251       0.00262432      -0.00371628      -0.00455204
Se       3.02882756       4.00476423       8.28844781      -0.00263202       0.00371674       0.00455300
Se       3.02882753       4.00476406       5.24608276      -0.00263230       0.00371645      -0.00455054
Se       4.78533778       1.52068377       8.28844863       0.00262484      -0.00371683       0.00455369
