9
Lattice="5.026249470087944 -2.4704781965986147e-06 2.901911615517993 1.6754137894951988 4.73879638235627 2.9019122587071577 -6.899719187827713e-08 7.38953307609742e-07 5.803823350543597" Properties=species:S:1:pos:R:3:forces:R:3 energy=-49.73632049560547 free_energy=-49.73632049560547 stress="-0.0002687314699869603 -7.517214726249222e-07 2.016074063249107e-07 -7.517214726249222e-07 -0.00026822835206985474 -4.0533416267862776e-07 2.016074063249107e-07 -4.0533416267862776e-07 -0.00026790410629473627" pbc="T T T"
Na       1.67541599       1.18469679       2.90191205      -0.00000421      -0.00000334       0.00000009
Na       5.02624806       3.55409587       8.70573548       0.00000477      -0.00000601       0.00000138
Hf      -0.00000048      -0.00000245       0.00000416       0.00001088      -0.00000837      -0.00006095
O        1.66321933       1.17608044       5.80382246      -0.00087708      -0.00061822      -0.00000508
O        5.03843886       3.56271746       5.80382239       0.00087243       0.00062031      -0.00000469
O        4.19464053       1.17607311       4.34230678       0.00043857      -0.00062144      -0.00075996
O        2.50702521       3.56271691       7.26533720      -0.00046563       0.00065854       0.00080383
O        2.50702786       3.56271897       4.34231139      -0.00045195       0.00064403      -0.00078776
O        4.19463763       1.17608002       7.26533831       0.00047255      -0.00066534       0.00081384
