9
Lattice="6.509690196234084 1.5807507091213352e-07 3.75837129534039 2.169896916460224 6.137394946364148 3.758371234116573 1.3469237916129424e-08 -6.545938416001107e-08 7.516742567351389" Properties=species:S:1:pos:R:3:forces:R:3 energy=-35.824466705322266 free_energy=-35.824466705322266 stress="1.0935646059806459e-05 1.2922236614087979e-09 2.2561168488977046e-09 1.2922236614087979e-09 1.0928791198239196e-05 -1.5661470342820394e-08 2.2561168488977046e-09 -1.5661470342820394e-08 1.093221453629667e-05" pbc="T T T"
Na       2.16989695       1.53434874       3.75837149       0.00000013       0.00000006       0.00000005
Na       6.50969017       4.60304631      11.27511355      -0.00000014       0.00000001      -0.00000020
Hf       0.00000014      -0.00000017      -0.00000002      -0.00000105       0.00000055       0.00000020
Te       2.33506282       1.65113871       7.51674256      -0.00007277      -0.00005137       0.00000067
Te       6.34452433       4.48625621       7.51674256       0.00007094       0.00005072       0.00000011
Te       5.34215891       1.65113874       5.78059500       0.00003704      -0.00005141      -0.00006244
Te       3.33742813       4.48625655       9.25289038      -0.00003472       0.00005018       0.00006074
Te       3.33742804       4.48625629       5.78059466      -0.00003583       0.00005180      -0.00006199
Te       5.34215896       1.65113880       9.25289021       0.00003635      -0.00005040       0.00006296
