9
Lattice="5.75395499118577 7.459705040069629e-09 3.3220480577095395 1.9179850825699591 5.424881004287884 3.322047921786928 8.613938139689929e-08 -1.0556073290291963e-07 6.644095966221234" Properties=species:S:1:pos:R:3:forces:R:3 energy=-35.021484375 free_energy=-35.021484375 stress="4.550019366433844e-05 -3.2571300323525065e-08 6.371423388884523e-09 -3.2571300323525065e-08 4.551614256342873e-05 -2.8786207195707902e-08 6.371423388884523e-09 -2.8786207195707902e-08 4.547575008473359e-05" pbc="T T T"
Na       1.91798506       1.35622028       3.32204805      -0.00000124      -0.00000036       0.00000078
Na       5.75395506       4.06866068       9.96614396      -0.00000004       0.00000014       0.00000021
Ir       0.00000028       0.00000027       0.00000063       0.00000039      -0.00000143      -0.00000365
Se       2.02884815       1.43461233       6.64409583       0.00010765       0.00007665      -0.00000014
Se       5.64309268       3.99026897       6.64409590      -0.00010817      -0.00007712       0.00000018
Se       4.73953059       1.43461196       5.07908175      -0.00005361       0.00007650       0.00009420
Se       2.93240941       3.99026824       8.20910990       0.00005319      -0.00007428      -0.00009244
Se       2.93240928       3.99026840       5.07908185       0.00005343      -0.00007476       0.00009294
Se       4.73953011       1.43461253       8.20910991      -0.00005165       0.00007465      -0.00009210
