9
Lattice="5.456299922612181 -9.662258586090276e-08 3.150196167063575 1.8187666225280203 5.144248330927611 3.1501960410501386 1.868558257988911e-07 -2.2207378659379054e-08 6.300392010483334" Properties=species:S:1:pos:R:3:forces:R:3 energy=-37.0738639831543 free_energy=-37.0738639831543 stress="-2.2592410459765233e-05 2.7372580646556344e-08 -3.282594640552361e-09 2.7372580646556344e-08 -2.2581982193514705e-05 3.432987227824924e-08 -3.282594640552361e-09 3.432987227824924e-08 -2.267577474412974e-05" pbc="T T T"
Na       1.81876672       1.28606207       3.15019630       0.00000040      -0.00000075      -0.00000028
Na       5.45629992       3.85818615       9.45058804       0.00000005       0.00000003      -0.00000007
Ir      -0.00000043       0.00000054       0.00000022      -0.00000167       0.00000278       0.00000083
S        1.88155878       1.33046272       6.30039184      -0.00199562      -0.00141025      -0.00000025
S        5.39350853       3.81378533       6.30039180       0.00199413       0.00141126      -0.00000007
S        4.51552109       1.33046238       4.77967336       0.00099847      -0.00141180      -0.00172830
S        2.75954590       3.81378558       7.82111157      -0.00099626       0.00140929       0.00172645
S        2.75954561       3.81378601       4.77967284      -0.00099632       0.00140935      -0.00172508
S        4.51552092       1.33046213       7.82111084       0.00099728      -0.00140983       0.00172722
