9
Lattice="5.029332998585436 1.4345145187341792e-07 2.903687426847669 1.6764445125628389 4.741701363546952 2.9036873498516194 -2.223684843677273e-09 -9.587288418144768e-08 5.807374857546631" Properties=species:S:1:pos:R:3:forces:R:3 energy=-45.66859436035156 free_energy=-45.66859436035156 stress="9.21725804801099e-05 8.122378858388402e-08 -1.602113641752112e-08 8.122378858388402e-08 9.217036858899519e-05 2.114380137641092e-08 -1.602113641752112e-08 2.114380137641092e-08 9.206592221744359e-05" pbc="T T T"
Na       1.67644427       1.18542518       2.90368728      -0.00000161       0.00000101       0.00000041
Na       5.02933337       3.55627611       8.71106212       0.00000074      -0.00000088       0.00000036
Ir      -0.00000056       0.00000025       0.00000025       0.00000142       0.00000115      -0.00000948
O        1.53168481       1.08306516       5.80737475      -0.00099283      -0.00070387      -0.00000041
O        5.17409268       3.65863544       5.80737463       0.00099349       0.00070596      -0.00000083
O        4.26349142       1.08306497       4.23016602       0.00049213      -0.00069970      -0.00085676
O        2.44228612       3.65863659       7.38458446      -0.00049499       0.00070173       0.00085837
O        2.44228614       3.65863668       4.23016514      -0.00049180       0.00069696      -0.00085294
O        4.26349149       1.08306549       7.38458494       0.00049415      -0.00070226       0.00086087
