9
Lattice="5.768374243233694 1.409357694921521e-07 3.3303721491035465 1.9227914620741817 5.438475677611511 3.330372296696139 -6.676099292642187e-08 1.335561294765895e-07 6.660744413840511" Properties=species:S:1:pos:R:3:forces:R:3 energy=-36.189117431640625 free_energy=-36.189117431640625 stress="2.2650083337794058e-05 1.8461665973745767e-08 -3.151836125425689e-08 1.8461665973745767e-08 2.263313945150003e-05 7.52568585227209e-09 -3.151836125425689e-08 7.52568585227209e-09 2.2639269445789978e-05" pbc="T T T"
Na       1.92279125       1.35961899       3.33037222       0.00000044       0.00000048       0.00000018
Na       5.76837412       4.07885703       9.99111664      -0.00000052      -0.00000017       0.00000081
Mn       0.00000012       0.00000059      -0.00000025      -0.00000746      -0.00000566       0.00000007
Se       1.91051032       1.35093424       6.66074452      -0.00110921      -0.00078321      -0.00000046
Se       5.78065518       4.08754082       6.66074448       0.00111675       0.00078997      -0.00000043
Se       4.81311931       1.35093423       4.98492280       0.00055604      -0.00078666      -0.00096416
Se       2.87804672       4.08754141       8.33656612      -0.00055633       0.00078687       0.00096285
Se       2.87804646       4.08754186       4.98492258      -0.00055549       0.00078458      -0.00096133
Se       4.81311908       1.35093460       8.33656624       0.00055562      -0.00078589       0.00096270
