9
Lattice="5.908341522263862 8.01617497116684e-09 3.411182736403864 1.969447162194099 5.570437874191706 3.411182770094814 3.989563269725431e-08 6.94733920135478e-08 6.822365403706336" Properties=species:S:1:pos:R:3:forces:R:3 energy=-38.141666412353516 free_energy=-38.141666412353516 stress="-2.1911921066930518e-05 -6.928890883273198e-08 -3.6587486818007164e-08 -6.928890883273198e-08 -2.186096207879018e-05 5.0705914134141494e-08 -3.6587486818007164e-08 5.0705914134141494e-08 -2.181758827646263e-05" pbc="T T T"
Na       1.96944716       1.39260949       3.41118278      -0.00000033       0.00000017       0.00000001
Na       5.90834154       4.17782849      10.23354821       0.00000010       0.00000025       0.00000040
Mo       0.00000021      -0.00000008       0.00000023       0.00000387       0.00000111      -0.00000098
Se       1.97628935       1.39744763       6.82236523       0.00040123       0.00028285      -0.00000031
Se       5.90149970       4.17299065       6.82236527      -0.00040549      -0.00028771      -0.00000002
Se       4.92019658       1.39744757       5.12269981      -0.00019780       0.00028080       0.00034413
Se       2.95759202       4.17298995       8.52203108       0.00019793      -0.00027880      -0.00034210
Se       2.95759176       4.17299028       5.12269966       0.00020035      -0.00028247       0.00034606
Se       4.92019668       1.39744780       8.52203134      -0.00019976       0.00028373      -0.00034729
