9
Lattice="6.112853432014432 -6.569001340965284e-07 3.529257505570678 2.037617044971368 5.763254446826692 3.529257759088945 -1.1192086925407583e-07 2.31354968359648e-07 7.0585152049941176" Properties=species:S:1:pos:R:3:forces:R:3 energy=-33.082130432128906 free_energy=-33.082130432128906 stress="-0.0003073076659347862 -6.93134722951072e-08 -8.72514061001084e-09 -6.93134722951072e-08 -0.0003072657564189285 1.577843988798122e-08 -8.72514061001084e-09 1.577843988798122e-08 -0.0003071925020776689" pbc="T T T"
Na       2.03761751       1.44081326       3.52925726      -0.00000075      -0.00000104       0.00000028
Na       6.11285305       4.32244059      10.58777313      -0.00000024       0.00000082      -0.00000069
Mn       0.00000046       0.00000043       0.00000139      -0.00000016      -0.00000365      -0.00000503
Te       2.09205281       1.47930657       7.05851504      -0.00138110      -0.00097747       0.00000046
Te       6.05841868       4.28394911       7.05851449       0.00138143       0.00097743       0.00000116
Te       5.06682483       1.47930663       5.34102956       0.00069442      -0.00098132      -0.00120004
Te       3.08364416       4.28394666       8.77600061      -0.00069460       0.00098421       0.00120351
Te       3.08364473       4.28394690       5.34102972      -0.00069332       0.00098161      -0.00120087
Te       5.06682520       1.47930595       8.77600073       0.00069438      -0.00098057       0.00120123
