9
Lattice="5.449367772203741 2.280768388646967e-08 3.1461940902558343 1.8164558626316525 5.137714260050477 3.1461942339108244 1.1173633216376878e-08 1.838418573366172e-07 6.292388161158204" Properties=species:S:1:pos:R:3:forces:R:3 energy=-38.75919723510742 free_energy=-38.75919723510742 stress="-6.503163604065776e-05 -2.3272141902452859e-07 2.0326833549688672e-08 -2.3272141902452859e-07 -6.489913357654586e-05 -2.9629818598664315e-08 2.0326833549688672e-08 -2.9629818598664315e-08 -6.46305488771759e-05" pbc="T T T"
Na       1.81645517       1.28442851       3.14619480       0.00000154       0.00000026      -0.00000032
Na       5.44936810       3.85328627       9.43858285      -0.00000070      -0.00000101       0.00000008
Mn       0.00000045       0.00000097       0.00000149       0.00000192      -0.00001208      -0.00003019
S        1.80191799       1.27414797       6.29238839       0.00434434       0.00307077      -0.00000175
S        5.46390656       3.86356623       6.29238864      -0.00433999      -0.00306892      -0.00000228
S        4.54840969       1.27414763       4.70670134      -0.00217253       0.00307214       0.00376177
S        2.71741536       3.86356441       7.87807277       0.00215635      -0.00304943      -0.00373739
S        2.71741475       3.86356588       4.70670212       0.00216857      -0.00306529       0.00375390
S        4.54840767       1.27414970       7.87807323      -0.00215971       0.00305390      -0.00374389
