9
Lattice="6.389783306155472 5.6737974495065525e-08 3.689142873147112 2.1299278602450107 6.024345166192769 3.6891428072712418 8.984656030384585e-08 -1.7149963777722573e-08 7.37828559067542" Properties=species:S:1:pos:R:3:forces:R:3 energy=-35.15032958984375 free_energy=-35.15032958984375 stress="-4.3216881749685854e-05 2.2321561488070074e-08 1.8860490058614232e-08 2.2321561488070074e-08 -4.3222182284807786e-05 -2.1564225960446493e-08 1.8860490058614232e-08 -2.1564225960446493e-08 -4.3237083446001634e-05" pbc="T T T"
Na       2.12992829       1.50608654       3.68914269       0.00000008      -0.00000014       0.00000003
Na       6.38978373       4.51825877      11.06742856      -0.00000013      -0.00000013       0.00000005
Nb       0.00000011       0.00000024      -0.00000107      -0.00000145      -0.00000114       0.00000615
Te       2.25748998       1.59628689       7.37828550       0.00719391       0.00508726       0.00000031
Te       6.26222099       4.42805833       7.37828565      -0.00719403      -0.00508624       0.00000044
Te       5.26103801       1.59628617       5.64418655      -0.00359705       0.00508776       0.00623047
Te       3.25867256       4.42805927       9.11238539       0.00360062      -0.00509100      -0.00623520
Te       3.25867300       4.42805894       5.64418676       0.00359661      -0.00508624       0.00622966
Te       5.26103834       1.59628570       9.11238505      -0.00359845       0.00508984      -0.00623192
