9
Lattice="5.880804186302178 1.4527527046704138e-07 3.3952836146766616 1.9602681734196648 5.54447467313653 3.395283659100194 -4.703816984064651e-08 2.114635721015957e-08 6.790567310825743" Properties=species:S:1:pos:R:3:forces:R:3 energy=-38.02171325683594 free_energy=-38.02171325683594 stress="-1.080045331036672e-05 8.102912119056782e-08 1.6232210242606016e-08 8.102912119056782e-08 -1.0771055713121314e-05 1.976730307218233e-10 1.6232210242606016e-08 1.976730307218233e-10 -1.0896506864810362e-05" pbc="T T T"
Na       1.96026797       1.38611863       3.39528371       0.00000016      -0.00000027       0.00000028
Na       5.88080408       4.15835597      10.18585082      -0.00000034      -0.00000021       0.00000030
Nb      -0.00000013       0.00000047       0.00000026       0.00000257      -0.00000313      -0.00000309
Se       2.04842206       1.44845323       6.79056718       0.00036869       0.00026118       0.00000043
Se       5.79265070       4.09602186       6.79056720      -0.00036936      -0.00026157      -0.00000095
Se       4.85659329       1.44845256       5.16926837      -0.00018799       0.00026589       0.00032637
Se       2.98447877       4.09602182       8.41186591       0.00018640      -0.00026301      -0.00032251
Se       2.98447900       4.09602202       5.16926843       0.00018703      -0.00026407       0.00032297
Se       4.85659349       1.44845292       8.41186642      -0.00018717       0.00026517      -0.00032394
