9
Lattice="5.522437858691981 2.3629884343425744e-07 3.188380456459128 1.8408127701974466 5.206605019689564 3.1883805814287998 -3.2147375859115376e-08 1.3032421210039055e-07 6.376760968599233" Properties=species:S:1:pos:R:3:forces:R:3 energy=-41.376766204833984 free_energy=-41.376766204833984 stress="-2.5411654860363342e-05 2.635038640619314e-07 -5.598418617580592e-09 2.635038640619314e-07 -2.5647581423982047e-05 6.083902714948408e-09 -5.598418617580592e-09 6.083902714948408e-09 -2.5744921003933996e-05" pbc="T T T"
Na       1.84081243       1.30165105       3.18837992      -0.00000002       0.00000027      -0.00000026
Na       5.52243802       3.90495384       9.56514168       0.00000004      -0.00000017      -0.00000032
Nb       0.00000126       0.00000013      -0.00000132      -0.00001679       0.00000091       0.00001953
S        1.92976319       1.36454771       6.37676152      -0.00094286      -0.00066563      -0.00000030
S        5.43348676       3.84205725       6.37676125       0.00095400       0.00067514       0.00000125
S        4.55755774       1.36454813       4.85960386       0.00047186      -0.00066820      -0.00081736
S        2.80569244       3.84205861       7.89391923      -0.00046225       0.00065371       0.00080243
S        2.80569342       3.84205793       4.85960335      -0.00046992       0.00066325      -0.00081232
S        4.55755749       1.36454702       7.89391935       0.00046586      -0.00065947       0.00080776
