9
Lattice="6.098982218558114 4.151304646659886e-06 3.521248821564403 2.0329956362720663 5.75018149431135 3.521252892694449 -3.1440578151942205e-06 2.762911913610882e-06 7.042503088795498" Properties=species:S:1:pos:R:3:forces:R:3 energy=-29.609861373901367 free_energy=-29.609861373901367 stress="-0.00015441709547303617 1.0623804058695896e-07 -2.824178295668389e-07 1.0623804058695896e-07 -0.00015450212231371552 3.958026582040475e-07 -2.824178295668389e-07 3.958026582040475e-07 -0.00015458549023605883" pbc="T T T"
Na       2.03299222       1.43754734       3.52125057       0.00000610      -0.00000251       0.00000137
Na       6.09898242       4.31264236      10.56375417      -0.00000672       0.00000060       0.00000463
Ni       0.00000337      -0.00000334      -0.00001358      -0.00001880       0.00002580       0.00007016
Te       2.12222956       1.50065781       7.04250415      -0.00035451      -0.00025117      -0.00000677
Te       6.00974712       4.24953286       7.04250932       0.00035454       0.00024851      -0.00000517
Te       5.03786457       1.50065208       5.35916859       0.00019267      -0.00027038      -0.00033620
Te       3.09410771       4.24953442       8.72584135      -0.00017105       0.00024301       0.00029222
Te       3.09409989       4.24954179       5.35915728      -0.00016605       0.00023364      -0.00029387
Te       5.03787284       1.50064961       8.72584673       0.00016381      -0.00022753       0.00027361
