9
Lattice="5.741555817973803 -1.029545900432426e-07 3.3148888111811683 1.913851831737678 5.413190694955152 3.314888829402988 5.1154284074497184e-08 5.848861788967516e-08 6.629777533760499" Properties=species:S:1:pos:R:3:forces:R:3 energy=-37.09930419921875 free_energy=-37.09930419921875 stress="1.739671097311657e-05 -2.44061357790315e-08 -8.192479583613022e-09 -2.44061357790315e-08 1.743126085784752e-05 3.9262365580938763e-10 -8.192479583613022e-09 3.9262365580938763e-10 1.7480839233030565e-05" pbc="T T T"
Na       1.91385192       1.35329767       3.31488878       0.00000035       0.00000021       0.00000031
Na       5.74155577       4.05989297       9.94466630      -0.00000021       0.00000051       0.00000026
Os       0.00000028       0.00000022       0.00000113      -0.00000050      -0.00000087      -0.00000393
Se       2.01215406       1.42280788       6.62977751       0.00071239       0.00050345      -0.00000030
Se       5.64325359       3.99038290       6.62977744      -0.00071296      -0.00050369      -0.00000038
Se       4.73547869       1.42280811       5.05746565      -0.00035490       0.00050294       0.00061548
Se       2.91992931       3.99038238       8.20208928       0.00035477      -0.00050133      -0.00061381
Se       2.91992871       3.99038235       5.05746564       0.00035580      -0.00050306       0.00061643
Se       4.73547850       1.42280815       8.20208906      -0.00035462       0.00050181      -0.00061423
