9
Lattice="4.804429137990668 -2.470467327500715e-07 2.7738394316917323 1.6014761229257795 4.529659625817023 2.7738394723715722 -2.286924518588401e-08 3.365152750172223e-08 5.547678902994216" Properties=species:S:1:pos:R:3:forces:R:3 energy=-50.98603057861328 free_energy=-50.98603057861328 stress="-0.00017284409841522574 -3.7718429268807085e-08 9.063908734674442e-09 -3.7718429268807085e-08 -0.00017301573825534433 -1.0694456875626202e-07 9.063908734674442e-09 -1.0694456875626202e-07 -0.0001729748910292983" pbc="T T T"
Na       1.60147643       1.13241502       2.77383978       0.00000106      -0.00000036       0.00000009
Na       4.80442936       3.39724433       8.32151844       0.00000100       0.00000039      -0.00000032
Os       0.00000089      -0.00000052       0.00000033       0.00000112       0.00000868      -0.00000423
O        1.51494853       1.07123014       5.54767903       0.00397146       0.00281453      -0.00000240
O        4.89095682       3.45843060       5.54767878      -0.00398707      -0.00281906      -0.00000245
O        4.04695408       1.07122912       4.08582297      -0.00198865       0.00281799       0.00344467
O        2.35895020       3.45842929       7.00953492       0.00198841      -0.00281143      -0.00344837
O        2.35894977       3.45843006       4.08582300       0.00199443      -0.00281829       0.00345218
O        4.04695372       1.07122981       7.00953454      -0.00198197       0.00280762      -0.00343704
