9
Lattice="5.578567695259629 2.886532635051878e-07 3.2207873115262275 1.859522750576919 5.259524594796824 3.220787461616254 -1.858825183932437e-09 1.8250760505503782e-07 6.441574626271937" Properties=species:S:1:pos:R:3:forces:R:3 energy=-33.65354537963867 free_energy=-33.65354537963867 stress="-0.00016160367522388697 3.831992501091008e-08 -3.5600717041006646e-08 3.831992501091008e-08 -0.00016170427261386067 8.6199332116621e-09 -3.5600717041006646e-08 8.6199332116621e-09 -0.00016177361248992383" pbc="T T T"
Na       1.85952272       1.31488139       3.22078753       0.00000074       0.00000047       0.00000059
Na       5.57856774       3.94464427       9.66236218      -0.00000030       0.00000014       0.00000042
P        0.00000035      -0.00000001      -0.00000047      -0.00001648       0.00000676       0.00000327
S        1.77486466       1.25501906       6.44157466      -0.00268841      -0.00189984      -0.00000074
S        5.66322572       4.00450528       6.44157464       0.00269389       0.00190532      -0.00000101
S        4.69113546       1.25501887       4.75786596       0.00134772      -0.00190520      -0.00233269
S        2.74695510       4.00450608       8.12528488      -0.00134104       0.00189728       0.00232267
S        2.74695457       4.00450592       4.75786435      -0.00134110       0.00189704      -0.00232184
S        4.69113552       1.25501964       8.12528403       0.00134480      -0.00190151       0.00233066
