9
Lattice="5.669994484036615 -8.834217781241252e-08 3.273572733583078 1.8899980981758178 5.345722099467914 3.273572698734053 4.532553857583721e-08 -1.0631174516212759e-08 6.547145388659978" Properties=species:S:1:pos:R:3:forces:R:3 energy=-31.708236694335938 free_energy=-31.708236694335938 stress="-0.00014854921028017998 7.522279465987936e-10 -2.4679114307701866e-09 7.522279465987936e-10 -0.00014857474889140576 -4.659343133539551e-08 -2.4679114307701866e-09 -4.659343133539551e-08 -0.0001485146494815126" pbc="T T T"
Na       1.88999813       1.33643054       3.27357267       0.00000056      -0.00000067       0.00000030
Na       5.66999448       4.00929139       9.82071793      -0.00000009       0.00000018       0.00000032
P       -0.00000016       0.00000019      -0.00000030      -0.00000437      -0.00000054      -0.00000225
Se       1.87948632       1.32899686       6.54714545       0.00490019       0.00346443      -0.00000023
Se       5.68050611       4.01672427       6.54714513      -0.00489715      -0.00346357      -0.00000040
Se       4.73025183       1.32899715       4.90125566      -0.00244917       0.00346458       0.00424302
Se       2.82974186       4.01672425       8.19303602       0.00244956      -0.00346434      -0.00424215
Se       2.82974132       4.01672506       4.90125540       0.00244825      -0.00346264       0.00424111
Se       4.73025056       1.32899814       8.19303540      -0.00244786       0.00346267      -0.00423962
