9
Lattice="5.736148651744682 3.8991922368343216e-07 3.3117669102850393 1.9120498540571729 5.4080932197065215 3.311767021385238 3.026744785230946e-08 1.5747167774578733e-07 6.623533768145364" Properties=species:S:1:pos:R:3:forces:R:3 energy=-32.64494323730469 free_energy=-32.64494323730469 stress="1.0720789759943727e-05 7.104048194150892e-08 -7.931772572078444e-09 7.104048194150892e-08 1.0664292858564295e-05 5.172100525641099e-09 -7.931772572078444e-09 5.172100525641099e-09 1.0601337635307573e-05" pbc="T T T"
Na       1.91204959       1.35202359       3.31176693      -0.00000085      -0.00000132      -0.00000040
Na       5.73614903       4.05607032       9.93530091      -0.00000003      -0.00000052      -0.00000021
Pt       0.00000151       0.00000013       0.00000245      -0.00001893       0.00000067      -0.00002880
Se       2.01074915       1.42181349       6.62353363       0.00106121       0.00075033       0.00000119
Se       5.63744892       3.98627956       6.62353368      -0.00105023      -0.00074228       0.00000153
Se       4.73077452       1.42181406       5.05312575      -0.00053075       0.00075224       0.00092313
Se       2.91742371       3.98627903       8.19394178       0.00052880      -0.00074714      -0.00091536
Se       2.91742328       3.98627960       5.05312465       0.00053563      -0.00075645       0.00092908
Se       4.73077444       1.42181525       8.19394099      -0.00052481       0.00074447      -0.00091016
