9
Lattice="5.085927202823913 -1.1212351790699958e-06 2.9363625737099035 1.6953074905734404 4.795060660617803 2.9363634742514226 -1.604342097637001e-07 9.894907380080787e-07 5.872725425294413" Properties=species:S:1:pos:R:3:forces:R:3 energy=-39.460105895996094 free_energy=-39.460105895996094 stress="0.0003024006146006286 1.385672817377781e-06 -1.093307275823463e-07 1.385672817377781e-06 0.00030146801145747304 6.209220515529523e-08 -1.093307275823463e-07 6.209220515529523e-08 0.00030057167168706656" pbc="T T T"
Na       1.69531042       1.19876742       2.93636817       0.00000438       0.00001026       0.00001412
Na       5.08592404       3.59629670       8.80908793       0.00000407       0.00001173       0.00000911
Pd       0.00000296       0.00000833       0.00000380       0.00010865      -0.00024887       0.00101084
O        1.48265427       1.04839179       5.87271631      -0.00284004      -0.00200456       0.00003947
O        5.29859411       3.74667090       5.87271950       0.00282550       0.00200033       0.00003019
O        4.34459033       1.04839216       4.22037464       0.00152308      -0.00212610      -0.00258529
O        2.43661755       3.74667998       7.52508226      -0.00121701       0.00173634       0.00215244
O        2.43663398       3.74665743       4.22036852      -0.00156552       0.00223953      -0.00269979
O        4.34460885       1.04837602       7.52507687       0.00115669      -0.00161844       0.00202888
