9
Lattice="5.75997611823795 3.1483588549363167e-07 3.325523755187977 1.9199923413577793 5.430557640069666 3.3255237463286513 1.463505593721377e-07 9.263510409825647e-08 6.651047256889314" Properties=species:S:1:pos:R:3:forces:R:3 energy=-31.32601547241211 free_energy=-31.32601547241211 stress="2.1615010155073833e-06 1.0123766003289347e-07 -5.591379359515258e-09 1.0123766003289347e-07 2.089486315526301e-06 -6.037523370139297e-09 -5.591379359515258e-09 -6.037523370139297e-09 2.029923507507192e-06" pbc="T T T"
Na       1.91999205       1.35763957       3.32552372       0.00000006       0.00000030      -0.00000078
Na       5.75997646       4.07291856       9.97657103       0.00000014       0.00000124      -0.00000028
Pd       0.00000065      -0.00000078      -0.00000201      -0.00000632       0.00000613       0.00001827
Se       2.05922349       1.45609125       6.65104750       0.00096747       0.00068304      -0.00000161
Se       5.62074487       3.97446675       6.65104769      -0.00096568      -0.00068384      -0.00000154
Se       4.73036502       1.45609072       5.10886312      -0.00048390       0.00068299       0.00083604
Se       2.94960307       3.97446837       8.19323276       0.00048754      -0.00068989      -0.00084561
Se       2.94960370       3.97446742       5.10886301       0.00048552      -0.00068614       0.00083776
Se       4.73036510       1.45609042       8.19323228      -0.00048488       0.00068624      -0.00084226
