9
Lattice="6.70329740411026 -1.2405545533338726e-07 3.8701505044833655 2.2344323662293633 6.319929177403883 3.8701504782371523 3.5916405418935816e-09 -2.9605224543326347e-08 7.740301002745815" Properties=species:S:1:pos:R:3:forces:R:3 energy=-26.973285675048828 free_energy=-26.973285675048828 stress="-3.053500404348597e-05 1.3994997161148603e-08 -9.006317913673456e-11 1.3994997161148603e-08 -3.05371213471517e-05 2.471967519568352e-09 -9.006317913673456e-11 2.471967519568352e-09 -3.053385080420412e-05" pbc="T T T"
Na       2.23443229       1.57998220       3.87015057      -0.00000004       0.00000006       0.00000002
Na       6.70329741       4.73994680      11.61045151       0.00000000      -0.00000014       0.00000008
Pb       0.00000025       0.00000008      -0.00000053      -0.00000082       0.00000009       0.00000133
Te       2.55368637       1.80572894       7.74030108       0.00055508       0.00039236       0.00000006
Te       6.38404331       4.51419998       7.74030100      -0.00055437      -0.00039206      -0.00000023
Te       5.42645437       1.80572876       6.08170789      -0.00027692       0.00039227       0.00048076
Te       3.51127534       4.51420050       9.39889418       0.00027735      -0.00039242      -0.00048099
Te       3.51127547       4.51420034       6.08170808       0.00027721      -0.00039244       0.00048040
Te       5.42645433       1.80572846       9.39889420      -0.00027751       0.00039226      -0.00048138
