9
Lattice="5.519513245127729 -8.997441117408513e-09 3.1866928873137734 1.83983764193771 5.203847189886076 3.1866930569773224 -1.1305412067716418e-07 1.278533353136661e-07 6.373385970443115" Properties=species:S:1:pos:R:3:forces:R:3 energy=-32.42015075683594 free_energy=-32.42015075683594 stress="0.0001729375362629071 -3.12003733959898e-09 2.0363868813433328e-08 -3.12003733959898e-09 0.00017292483244091272 -1.8338869978151706e-08 2.0363868813433328e-08 -1.8338869978151706e-08 0.00017292126722168177" pbc="T T T"
Na       1.83983797       1.30096173       3.18669270      -0.00000010       0.00000045       0.00000010
Na       5.51951326       3.90288538       9.56007927       0.00000004       0.00000019      -0.00000058
Pd       0.00000009      -0.00000015      -0.00000019      -0.00000253       0.00000092       0.00000365
S        1.91754447       1.35590917       6.37338554       0.00387359       0.00273895      -0.00000046
S        5.44180530       3.84793798       6.37338561      -0.00387222      -0.00273752       0.00000006
S        4.56074064       1.35590900       4.84733582      -0.00193599       0.00273836       0.00335288
S        2.79861017       3.84793836       7.89943664       0.00193724      -0.00274020      -0.00335485
S        2.79861018       3.84793820       4.84733596       0.00193641      -0.00273883       0.00335312
S        4.56074066       1.35590941       7.89943632      -0.00193632       0.00273800      -0.00335389
