9
Lattice="6.018516854417056 -1.8697731913415026e-07 3.4747915634096316 2.0061720198291817 5.674311465611679 3.4747917170296376 -2.7892051601343837e-07 -9.08124188574791e-09 6.9495836099237325" Properties=species:S:1:pos:R:3:forces:R:3 energy=-28.623382568359375 free_energy=-28.623382568359375 stress="-4.2602074245223776e-05 4.9504588872650857e-08 4.2428244029224516e-08 4.9504588872650857e-08 -4.245583841111511e-05 4.563784017364014e-09 4.2428244029224516e-08 4.563784017364014e-09 -4.2411538743181154e-05" pbc="T T T"
Na       2.00617220       1.41857790       3.47479166      -0.00000082       0.00000048      -0.00000064
Na       6.01851666       4.25573340      10.42437508       0.00000068      -0.00000048       0.00000052
Pb      -0.00000002      -0.00000010       0.00000000      -0.00000080      -0.00000041      -0.00000037
Se       2.37636358       1.68034346       6.94958443      -0.00235493      -0.00166142       0.00000409
Se       5.64832506       3.99396733       6.94958368       0.00235412       0.00165944       0.00000063
Se       4.83033531       1.68034370       5.53278337       0.00118044      -0.00166208      -0.00203648
Se       3.19435282       3.99396843       8.36638318      -0.00118017       0.00166395       0.00203468
Se       3.19435373       3.99396820       5.53278354      -0.00117755       0.00166431      -0.00203604
Se       4.83033500       1.68034277       8.36638256       0.00117905      -0.00166386       0.00203361
