9
Lattice="5.442681591720967 2.8671532715203972e-08 3.142333597744103 1.814227115812959 5.1314103633514465 3.142333785600775 -4.2000370658519866e-08 2.0037785352386861e-07 6.284667268234888" Properties=species:S:1:pos:R:3:forces:R:3 energy=-34.36927032470703 free_energy=-34.36927032470703 stress="0.00036200121394358575 -4.561207944675516e-08 9.194653038946399e-09 -4.561207944675516e-08 0.000362002057954669 -1.8300816861938074e-08 9.194653038946399e-09 -1.8300816861938074e-08 0.0003620627976488322" pbc="T T T"
Na       1.81422704       1.28285272       3.14233364      -0.00000005      -0.00000032      -0.00000029
Na       5.44268152       3.84855803       9.42700102       0.00000025       0.00000011      -0.00000014
Pt       0.00000122      -0.00000016       0.00000138      -0.00001576       0.00000069      -0.00001707
S        1.87332370       1.32464059       6.28466733      -0.00112653      -0.00079784      -0.00000022
S        5.38358417       3.80677008       6.28466734       0.00113726       0.00080428      -0.00000005
S        4.50601928       1.32464048       4.76468010       0.00056624      -0.00080138      -0.00098062
S        2.75088968       3.80676951       7.80465419      -0.00056899       0.00080481       0.00098640
S        2.75088913       3.80676986       4.76468031      -0.00056410       0.00079826      -0.00097835
S        4.50601891       1.32464131       7.80465343       0.00057149      -0.00080866       0.00099039
