9
Lattice="4.4336733636153705 1.3238392271199762e-07 2.5597823904917276 1.4778913127086284 4.18010707840162 2.5597822749800323 5.8741592771613054e-08 -9.993581163157608e-08 5.119564679240058" Properties=species:S:1:pos:R:3:forces:R:3 energy=-45.657257080078125 free_energy=-45.657257080078125 stress="-5.53886238776613e-05 1.7116038009135082e-07 1.8531088130657736e-07 1.7116038009135082e-07 -5.562519436352886e-05 2.0887538809688522e-08 1.8531088130657736e-07 2.0887538809688522e-08 -5.569023414864205e-05" pbc="T T T"
Na       1.47789126       1.04502669       2.55978227      -0.00000060      -0.00000004       0.00000023
Na       4.43367353       3.13508047       7.67934700      -0.00000010      -0.00000097      -0.00000002
P        0.00000010      -0.00000036       0.00000011      -0.00000392       0.00000155      -0.00000286
O        1.37105450       0.96948220       5.11956467      -0.00003839      -0.00002706       0.00000073
O        4.54050994       3.21062516       5.11956457       0.00003839       0.00002491      -0.00000003
O        3.74814601       0.96948160       3.74714973       0.00001681      -0.00002074      -0.00002611
O        2.16341861       3.21062534       6.49197911      -0.00001621       0.00002146       0.00002778
O        2.16341834       3.21062527       3.74715008      -0.00001621       0.00002313      -0.00002921
O        3.74814591       0.96948170       6.49197908       0.00001848      -0.00002337       0.00002742
