9
Lattice="5.712098175721204 -2.1482917425527807e-07 3.297881334086743 1.9040325647793115 5.38541728085184 3.297881261198833 2.327255366028763e-08 -7.28129407014807e-08 6.595762627864226" Properties=species:S:1:pos:R:3:forces:R:3 energy=-34.05427169799805 free_energy=-34.05427169799805 stress="5.509810762305278e-06 -2.562620338153465e-08 -2.4158604006174755e-08 -2.562620338153465e-08 5.5429140957130585e-06 1.845377717302199e-08 -2.4158604006174755e-08 1.845377717302199e-08 5.537810011446709e-06" pbc="T T T"
Na       1.90403257       1.34635428       3.29788134      -0.00000078       0.00000040      -0.00000026
Na       5.71209824       4.03906264       9.89364385       0.00000011      -0.00000006       0.00000015
Rh      -0.00000057       0.00000006       0.00000023       0.00000651      -0.00000158      -0.00000057
Se       2.00568242       1.41823195       6.59576273       0.00577243       0.00408072       0.00000023
Se       5.61044871       3.96718567       6.59576278      -0.00577507      -0.00408297       0.00000008
Se       4.70925680       1.41823152       5.03485321      -0.00288675       0.00408168       0.00499985
Se       2.90687388       3.96718533       8.15667109       0.00288528      -0.00408002      -0.00499669
Se       2.90687397       3.96718524       5.03485373       0.00288572      -0.00408063       0.00499776
Se       4.70925707       1.41823128       8.15667202      -0.00288740       0.00408249      -0.00500048
