9
Lattice="4.95463115748679 -3.061748338121455e-07 2.8605572148155805 1.6515435203593498 4.671270954312234 2.8605570591708998 5.95166611457836e-08 -1.4854033867822144e-07 5.72111432654536" Properties=species:S:1:pos:R:3:forces:R:3 energy=-46.954734802246094 free_energy=-46.954734802246094 stress="5.120273635839112e-05 2.7455117290742237e-08 3.745745758010344e-08 2.7455117290742237e-08 5.123384835314937e-05 -2.623984052263495e-08 3.745745758010344e-08 -2.623984052263495e-08 5.105464151711203e-05" pbc="T T T"
Na       1.65154383       1.16781763       2.86055688      -0.00000030       0.00000073      -0.00000071
Na       4.95463103       3.50345266       8.58167128      -0.00000101      -0.00000095      -0.00000033
Ru      -0.00000092      -0.00000017      -0.00000022      -0.00000687       0.00000216      -0.00001048
O        1.49763973       1.05899126       5.72111426      -0.00008607      -0.00005975      -0.00000236
O        5.10853359       3.61227878       5.72111424       0.00009018       0.00006610      -0.00000102
O        4.20581213       1.05899148       4.15755180       0.00004047      -0.00005940      -0.00006852
O        2.40036415       3.61227847       7.28467787      -0.00004277       0.00006154       0.00007218
O        2.40036378       3.61227938       4.15755092      -0.00004128       0.00005698      -0.00006840
O        4.20581102       1.05899225       7.28467722       0.00004798      -0.00006759       0.00007963
