9
Lattice="5.496162902141876 -1.3025753076422607e-08 3.1732115072946816 1.832054291171352 5.1818318946366215 3.173211502552012 6.047655027202412e-08 3.6954717134582797e-08 6.346422909840945" Properties=species:S:1:pos:R:3:forces:R:3 energy=-42.45781707763672 free_energy=-42.45781707763672 stress="0.0001353193074464798 -5.160842064810822e-08 6.370806993061251e-09 -5.160842064810822e-08 0.00013534347817767411 -1.901365465073468e-08 6.370806993061251e-09 -1.901365465073468e-08 0.00013537151971831918" pbc="T T T"
Na       1.83205439       1.29545785       3.17321132      -0.00000018       0.00000003       0.00000007
Na       5.49616282       3.88637366       9.51963416       0.00000009       0.00000020       0.00000020
Re       0.00000110      -0.00000187       0.00000045      -0.00000132       0.00000214      -0.00000001
S        1.88429632       1.33239806       6.34642253       0.00335830       0.00237662       0.00000061
S        5.44392215       3.84943426       6.34642284      -0.00336218      -0.00237626       0.00000029
S        4.55401436       1.33239887       4.80506036      -0.00167692       0.00237304       0.00290567
S        2.77420147       3.84943435       7.88778753       0.00168106      -0.00237644      -0.00291145
S        2.77420157       3.84943348       4.80505928       0.00167897      -0.00237316       0.00290900
S        4.55401482       1.33239866       7.88778560      -0.00167745       0.00237375      -0.00290465
