9
Lattice="4.835041131284635 3.5134079452339457e-07 2.7915117195747587 1.6116805848404967 4.558519176927104 2.7915119334858955 7.355136816949106e-08 3.139951802669835e-07 5.583023311754767" Properties=species:S:1:pos:R:3:forces:R:3 energy=-53.82569122314453 free_energy=-53.82569122314453 stress="-5.4244210332399234e-05 1.6901739741115307e-07 -9.512068288586306e-08 1.6901739741115307e-07 -5.425387280411087e-05 2.3778082436365366e-07 -9.512068288586306e-08 2.3778082436365366e-07 -5.417125066742301e-05" pbc="T T T"
Na       1.61168091       1.13962996       2.79151192      -0.00000090      -0.00000174      -0.00000077
Na       4.83504142       3.41888997       8.37453525       0.00000033      -0.00000001      -0.00000003
Re      -0.00000078      -0.00000155      -0.00000124       0.00000109      -0.00000166       0.00000025
O        1.54896459       1.09528409       5.58302346       0.00103831       0.00073707      -0.00000172
O        4.89775775       3.46323644       5.58302372      -0.00104403      -0.00073576      -0.00000145
O        4.06055920       1.09528245       4.13295507      -0.00052440       0.00074172       0.00089848
O        2.38616275       3.46323672       7.03309246       0.00052249      -0.00073743      -0.00090134
O        2.38616215       3.46323804       4.13295366       0.00053263      -0.00075054       0.00091422
O        4.06055904       1.09528290       7.03309301      -0.00052607       0.00074780      -0.00090933
