9
Lattice="5.070236390341055 2.5650976998740626e-08 2.9273027837779972 1.6900789541147154 4.780265551288094 2.927302553154633 2.723140990180725e-07 -8.9899383620419e-08 5.854605095894261" Properties=species:S:1:pos:R:3:forces:R:3 energy=-41.78899383544922 free_energy=-41.78899383544922 stress="-5.5407061154255643e-05 5.105700306984318e-09 2.2585197712032823e-08 5.105700306984318e-09 -5.54067300981842e-05 9.50934353483035e-09 2.2585197712032823e-08 9.50934353483035e-09 -5.532069917535409e-05" pbc="T T T"
Na       1.69007973       1.19506654       2.92730260       0.00000079       0.00000048       0.00000030
Na       5.07023663       3.58519921       8.78190738       0.00000049      -0.00000048      -0.00000073
Rh       0.00000044      -0.00000013      -0.00000025       0.00000604      -0.00000076       0.00000700
O        1.56788439       1.10866220       5.85460550       0.00425100       0.00300437       0.00000234
O        5.19243135       3.67160377       5.85460609      -0.00425506      -0.00300825       0.00000259
O        4.28629359       1.10866158       4.28512954      -0.00212553       0.00300473       0.00368106
O        2.47402067       3.67160400       7.42408038       0.00212792      -0.00300962      -0.00368387
O        2.47402068       3.67160383       4.28512940       0.00212428      -0.00300223       0.00367856
O        4.28629528       1.10866071       7.42408197      -0.00212991       0.00301164      -0.00368780
