9
Lattice="5.404077536592498 -9.030210905891374e-08 3.120045736143496 1.8013591580385877 5.095012665684667 3.120045624751649 1.3065950450643788e-07 -4.403636823286248e-08 6.240091245978114" Properties=species:S:1:pos:R:3:forces:R:3 energy=-36.00213623046875 free_energy=-36.00213623046875 stress="-0.00010726358596002683 7.3359771590730816e-09 -1.6871158692310928e-08 7.3359771590730816e-09 -0.00010724399180617183 1.2063588350486043e-08 -1.6871158692310928e-08 1.2063588350486043e-08 -0.00010731956717791036" pbc="T T T"
Na       1.80135890       1.27375300       3.12004575       0.00000023       0.00000036       0.00000008
Na       5.40407784       3.82125934       9.36013690      -0.00000048       0.00000012      -0.00000037
Rh      -0.00000079      -0.00000031       0.00000023       0.00000157       0.00000111       0.00000052
S        1.86246801       1.31696390       6.24009098       0.00494689       0.00349808       0.00000012
S        5.34296841       3.77804863       6.24009114      -0.00494832      -0.00349849       0.00000040
S        4.47284364       1.31696413       4.73299043      -0.00247377       0.00349754       0.00428438
S        2.73259363       3.77804858       7.74719265       0.00247395      -0.00349891      -0.00428563
S        2.73259365       3.77804882       4.73298999       0.00247392      -0.00349921       0.00428593
S        4.47284392       1.31696400       7.74719248      -0.00247410       0.00349897      -0.00428510
