9
Lattice="5.398758457857025 -2.506903780731648e-07 3.116974844095374 1.7995858825900772 5.089998989600741 3.116974902423545 -2.2140284900682115e-07 -8.511835022831733e-08 6.23395007167182" Properties=species:S:1:pos:R:3:forces:R:3 energy=-37.671783447265625 free_energy=-37.671783447265625 stress="-5.483491986524314e-05 -7.88033638343677e-09 -2.539243038057748e-09 -7.88033638343677e-09 -5.4854124755365774e-05 -9.709304471527958e-09 -2.539243038057748e-09 -9.709304471527958e-09 -5.487857561092824e-05" pbc="T T T"
Na       1.79958602       1.27249959       3.11697497      -0.00000027      -0.00000015      -0.00000019
Na       5.39875807       3.81749895       9.35092497       0.00000000       0.00000028      -0.00000037
Ru      -0.00000010      -0.00000114       0.00000123      -0.00000116      -0.00000884       0.00001275
S        1.87805279       1.32798415       6.23395014       0.00260454       0.00184238      -0.00000103
S        5.32029155       3.76201503       6.23394953      -0.00260323      -0.00183952      -0.00000112
S        4.45973181       1.32798369       4.74341631      -0.00130087       0.00184095       0.00225306
S        2.73861214       3.76201522       7.72448314       0.00130230      -0.00184059      -0.00225580
S        2.73861258       3.76201534       4.74341607       0.00130108      -0.00183779       0.00225091
S        4.45973166       1.32798371       7.72448304      -0.00130197       0.00184327      -0.00225818
