9
Lattice="5.800452901165867 -9.795936527132896e-08 3.3488932501967943 1.9334842609020158 5.468719142963326 3.34889315862255 5.7292868775986934e-08 -7.16429254747066e-08 6.697786401159453" Properties=species:S:1:pos:R:3:forces:R:3 energy=-39.391014099121094 free_energy=-39.391014099121094 stress="4.020068081445061e-05 -2.8829202136648746e-08 3.385773439390505e-08 -2.8829202136648746e-08 4.027510658488609e-05 -4.69209773257262e-08 3.385773439390505e-08 -4.69209773257262e-08 4.030135096400045e-05" pbc="T T T"
Na       1.93348424       1.36717977       3.34889325      -0.00000005      -0.00000003       0.00000019
Na       5.80045300       4.10153918      10.04667955      -0.00000020       0.00000034       0.00000000
Re      -0.00000050       0.00000021      -0.00000005       0.00000237      -0.00000308      -0.00000085
Se       2.00350996       1.41669524       6.69778643      -0.00174379      -0.00123361      -0.00000036
Se       5.73042701       4.05202362       6.69778647       0.00174618       0.00123471      -0.00000023
Se       4.79869820       1.41669569       5.08398404       0.00087123      -0.00123432      -0.00151145
Se       2.93523985       4.05202301       8.31158828      -0.00087509       0.00123724       0.00151536
Se       2.93523965       4.05202291       5.08398474      -0.00087544       0.00123808      -0.00151801
Se       4.79869761       1.41669622       8.31158852       0.00087477      -0.00123930       0.00151536
