9
Lattice="6.296297354759945 -9.655364448489936e-07 3.635169417026054 2.098764897753124 5.936206283356005 3.6351693769297975 5.497504347584513e-08 -1.0234438623313073e-08 7.270338738832533" Properties=species:S:1:pos:R:3:forces:R:3 energy=-36.06175994873047 free_energy=-36.06175994873047 stress="-5.086642431706423e-06 -2.6966884547618974e-07 3.761591038653478e-09 -2.6966884547618974e-07 -4.920922492601676e-06 -1.833734941669718e-08 3.761591038653478e-09 -1.833734941669718e-08 -4.71733437734656e-06" pbc="T T T"
Na       2.09876541       1.48405098       3.63516925      -0.00000019       0.00000014       0.00000018
Na       6.29629702       4.45215443      10.90550847       0.00000016      -0.00000024      -0.00000012
Re      -0.00000050       0.00000032      -0.00000042       0.00000557      -0.00000417       0.00000332
Te       2.18531713       1.54525201       7.27033896       0.00075994       0.00053819      -0.00000013
Te       6.20974555       4.39095331       7.27033864      -0.00076149      -0.00053894       0.00000047
Te       5.20363688       1.54525363       5.52771125      -0.00036781       0.00052100       0.00063892
Te       3.19142551       4.39095165       9.01296626       0.00036737      -0.00051963      -0.00063835
Te       3.19142549       4.39095129       5.52771170       0.00036480      -0.00051780       0.00063512
Te       5.20363674       1.54525368       9.01296603      -0.00036826       0.00052153      -0.00063945
