9
Lattice="4.956346465752372 2.0331287955468915e-06 2.8615483082049726 1.6521172799655668 4.672890232680139 2.8615485255268545 5.160772516331131e-07 6.310853515986495e-07 5.72309572253771" Properties=species:S:1:pos:R:3:forces:R:3 energy=-37.95789337158203 free_energy=-37.95789337158203 stress="7.852392445784062e-05 -3.9803362028578704e-07 2.8605075641507938e-08 -3.9803362028578704e-07 7.883285434218124e-05 2.047880798272672e-08 2.8605075641507938e-08 2.047880798272672e-08 7.931590516818687e-05" pbc="T T T"
Na       1.65211535       1.16822179       2.86154786      -0.00000339      -0.00001942      -0.00000799
Na       4.95634815       3.50466888       8.58464377      -0.00000846      -0.00001940      -0.00000838
Se      -0.00001517      -0.00005472      -0.00002306      -0.00029165      -0.00100758      -0.00041978
O        1.49147933       1.05464469       5.72310069      -0.00381613      -0.00247741       0.00011467
O        5.11697826       3.61826304       5.72310112       0.00355041       0.00273657       0.00011524
O        4.21061492       1.05464443       4.15320399       0.00203550      -0.00247896      -0.00326884
O        2.39786629       3.61826552       7.29298831      -0.00166732       0.00276423       0.00315928
O        2.39786078       3.61826891       4.15321118      -0.00175166       0.00287259      -0.00305712
O        4.21061143       1.05464869       7.29299445       0.00195354      -0.00237048       0.00337160
