9
Lattice="4.548942095507352 -1.444341932405019e-07 2.6263326302917003 1.5163138258342206 4.288783558641817 2.6263327512368617 -2.4040019259261195e-07 -2.1861703409296642e-08 5.252665676968864" Properties=species:S:1:pos:R:3:forces:R:3 energy=-46.19141387939453 free_energy=-46.19141387939453 stress="-0.0001629251491976902 -1.903011650483677e-07 -3.7381703066330374e-08 -1.903011650483677e-07 -0.00016281157149933279 6.536683638813656e-09 -3.7381703066330374e-08 6.536683638813656e-09 -0.000162830765475519" pbc="T T T"
Na       1.51631393       1.07219595       2.62633267       0.00000042       0.00000024       0.00000088
Na       4.54894173       3.21658756       7.87899838      -0.00000106       0.00000025      -0.00000097
Si      -0.00000037       0.00000061       0.00000049       0.00001251      -0.00000095      -0.00001582
O        1.41294109       0.99910044       5.25266552       0.00096524       0.00068593       0.00000080
O        4.65231588       3.28968237       5.25266576      -0.00098407      -0.00068837      -0.00000113
O        3.84247078       0.99910079       3.84997633      -0.00048149       0.00068361       0.00083286
O        2.22278429       3.28968281       6.65535525       0.00048020      -0.00067651      -0.00083488
O        2.22278408       3.28968262       3.84997534       0.00048727      -0.00068277       0.00084502
O        3.84247068       0.99910055       6.65535423      -0.00047967       0.00067908      -0.00082642
