9
Lattice="5.708227911461701 3.34057068167853e-07 3.2956469436255564 1.9027429070082054 5.381768686291223 3.2956470217370804 4.256651128352717e-08 1.2576572408244666e-07 6.591293813523813" Properties=species:S:1:pos:R:3:forces:R:3 energy=-30.7543888092041 free_energy=-30.7543888092041 stress="1.2296975910430774e-05 -1.9233109327387865e-08 -2.999508197376599e-08 -1.9233109327387865e-08 1.2469553439586889e-05 1.0138342609877782e-08 -2.999508197376599e-08 1.0138342609877782e-08 1.2326384421612602e-05" pbc="T T T"
Na       1.90274241       1.34544193       3.29564690       0.00000067       0.00000013       0.00000026
Na       5.70822842       4.03632656       9.88694079      -0.00000036       0.00000029      -0.00000068
Sn       0.00000000       0.00000068       0.00000016       0.00000167      -0.00000827      -0.00000175
S        2.03698692       1.44036804       6.59129354      -0.00021943      -0.00015458      -0.00000181
S        5.57398409       3.94140180       6.59129409       0.00022170       0.00015602      -0.00000096
S        4.68973476       1.44036782       5.05972936       0.00011139      -0.00015214      -0.00018856
S        2.92123726       3.94140074       8.12285772      -0.00011052       0.00015813       0.00019538
S        2.92123559       3.94140112       5.05972934      -0.00011286       0.00015453      -0.00019211
S        4.68973413       1.44036780       8.12285911       0.00010777      -0.00015426       0.00019026
