9
Lattice="4.970216745112685 2.762741864196193e-06 2.8695531771828615 1.656740212887037 4.685964484629532 2.8695554407795405 -3.1746364528027285e-07 2.5478481934794954e-06 5.739106904229185" Properties=species:S:1:pos:R:3:forces:R:3 energy=-38.13979721069336 free_energy=-38.13979721069336 stress="-0.0003115884610451758 1.6425319699919783e-06 -2.6417276899337594e-07 1.6425319699919783e-06 -0.0003127716772723943 2.2434127799897396e-07 -2.6417276899337594e-07 2.2434127799897396e-07 -0.0003141406923532486" pbc="T T T"
Na       1.65673611       1.17149148       2.86955439      -0.00000002       0.00000481       0.00000195
Na       4.97021930       3.51447874       8.60866077       0.00000517       0.00000406       0.00000782
Sn       0.00000138       0.00000940       0.00000547       0.00002213      -0.00013666      -0.00003982
O        1.67811572       1.18660943       5.73910636       0.00489348       0.00346076      -0.00000171
O        4.94884428       3.49935846       5.73910487      -0.00485075      -0.00343210      -0.00000262
O        4.13116450       1.18660164       4.32283325      -0.00249583       0.00352818       0.00431925
O        2.49578806       3.49936605       7.15537306       0.00244761      -0.00346655      -0.00425744
O        2.49579399       3.49936419       4.32284270       0.00247139      -0.00349194       0.00428832
O        4.13116613       1.18660136       7.15538301      -0.00249249       0.00352907      -0.00431591
