9
Lattice="6.5248067275361175 -5.055594071788077e-08 3.767098903900397 2.1749355428454638 6.151646640672749 3.7670988785004305 -1.2365785881708148e-09 -3.1982930211773834e-08 7.534197809942676" Properties=species:S:1:pos:R:3:forces:R:3 energy=-27.69761085510254 free_energy=-27.69761085510254 stress="-5.9140747907804325e-05 7.193679874006875e-09 1.4708271267593886e-09 7.193679874006875e-09 -5.915758083574474e-05 -7.46063821832621e-10 1.4708271267593886e-09 -7.46063821832621e-10 -5.9152505855308846e-05" pbc="T T T"
Na       2.17493540       1.53791135       3.76709888      -0.00000019      -0.00000009      -0.00000021
Na       6.52480653       4.61373507      11.30129695      -0.00000009       0.00000007       0.00000026
Sn       0.00000072       0.00000005      -0.00000042      -0.00000426       0.00000012       0.00000170
Te       2.39056344       1.69038340       7.53419777      -0.00784895      -0.00554968       0.00000032
Te       6.30917853       4.46126260       7.53419773       0.00785124       0.00555162      -0.00000024
Te       5.32952484       1.69038392       5.83738806       0.00392582      -0.00555117      -0.00679851
Te       3.37021725       4.46126321       9.23100811      -0.00392382       0.00554863       0.00679600
Te       3.37021730       4.46126309       5.83738738      -0.00392455       0.00555088      -0.00679702
Te       5.32952505       1.69038355       9.23100784       0.00392473      -0.00555040       0.00679782
