9
Lattice="6.293182566465793 2.4711457245385407e-08 3.6333706398149053 2.0977275948422642 5.933269444636596 3.6333705542707984 5.187109849867959e-08 -6.809117129083798e-08 7.266741189786369" Properties=species:S:1:pos:R:3:forces:R:3 energy=-28.37314224243164 free_energy=-28.37314224243164 stress="-4.748198261950165e-05 1.9073431722915757e-09 -1.2929265991168393e-10 1.9073431722915757e-09 -4.747187995235436e-05 -5.075159403844509e-09 -1.2929265991168393e-10 -5.075159403844509e-09 -4.748880019178614e-05" pbc="T T T"
Na       2.09772749       1.48331724       3.63337068      -0.00000009      -0.00000012      -0.00000002
Na       6.29318275       4.44995203      10.90011180      -0.00000011      -0.00000013       0.00000006
Si       0.00000064       0.00000042       0.00000021      -0.00000070      -0.00000116      -0.00000104
Te       2.19207281       1.55003023       7.26674120       0.00121460       0.00085976      -0.00000016
Te       6.19883728       4.38323911       7.26674142      -0.00121407      -0.00085864      -0.00000006
Te       5.19714628       1.55003028       5.53176102      -0.00060711       0.00085964       0.00105178
Te       3.19376411       4.38323910       9.00172107       0.00060747      -0.00085876      -0.00105127
Te       3.19376355       4.38323896       5.53176108       0.00060733      -0.00085998       0.00105201
Te       5.19714594       1.55003026       9.00172113      -0.00060728       0.00085935      -0.00105138
