9
Lattice="4.360495756429554 -3.753669045988858e-07 2.5175328570637165 1.4534983136039887 4.111114781179792 2.5175327149895277 7.887525951939206e-07 3.837272561428652e-07 5.035064347967861" Properties=species:S:1:pos:R:3:forces:R:3 energy=-42.42127227783203 free_energy=-42.42127227783203 stress="7.719764653302263e-06 -5.569436893892998e-07 -7.874652396822057e-08 -5.569436893892998e-07 8.215414709411561e-06 1.1383868070424796e-07 -7.874652396822057e-08 1.1383868070424796e-07 7.80659138399642e-06" pbc="T T T"
Na       1.45349886       1.02777877       2.51753238       0.00000212       0.00000210      -0.00000100
Na       4.36049638       3.08333650       7.55259818      -0.00000359       0.00000083       0.00000289
S        0.00000081      -0.00000112       0.00000243      -0.00001614       0.00000599      -0.00006389
O        1.32755389       0.93872297       5.03506564       0.00148308       0.00103736       0.00000628
O        4.48644014       3.17239164       5.03506314      -0.00144756      -0.00102961       0.00000854
O        3.69671667       0.93872186       3.66722773      -0.00072795       0.00102317       0.00128257
O        2.11727836       3.17239301       6.40290166       0.00070691      -0.00101089      -0.00123596
O        2.11727559       3.17239144       3.66722913       0.00072473      -0.00103176       0.00126195
O        3.69672048       0.93872422       6.40290352      -0.00072128       0.00100362      -0.00126171
