9
Lattice="5.697223805899895 -3.1656879291761235e-08 3.2892938174201665 1.899074540410059 5.3713943338786265 3.2892938723438068 1.6268001632523515e-08 7.877071993775544e-08 6.5785876066632865" Properties=species:S:1:pos:R:3:forces:R:3 energy=-31.59424591064453 free_energy=-31.59424591064453 stress="6.465581100201234e-05 -3.436132800516134e-08 -8.260267136961374e-09 -3.436132800516134e-08 6.463404861278832e-05 -4.808952347445938e-09 -8.260267136961374e-09 -4.808952347445938e-09 6.46628686808981e-05" pbc="T T T"
Na       1.89907459       1.34284847       3.28929386       0.00000007       0.00000123       0.00000046
Na       5.69722370       4.02854568       9.86788144      -0.00000064       0.00000039      -0.00000074
Si      -0.00000017       0.00000003       0.00000019       0.00000036      -0.00000197      -0.00000257
Se       1.95675927       1.38363790       6.57858769       0.00547799       0.00387345      -0.00000003
Se       5.63953878       3.98775652       6.57858728      -0.00547757      -0.00387389      -0.00000001
Se       4.71884388       1.38363846       4.98389730      -0.00273891       0.00387390       0.00474490
Se       2.87745491       3.98775592       8.17327823       0.00273847      -0.00387156      -0.00474280
Se       2.87745465       3.98775610       4.98389715       0.00273872      -0.00387383       0.00474444
Se       4.71884381       1.38363845       8.17327806      -0.00273853       0.00387229      -0.00474362
