9
Lattice="5.6884676512376995 3.562577590624252e-08 3.2842382241886523 1.896155846832523 5.363138876936547 3.284238346301081 -1.0198055681452117e-07 7.744546868011083e-08 6.568476625012822" Properties=species:S:1:pos:R:3:forces:R:3 energy=-30.392818450927734 free_energy=-30.392818450927734 stress="-3.659819776657969e-05 4.89738782860627e-09 -1.2499147494793306e-08 4.89738782860627e-09 -3.661410300992429e-05 2.683007593873299e-08 -1.2499147494793306e-08 2.683007593873299e-08 -3.665826443466358e-05" pbc="T T T"
Na       1.89615612       1.34078478       3.28423811      -0.00000010       0.00000046      -0.00000025
Na       5.68846731       4.02235427       9.85271505      -0.00000074       0.00000043      -0.00000067
Se       0.00000028      -0.00000027      -0.00000026      -0.00000209       0.00000394       0.00001069
S        1.81786028       1.28542165       6.56847657       0.00033277       0.00023642       0.00000085
S        5.76676319       4.07771752       6.56847662      -0.00033486      -0.00023618       0.00000172
S        4.77953735       1.28542091       4.85855140      -0.00016451       0.00023350       0.00028610
S        2.80508566       4.07771778       8.27840176       0.00017148      -0.00024253      -0.00029695
S        2.80508576       4.07771788       4.85855141       0.00016880      -0.00023767       0.00029302
S        4.77953758       1.28542147       8.27840209      -0.00017038       0.00024182      -0.00029457
