9
Lattice="5.480063117384765 1.9109042275064046e-07 3.1639161923604724 1.8266880908460073 5.166653498015736 3.163915837481826 1.8092288435366343e-07 -3.0670406692691085e-07 6.327832071353415" Properties=species:S:1:pos:R:3:forces:R:3 energy=-42.94596481323242 free_energy=-42.94596481323242 stress="9.322347614215687e-05 1.269566780592868e-07 5.026431537658027e-08 1.269566780592868e-07 9.295633208239451e-05 -5.81296681900767e-08 5.026431537658027e-08 -5.81296681900767e-08 9.298349323216826e-05" pbc="T T T"
Na       1.82668794       1.29166342       3.16391647       0.00000005       0.00000012      -0.00000001
Na       5.48006356       3.87498957       9.49174786       0.00000079       0.00000065      -0.00000004
Ta      -0.00000009       0.00000011      -0.00000105      -0.00000188      -0.00000242       0.00000840
S        1.94490152       1.37525240       6.32783290       0.00070220       0.00049600       0.00000110
S        5.36184994       3.79140050       6.32783275      -0.00069988      -0.00049525       0.00000083
S        4.50761260       1.37525189       4.84824923      -0.00035504       0.00050130       0.00061291
S        2.79913852       3.79140267       7.80741408       0.00035632      -0.00050330      -0.00061676
S        2.79913886       3.79140114       4.84824967       0.00035188      -0.00049764       0.00060755
S        4.50761266       1.37525158       7.80741494      -0.00035465       0.00049984      -0.00061375
