9
Lattice="4.859764815780032 -5.150344925396074e-07 2.805787287135044 1.619921141548399 4.58182949621635 2.80578724925937 2.0434326511080758e-07 9.810439780439786e-08 5.611574220337323" Properties=species:S:1:pos:R:3:forces:R:3 energy=-48.35945510864258 free_energy=-48.35945510864258 stress="3.7275574868544936e-05 -5.7358327865131287e-08 4.363093708548149e-08 -5.7358327865131287e-08 3.7341287679737434e-05 1.0257481086739517e-08 4.363093708548149e-08 1.0257481086739517e-08 3.7092606362421066e-05" pbc="T T T"
Na       1.61992178       1.14545745       2.80578722       0.00000059       0.00000071      -0.00000035
Na       4.85976464       3.43637190       8.41736135       0.00000023      -0.00000020      -0.00000004
Ti       0.00000070       0.00000037      -0.00000071      -0.00000714      -0.00000721       0.00000092
O        1.54883708       1.09519266       5.61157456      -0.00024742      -0.00017324       0.00000054
O        4.93084897       3.48663598       5.61157484       0.00025314       0.00017858       0.00000253
O        4.08534632       1.09519315       4.14711895       0.00012508      -0.00017747      -0.00021523
O        2.39433902       3.48663623       7.07602973      -0.00012305       0.00017440       0.00021484
O        2.39433954       3.48663613       4.14711950      -0.00012571       0.00017878      -0.00021604
O        4.08534684       1.09519261       7.07602972       0.00012457      -0.00017446       0.00021264
