9
Lattice="5.472359230913031 1.6988915084304396e-07 3.1594680323057815 1.8241196268556934 5.159391339846191 3.159468512006107 -3.825805848703143e-07 3.169849598274727e-07 6.318936727260905" Properties=species:S:1:pos:R:3:forces:R:3 energy=-38.60255813598633 free_energy=-38.60255813598633 stress="9.206581307807937e-05 1.8336987039901942e-08 -1.2978433971966297e-07 1.8336987039901942e-08 9.19797457754612e-05 2.1419798201804952e-07 -1.2978433971966297e-07 2.1419798201804952e-07 9.203032095683739e-05" pbc="T T T"
Na       1.82411935       1.28984878       3.15946856       0.00000012      -0.00000096      -0.00000004
Na       5.47235869       3.86954324       9.47840482       0.00000027       0.00000030       0.00000061
Ti      -0.00000141       0.00000099       0.00000004       0.00001092      -0.00001137      -0.00000291
S        1.88677540       1.33415256       6.31893701       0.00088573       0.00062534      -0.00000102
S        5.40970299       3.82523912       6.31893698      -0.00088695      -0.00062680      -0.00000153
S        4.52897111       1.33415249       4.79346335      -0.00044332       0.00062734       0.00076911
S        2.76750829       3.82523851       7.84440860       0.00043800      -0.00061864      -0.00075695
S        2.76750726       3.82523989       4.79346380       0.00044383      -0.00062862       0.00076964
S        4.52897177       1.33415167       7.84441004      -0.00044879       0.00063324      -0.00077701
