9
Lattice="6.395499871912488 -2.1538458964585893e-07 3.6924428753925254 2.131833635040252 6.029735571448999 3.6924419271478772 7.292853169902741e-07 -6.456751552683489e-07 7.38488448762586" Properties=species:S:1:pos:R:3:forces:R:3 energy=-36.91023254394531 free_energy=-36.91023254394531 stress="-7.101875235093758e-05 -4.854240032159396e-08 3.325428821199239e-08 -4.854240032159396e-08 -7.09833184373565e-05 -5.483148868279386e-08 3.325428821199239e-08 -5.483148868279386e-08 -7.098904461599886e-05" pbc="T T T"
Na       2.13183262       1.50743543       3.69244408      -0.00000028      -0.00000042      -0.00000085
Na       6.39550106       4.52230139      11.07732443       0.00000037       0.00000026      -0.00000054
Ta      -0.00000253      -0.00000172       0.00001515       0.00001203       0.00000842      -0.00006469
Te       2.25967102       1.59782678       7.38488096      -0.00725217      -0.00512607       0.00000370
Te       6.26766640       4.43190957       7.38487862       0.00723314       0.00511477       0.00000756
Te       5.26566517       1.59782786       5.64936983       0.00361991      -0.00511765      -0.00625607
Te       3.26167105       4.43190325       9.12039765      -0.00362796       0.00513524       0.00628185
Te       3.26166972       4.43190630       5.64936895      -0.00362140       0.00512180      -0.00625969
Te       5.26566233       1.59783075       9.12039767       0.00363635      -0.00513631       0.00628880
