9
Lattice="5.797400367730279 3.712238585999008e-07 3.3471311136468698 1.9324671043571682 5.465841989059948 3.3471311740599523 -1.5744171925504729e-07 -3.7337483961794355e-08 6.694262499990818" Properties=species:S:1:pos:R:3:forces:R:3 energy=-39.771568298339844 free_energy=-39.771568298339844 stress="0.00012376494123600423 1.658596744391616e-07 5.1322860628033595e-08 1.658596744391616e-07 0.0001236750977113843 -8.50795487394862e-08 5.1322860628033595e-08 -8.50795487394862e-08 0.00012353724741842598" pbc="T T T"
Na       1.93246673       1.36646065       3.34713138      -0.00000023       0.00000072      -0.00000050
Na       5.79740071       4.09938171      10.04139377      -0.00000025       0.00000040      -0.00000001
Ta       0.00000056       0.00000340      -0.00000120      -0.00000504      -0.00002583       0.00000835
Se       2.06712656       1.46167835       6.69426271      -0.00826995      -0.00584593      -0.00000003
Se       5.66273942       4.00416258       6.69426230       0.00828011       0.00585616       0.00000085
Se       4.76383763       1.46167771       5.13731405       0.00413143      -0.00583761      -0.00715353
Se       2.96602951       4.00416340       8.25121033      -0.00413170       0.00584468       0.00715888
Se       2.96603024       4.00416312       5.13731558      -0.00413614       0.00584881      -0.00716888
Se       4.76383793       1.46167848       8.25121041       0.00413175      -0.00584148       0.00715485
