9
Lattice="5.91792132895463 -1.887140730021143e-07 3.4167137304532247 1.97264032626552 5.579469971256807 3.4167136244482115 2.2138943935488905e-08 -1.141744039552673e-07 6.833427422560602" Properties=species:S:1:pos:R:3:forces:R:3 energy=-28.855438232421875 free_energy=-28.855438232421875 stress="-5.2869017963530496e-05 3.4883694155496414e-08 -1.2169537377815232e-08 3.4883694155496414e-08 -5.291914567351341e-05 1.0878471456976513e-08 -1.2169537377815232e-08 1.0878471456976513e-08 -5.2941722969990224e-05" pbc="T T T"
Na       1.97264051       1.39486729       3.41671383       0.00000037      -0.00000071      -0.00000018
Na       5.91792107       4.18460252      10.25014147      -0.00000024       0.00000017      -0.00000007
Te      -0.00000046      -0.00000047      -0.00000054       0.00000022      -0.00000032       0.00000115
Se       2.34508877       1.65822780       6.83342740      -0.00153208      -0.00108387      -0.00000025
Se       5.54547238       3.92124187       6.83342747       0.00153357       0.00108473      -0.00000034
Se       4.74537724       1.65822738       5.44761982       0.00076483      -0.00108314      -0.00132695
Se       3.14518524       3.92124198       8.21923472      -0.00076677       0.00108348       0.00132680
Se       3.14518486       3.92124253       5.44761978      -0.00076546       0.00108261      -0.00132611
Se       4.74537710       1.65822777       8.21923503       0.00076537      -0.00108293       0.00132605
