9
Lattice="5.861418631031161 -2.018151742510673e-07 3.384091844166149 1.9538060704030702 5.526198592289324 3.3840917569876647 1.543765406164222e-08 -9.585539200881722e-08 6.768183661593458" Properties=species:S:1:pos:R:3:forces:R:3 energy=-29.653812408447266 free_energy=-29.653812408447266 stress="-4.570569217321463e-05 -1.0677518957891152e-07 -1.596981036300349e-08 -1.0677518957891152e-07 -4.5649707317352295e-05 -3.591072106345905e-09 -1.596981036300349e-08 -3.591072106345905e-09 -4.551827805698849e-05" pbc="T T T"
Na       1.95380630       1.38154938       3.38409203       0.00000047      -0.00000032       0.00000060
Na       5.86141867       4.14464894      10.15227561       0.00000003      -0.00000032       0.00000024
Te       0.00000012       0.00000137       0.00000308       0.00000326      -0.00004510      -0.00009330
S        1.94338833       1.37418261       6.76818359       0.00201434       0.00142378      -0.00000169
S        5.87183592       4.15201555       6.76818362      -0.00199425      -0.00141054      -0.00000219
S        4.88972435       1.37418223       5.06711514      -0.00101992       0.00144094       0.00176489
S        2.92550099       4.15201425       8.46925008       0.00097674      -0.00138170      -0.00169331
S        2.92550048       4.15201508       5.06711569       0.00100774      -0.00142610       0.00174254
S        4.88972365       1.37418370       8.46925052      -0.00098872       0.00139946      -0.00171763
