9
Lattice="5.805432441076401 -2.974636621645268e-07 3.3517678782239377 1.9351440672845164 5.473412853444119 3.3517675305831007 3.415350395456343e-07 -1.842696244858968e-07 6.703535164891904" Properties=species:S:1:pos:R:3:forces:R:3 energy=-35.99696731567383 free_energy=-35.99696731567383 stress="-0.0001422711502527818 -7.069851370999913e-09 2.9798814082937497e-08 -7.069851370999913e-09 -0.00014228277723304927 -3.625047639843615e-08 2.9798814082937497e-08 -3.625047639843615e-08 -0.00014224259939510375" pbc="T T T"
Na       1.93514418       1.36835326       3.35176764      -0.00000008       0.00000074       0.00000005
Na       5.80543267       4.10505944      10.05530306      -0.00000018      -0.00000074      -0.00000021
Ti       0.00000018       0.00000020       0.00000024      -0.00000170       0.00000025      -0.00000250
Se       2.01428033       1.42431035       6.70353538      -0.00567988      -0.00401691      -0.00000020
Se       5.72629625       4.04910098       6.70353543       0.00568208       0.00401946      -0.00000107
Se       4.79829286       1.42431084       5.09618536       0.00283966      -0.00401481      -0.00491835
Se       2.94228468       4.04910172       8.31088531      -0.00283914       0.00401625       0.00491913
Se       2.94228361       4.04910136       5.09618507      -0.00284121       0.00401719      -0.00492053
Se       4.79829270       1.42431133       8.31088488       0.00284044      -0.00402138       0.00492371
