9
Lattice="5.731186494307812 3.317706753640088e-07 3.3089025536301384 1.9103957397947364 5.403415065132276 3.308902676786285 1.716204145564738e-08 1.6297029959117654e-07 6.617805077534745" Properties=species:S:1:pos:R:3:forces:R:3 energy=-36.04922866821289 free_energy=-36.04922866821289 stress="5.163826790521853e-05 2.729813486368471e-09 1.2080713318596281e-08 2.729813486368471e-09 5.1566545153036714e-05 7.001694779518175e-09 1.2080713318596281e-08 7.001694779518175e-09 5.155185499461368e-05" pbc="T T T"
Na       1.91039563       1.35085392       3.30890243       0.00000102      -0.00000085      -0.00000078
Na       5.73118675       4.05256162       9.92670788      -0.00000117      -0.00000045       0.00000024
V       -0.00000038      -0.00000028      -0.00000072      -0.00000062      -0.00000099      -0.00000042
Se       1.96475348       1.38929075       6.61780512       0.00438273       0.00309910       0.00000067
Se       5.67682890       4.01412451       6.61780515      -0.00438145      -0.00309841       0.00000127
Se       4.74880992       1.38929078       5.01042890      -0.00219159       0.00309928       0.00379643
Se       2.89277219       4.01412561       8.22518161       0.00219271      -0.00309998      -0.00379670
Se       2.89277222       4.01412464       5.01042914       0.00219089      -0.00309947       0.00379699
Se       4.74881009       1.38929056       8.22518176      -0.00219262       0.00310192      -0.00379786
