9
Lattice="4.943365474854248 8.494722560360553e-08 2.854053072262812 1.6477886088098714 4.66064998457163 2.8540530079987243 -1.166126783522835e-07 -1.6116471018113507e-07 5.7081063465046125" Properties=species:S:1:pos:R:3:forces:R:3 energy=-46.11128234863281 free_energy=-46.11128234863281 stress="-0.00011582410661503673 -3.842297502387737e-08 8.475552704112488e-08 -3.842297502387737e-08 -0.0001158601080533117 -1.4610932907999086e-07 8.475552704112488e-08 -1.4610932907999086e-07 -0.00011582750448724255" pbc="T T T"
Na       1.64778838       1.16516277       2.85405307       0.00000002       0.00000056      -0.00000030
Na       4.94336578       3.49548740       8.56215932      -0.00000029      -0.00000019      -0.00000101
V        0.00000044       0.00000088      -0.00000082      -0.00001007      -0.00000583      -0.00000381
O        1.49943571       1.06026118       5.70810650       0.00428849       0.00303125       0.00000064
O        5.09171750       3.60038795       5.70810664      -0.00427020      -0.00301945       0.00000071
O        4.19364787       1.06026139       4.15260240      -0.00214341       0.00302708       0.00371087
O        2.39750676       3.60038783       7.26361020       0.00213891      -0.00302899      -0.00370824
O        2.39750589       3.60038816       4.15260262       0.00213522      -0.00302285       0.00370204
O        4.19364726       1.06026240       7.26360961      -0.00213826       0.00301844      -0.00369948
