9
Lattice="6.218784646828684 6.763606942118352e-08 3.5904173349904243 2.0729280983720724 5.863126865214639 3.5904176485008095 -5.058750204064993e-08 3.481994856920021e-07 7.180834757601216" Properties=species:S:1:pos:R:3:forces:R:3 energy=-33.27351379394531 free_energy=-33.27351379394531 stress="0.00013892176502849907 -1.133388938256985e-08 -7.81594522436535e-09 -1.133388938256985e-08 0.00013889170077163726 3.455649277839257e-08 -7.81594522436535e-09 3.455649277839257e-08 0.00013888344983570278" pbc="T T T"
Na       2.07292809       1.46578173       3.59041709      -0.00000056      -0.00000004       0.00000080
Na       6.21878389       4.39734529      10.77125237       0.00000071       0.00000034      -0.00000031
V        0.00000109       0.00000010      -0.00000039      -0.00000222      -0.00000067       0.00000055
Te       2.20195291       1.55701640       7.18083571       0.00200198       0.00141624      -0.00000129
Te       6.08975885       4.30611028       7.18083474      -0.00199833      -0.00141332      -0.00000018
Te       5.11780852       1.55701712       5.49736515      -0.00100011       0.00141251       0.00173107
Te       3.17390563       4.30611108       8.86430499       0.00099806      -0.00141260      -0.00173090
Te       3.17390538       4.30611105       5.49736415       0.00100008      -0.00141642       0.00173377
Te       5.11780658       1.55701612       8.86430520      -0.00099958       0.00141398      -0.00173351
