9
Lattice="5.9385787652307105 -4.119865096014458e-07 3.4286402572374426 1.9795259202123248 5.59894569292958 3.4286401644688835 7.539590479818267e-08 -6.030500023230897e-08 6.85728038388533" Properties=species:S:1:pos:R:3:forces:R:3 energy=-40.09699630737305 free_energy=-40.09699630737305 stress="3.209523856639862e-05 -2.3768808432578226e-07 6.558377663168358e-08 -2.3768808432578226e-07 3.226070839446038e-05 -7.54717959239315e-08 6.558377663168358e-08 -7.54717959239315e-08 3.239344368921593e-05" pbc="T T T"
Na       1.97952622       1.39973632       3.42864019      -0.00000041       0.00000020      -0.00000018
Na       5.93857840       4.19920884      10.28592059       0.00000039       0.00000000      -0.00000077
W       -0.00000057      -0.00000020       0.00000014       0.00000609       0.00000184      -0.00000112
Se       1.95629085       1.38330615       6.85728031      -0.00053007      -0.00037508      -0.00000023
Se       5.96181402       4.21563920       6.85728039       0.00052582       0.00037191       0.00000002
Se       4.96043250       1.38330781       5.12283914       0.00027212      -0.00038490      -0.00047028
Se       2.95767249       4.21563760       8.59172173      -0.00027315       0.00038597       0.00047255
Se       2.95767292       4.21563719       5.12283935      -0.00027617       0.00039027      -0.00047759
Se       4.96043219       1.38330791       8.59172148       0.00027546      -0.00039018       0.00047753
