9
Lattice="6.303964892567424 -1.6733126068120693e-06 3.6395972205753817 2.101320167849144 5.943435452630676 3.639597022069026 1.2822438352937099e-07 -1.5245107777703196e-07 7.2791942190596775" Properties=species:S:1:pos:R:3:forces:R:3 energy=-36.22611999511719 free_energy=-36.22611999511719 stress="3.104778079432435e-05 -4.2124935362153337e-07 9.188346083988108e-09 -4.2124935362153337e-07 3.132663914584555e-05 -1.2019402362284382e-08 9.188346083988108e-09 -1.2019402362284382e-08 3.159054176649079e-05" pbc="T T T"
Na       2.10132143       1.48585861       3.63959729       0.00000006      -0.00000010      -0.00000006
Na       6.30396341       4.45757506      10.91879138       0.00000045       0.00000044      -0.00000019
W       -0.00000182      -0.00000177       0.00000044       0.00000628       0.00000635      -0.00000058
Te       2.21331378       1.56504869       7.27919440       0.00472166       0.00333967      -0.00000085
Te       6.19197256       4.37838556       7.27919450      -0.00473079      -0.00334598       0.00000014
Te       5.19730481       1.56505226       5.55638802      -0.00234381       0.00331540       0.00406142
Te       3.20798086       4.37838193       9.00199999       0.00234422      -0.00331454      -0.00406209
Te       3.20798080       4.37838175       5.55638832       0.00234450      -0.00331385       0.00406082
Te       5.19730487       1.56505242       9.00199945      -0.00234251       0.00331253      -0.00405858
