9
Lattice="5.876620586693907 3.0068635382032444e-07 3.39286835238659 1.9588738226222708 5.540531460881107 3.392868334659843 -4.035123929745813e-08 -5.0243347400973675e-08 6.785736774663556" Properties=species:S:1:pos:R:3:forces:R:3 energy=-36.298980712890625 free_energy=-36.298980712890625 stress="-3.7626730318152113e-06 9.870980477444391e-08 2.3550740024802508e-08 9.870980477444391e-08 -3.886989361490123e-06 8.090730752030595e-09 2.3550740024802508e-08 8.090730752030595e-09 -3.869395186484326e-06" pbc="T T T"
Na       1.95887362       1.38513283       3.39286841       0.00000032       0.00000036      -0.00000000
Na       5.87662097       4.15539906      10.17860517      -0.00000024       0.00000037      -0.00000027
Zr       0.00000032       0.00000083       0.00000038      -0.00000196      -0.00000633      -0.00000255
Se       2.15889046       1.52656590       6.78573676       0.00313908       0.00222019       0.00000086
Se       5.67660348       4.01396553       6.78573629      -0.00313924      -0.00221767       0.00000043
Se       4.79717532       1.52656591       5.26252171      -0.00157062       0.00222182       0.00272173
Se       3.03831838       4.01396571       8.30895171       0.00157179      -0.00222096      -0.00272144
Se       3.03831876       4.01396554       5.26252173       0.00157129      -0.00222071       0.00272293
Se       4.79717617       1.52656551       8.30895168      -0.00157044       0.00222296      -0.00272160
