9
Lattice="5.66502422777145 1.1547855318787727e-07 3.2707030117142093 1.8883415473595133 5.341035881855911 3.270702961089649 1.6590935888707961e-07 5.5313419497485503e-08 6.541405736064922" Properties=species:S:1:pos:R:3:forces:R:3 energy=-38.58003234863281 free_energy=-38.58003234863281 stress="0.00011168510536663234 -1.5153462484818192e-08 3.420853289526349e-08 -1.5153462484818192e-08 0.00011171213554916903 -4.071898018764841e-08 3.420853289526349e-08 -4.071898018764841e-08 0.00011175152758369222" pbc="T T T"
Na       1.88834132       1.33525901       3.27070285      -0.00000022      -0.00000030       0.00000048
Na       5.66502433       4.00577702       9.81210887       0.00000053       0.00000030      -0.00000026
Zr       0.00000045       0.00000036       0.00000010      -0.00000143      -0.00000164       0.00000039
S        2.03195319       1.43680760       6.54140541      -0.00099897      -0.00070545      -0.00000039
S        5.52141279       3.90422826       6.54140571       0.00099990       0.00070712      -0.00000097
S        4.64904777       1.43680754       5.03042586       0.00049940      -0.00070614      -0.00086421
S        2.90431837       3.90422803       8.05238619      -0.00049926       0.00070599       0.00086486
S        2.90431823       3.90422818       5.03042588      -0.00050078       0.00070766      -0.00086591
S        4.64904741       1.43680840       8.05238591       0.00050078      -0.00070760       0.00086650
