9
Lattice="4.880928097416969 1.8679467052258754e-08 2.818005148129133 1.626976049110655 4.601783126348641 2.818005149814128 -2.421346572601442e-08 -1.5057810629415235e-08 5.636010338197216" Properties=species:S:1:pos:R:3:forces:R:3 energy=-48.09721374511719 free_energy=-48.09721374511719 stress="0.0006801870185881853 -3.469376608222774e-08 -2.0902968245195552e-08 -3.469376608222774e-08 0.0006802643765695393 1.2177499897347843e-08 -2.0902968245195552e-08 1.2177499897347843e-08 0.000680252443999052" pbc="T T T"
Na       1.62697603       1.15044577       2.81800517      -0.00000016      -0.00000004       0.00000016
Na       4.88092809       3.45133735       8.45401545       0.00000012      -0.00000015      -0.00000015
Zr       0.00000000      -0.00000006       0.00000010       0.00000061      -0.00000045      -0.00000056
O        1.68228074       1.18955219       5.63601034       0.00760579       0.00537813      -0.00000001
O        4.82562329       3.41223097       5.63601032      -0.00760573      -0.00537875      -0.00000021
O        4.03978772       1.18955217       4.27490307      -0.00380284       0.00537711       0.00658572
O        2.46811647       3.41223095       6.99711747       0.00380233      -0.00537726      -0.00658417
O        2.46811649       3.41223096       4.27490316       0.00380191      -0.00537607       0.00658441
O        4.03978764       1.18955222       6.99711747      -0.00380230       0.00537747      -0.00658506
