9
Lattice="6.500325986745652 -7.064782521225048e-08 3.752965100722233 2.1667753030222117 6.128566187874866 3.7529650302028106 9.933637434108138e-08 -1.6126732262116615e-08 7.505930029388774" Properties=species:S:1:pos:R:3:forces:R:3 energy=-34.552303314208984 free_energy=-34.552303314208984 stress="1.8309379811398685e-05 -2.0673892819900175e-08 6.200036484216298e-09 -2.0673892819900175e-08 1.8329947124584578e-05 -1.2797873871761567e-08 6.200036484216298e-09 -1.2797873871761567e-08 1.8342348994337954e-05" pbc="T T T"
Na       2.16677512       1.53214166       3.75296495       0.00000005      -0.00000015      -0.00000012
Na       6.50032629       4.59642454      11.25889518       0.00000006       0.00000021       0.00000000
Zr       0.00000020      -0.00000009       0.00000015      -0.00000068       0.00000094      -0.00000005
Te       2.34084965       1.65523072       7.50593018       0.00025033       0.00017737      -0.00000018
Te       6.32625165       4.47333516       7.50593012      -0.00025031      -0.00017632       0.00000045
Te       5.32990082       1.65523094       5.78020056      -0.00012437       0.00017603       0.00021561
Te       3.33720052       4.47333517       9.23165967       0.00012501      -0.00017721      -0.00021778
Te       3.33720065       4.47333520       5.78020046       0.00012343      -0.00017563       0.00021616
Te       5.32990065       1.65523112       9.23165936      -0.00012351       0.00017478      -0.00021416
