9
Lattice="4.4816581184086095 1.053551857732711e-07 2.587486569440052 1.4938861266813008 4.225347923891402 2.587486590429125 -1.2696128814973992e-08 1.672874820646153e-08 5.174973160870433" Properties=species:S:1:pos:R:3:forces:R:3 energy=-55.78032684326172 free_energy=-55.78032684326172 stress="7.907571125542745e-05 -1.5327104563311877e-07 -3.418035632307692e-08 -1.5327104563311877e-07 7.899988122517243e-05 -3.758739097747821e-08 -3.418035632307692e-08 -3.758739097747821e-08 7.878791075199842e-05" pbc="T T T"
Nb       1.49388494       1.05633733       2.58748725      -0.00001959       0.00000675       0.00000640
Nb       4.48165975       3.16901260       7.76246019       0.00002572       0.00002338       0.00000860
Au       0.00000011       0.00000002      -0.00000028       0.00000387       0.00000275       0.00002739
O        1.58852195       1.12325479       5.17497283      -0.00059396      -0.00041890      -0.00000324
O        4.38702231       3.10209291       5.17497298       0.00058877       0.00041059      -0.00000378
O        3.68739722       1.12325429       3.96318739       0.00030112      -0.00043169      -0.00051206
O        2.28814678       3.10209337       6.38675908      -0.00029472       0.00041181       0.00049728
O        2.28814665       3.10209302       3.96318705      -0.00030440       0.00042015      -0.00051442
O        3.68739713       1.12325393       6.38675867       0.00029415      -0.00042468       0.00049430
