9
Lattice="5.382589252840178 2.763378598448837e-08 3.1076393586042323 1.7941964342231163 5.074753714619957 3.1076393749610896 -5.269414969735993e-08 -1.7227368291400345e-08 6.215278808477372" Properties=species:S:1:pos:R:3:forces:R:3 energy=-40.93379211425781 free_energy=-40.93379211425781 stress="-0.00022488378453999758 2.134070520298792e-08 -4.676159015559733e-09 2.134070520298792e-08 -0.00022478518076241016 3.5106541673712854e-08 -4.676159015559733e-09 3.5106541673712854e-08 -0.00022477880702354014" pbc="T T T"
Nb       1.79419593       1.26868716       3.10763874      -0.00000448      -0.00001303      -0.00000727
Nb       5.38258885       3.80606658       9.32291910      -0.00000134       0.00001183       0.00000872
Au      -0.00000013       0.00000010       0.00000016       0.00000067       0.00000048      -0.00000022
S        1.93074296       1.36524080       6.21527901      -0.00604081      -0.00427759       0.00000406
S        5.24604319       3.70951252       6.21527820       0.00604194       0.00427622      -0.00000638
S        4.41721812       1.36524092       4.77971202       0.00302339      -0.00427604      -0.00523198
S        2.75956797       3.70951288       7.65084561      -0.00302023       0.00427926       0.00523043
S        2.75956777       3.70951304       4.77971193      -0.00301829       0.00427896      -0.00523025
S        4.41721780       1.36524086       7.65084544       0.00301951      -0.00428057       0.00523239
