9
Lattice="5.5448715471236625 1.1308286188871681e-07 3.2013332184584655 1.848290608619774 5.227754669917185 3.2013332421938947 6.462249626731909e-09 3.363933057160323e-08 6.402666425723981" Properties=species:S:1:pos:R:3:forces:R:3 energy=-38.110774993896484 free_energy=-38.110774993896484 stress="3.2649863896949682e-06 -2.1974900121790597e-08 -4.074660164832267e-09 -2.1974900121790597e-08 3.542161039149505e-06 3.630675138310835e-08 -4.074660164832267e-09 3.630675138310835e-08 3.1700546969659626e-06" pbc="T T T"
Nb       1.84829102       1.30694479       3.20132992       0.00000386       0.00006881      -0.00002339
Nb       5.54486954       3.92080794       9.60399682      -0.00001878      -0.00008681      -0.00001894
Au       0.00000014       0.00000006       0.00000032       0.00000191       0.00000274       0.00000059
Se       2.04693812       1.44740629       6.40266723      -0.00009912      -0.00004506       0.00000836
Se       5.34622338       3.78034947       6.40266691       0.00009385       0.00004959       0.00000412
Se       4.52140377       1.44740628       4.97403460       0.00005889      -0.00004429      -0.00008070
Se       2.87176050       3.78034752       7.83130059      -0.00004324       0.00003579       0.00009790
Se       2.87175952       3.78034897       4.97403444      -0.00004748       0.00004670      -0.00008413
Se       4.52140271       1.44740805       7.83130073       0.00004949      -0.00002751       0.00009587
