9
Lattice="5.826064239838272 3.4602882456219374e-09 3.3636797833466354 1.942021431070431 5.492865999674644 3.3636797581823203 4.478640531644627e-08 8.489380336392156e-10 6.72735948912089" Properties=species:S:1:pos:R:3:forces:R:3 energy=-39.368900299072266 free_energy=-39.368900299072266 stress="0.0003731273754965514 2.722271830180034e-08 -2.426432388347166e-08 2.722271830180034e-08 0.00037315557710826397 8.156488817689933e-09 -2.426432388347166e-08 8.156488817689933e-09 0.00037319844705052674" pbc="T T T"
Nb       1.94202153       1.37321604       3.36367972      -0.00000056      -0.00000156      -0.00000090
Nb       5.82606466       4.11964986      10.09104015       0.00000128       0.00000182       0.00000452
Be       0.00000007       0.00000008      -0.00000010      -0.00000052      -0.00000025       0.00000048
Te       1.90835186       1.34940806       6.72735967       0.00071934       0.00050542       0.00000156
Te       5.85973362       4.14345789       6.72735917      -0.00072038      -0.00050381      -0.00000336
Te       4.87188853       1.34940859       5.01636079      -0.00035673       0.00050959       0.00062126
Te       2.89619697       4.14345761       8.43835794       0.00035708      -0.00050880      -0.00062241
Te       2.89619706       4.14345744       5.01636070       0.00035553      -0.00051060       0.00062165
Te       4.87188860       1.34940849       8.43835810      -0.00035499       0.00050798      -0.00062291
