9
Lattice="4.12382384811302 1.662126375958586e-07 2.380891000650624 1.3746080032726309 3.8879791733186644 2.3808911787143807 -8.458060686894482e-08 1.582751496009586e-07 4.761782147799182" Properties=species:S:1:pos:R:3:forces:R:3 energy=-66.14669799804688 free_energy=-66.14669799804688 stress="0.000672637193929404 9.074368279016198e-08 -9.456966409970846e-08 9.074368279016198e-08 0.0006728256703354418 2.1533779204219172e-08 -9.456966409970846e-08 2.1533779204219172e-08 0.0006728549487888813" pbc="T T T"
Nb       1.37460748       0.97199650       2.38088974      -0.00000570       0.00001934      -0.00001643
Nb       4.12382324       2.91598285       7.14267418      -0.00000700      -0.00002230       0.00000741
Be       0.00000007       0.00000001       0.00000017      -0.00000016      -0.00000039      -0.00000300
O        1.39234357       0.98453600       4.76178211      -0.00804377      -0.00569111       0.00000302
O        4.10608818       2.90344384       4.76178196       0.00805116       0.00569558      -0.00000002
O        3.42765261       0.98453629       3.58669629       0.00403118      -0.00568736      -0.00696868
O        2.07077997       2.90344317       5.93686845      -0.00402850       0.00568897       0.00697315
O        2.07077986       2.90344336       3.58669612      -0.00402504       0.00569087      -0.00696844
O        3.42765211       0.98453639       5.93686838       0.00402808      -0.00569326       0.00697416
