9
Lattice="5.37219958766554 -2.2622003431601443e-08 3.1016407952051748 1.790733176808895 5.064958220355285 3.1016407913104906 7.419612941556994e-08 4.769457521059114e-08 6.203281461898895" Properties=species:S:1:pos:R:3:forces:R:3 energy=-44.154457092285156 free_energy=-44.154457092285156 stress="0.0004214683431200683 -7.006502933393222e-09 1.1279174927381064e-08 -7.006502933393222e-09 0.00042137966374866664 1.2536617965963615e-08 1.1279174927381064e-08 1.2536617965963615e-08 0.0004213012580294162" pbc="T T T"
Nb       1.79073246       1.26623939       3.10164084      -0.00000530      -0.00000045       0.00000110
Nb       5.37220086       3.79871857       9.30492209       0.00000590      -0.00000073      -0.00000086
Be      -0.00000006      -0.00000005       0.00000016      -0.00000421       0.00000536      -0.00000500
Se       1.65418596       1.16968598       6.20328160      -0.00790375      -0.00558692      -0.00000049
Se       5.50874680       3.89527231       6.20328157       0.00790542       0.00558984      -0.00000144
Se       4.54510676       1.16968602       4.53420771       0.00394964      -0.00558579      -0.00684410
Se       2.61782587       3.89527237       7.87235503      -0.00395289       0.00558704       0.00684232
Se       2.61782580       3.89527214       4.53420797      -0.00394946       0.00558126      -0.00683868
Se       4.54510696       1.16968627       7.87235522       0.00395453      -0.00558984       0.00684708
