9
Lattice="4.910193306958317 -7.916958450610544e-08 2.8349016440011163 1.6367310754412134 4.629374787453958 2.834901561272205 4.1792181950047105e-08 -7.17702860372022e-08 5.6698032156160725" Properties=species:S:1:pos:R:3:forces:R:3 energy=-46.55384826660156 free_energy=-46.55384826660156 stress="-2.670672256499529e-05 -4.355378280251898e-09 -7.248364575218602e-09 -4.355378280251898e-09 -2.6736783183878288e-05 2.2629500495696675e-09 -7.248364575218602e-09 2.2629500495696675e-09 -2.681303521967493e-05" pbc="T T T"
Nb       1.63672915       1.15734292       2.83490187      -0.00001269      -0.00000388       0.00001209
Nb       4.91019326       3.47203116       8.50470119       0.00000713       0.00000151      -0.00002177
Be       0.00000017       0.00000005       0.00000022       0.00000139      -0.00000328       0.00000779
S        1.63501838       1.15613158       5.66980387      -0.00649816      -0.00460175       0.00000245
S        4.91190591       3.47324372       5.66980486       0.00650313       0.00460717       0.00000304
S        4.09268514       1.15613202       4.25086947       0.00325581      -0.00459726      -0.00562802
S        2.45423964       3.47324211       7.08873794      -0.00325939       0.00459720       0.00563419
S        2.45423985       3.47324212       4.25086860      -0.00325282       0.00459604      -0.00563636
S        4.09268626       1.15613281       7.08873778       0.00325547      -0.00459579       0.00562683
