9
Lattice="5.91915191016543 1.0728485156399719e-07 3.417423795853557 1.9730506998001702 5.580630235548611 3.4174238617940995 1.0042908359915208e-08 8.786176141597096e-08 6.834847574312265" Properties=species:S:1:pos:R:3:forces:R:3 energy=-38.47517395019531 free_energy=-38.47517395019531 stress="-1.0843668860616162e-05 1.2505929625206136e-08 -9.599554928740872e-09 1.2505929625206136e-08 -1.084821815311443e-05 1.8293027537197304e-08 -9.599554928740872e-09 1.8293027537197304e-08 -1.0870702681131661e-05" pbc="T T T"
Nb       1.97305152       1.39515783       3.41742410       0.00000384       0.00000008       0.00000062
Nb       5.91915168       4.18547216      10.25227271      -0.00000111      -0.00000386       0.00000656
Cu      -0.00000021      -0.00000011      -0.00000021      -0.00000087       0.00000213       0.00000146
Te       2.05526077       1.45328895       6.83484792      -0.00031099      -0.00021994      -0.00000011
Te       5.83694169       4.12734160       6.83484749       0.00031006       0.00022066      -0.00000138
Te       4.89152148       1.45328948       5.19733130       0.00015436      -0.00021830      -0.00027213
Te       3.00068089       4.12734172       8.47236303      -0.00015533       0.00022030       0.00026694
Te       3.00068121       4.12734116       5.19733133      -0.00015475       0.00021783      -0.00027040
Te       4.89152148       1.45328900       8.47236322       0.00015500      -0.00021914       0.00026879
