9
Lattice="4.263728017080385 1.4854051237900143e-07 2.461664635328391 1.4212427636157923 4.019881220604321 2.4616647198345496 2.2225050344859439e-07 2.606533408849941e-07 4.923328885707619" Properties=species:S:1:pos:R:3:forces:R:3 energy=-60.5483512878418 free_energy=-60.5483512878418 stress="0.0002656882570590824 3.487695110493405e-08 -4.0801106138133036e-07 3.487695110493405e-08 0.00026628124760463834 -2.1418426854324935e-07 -4.0801106138133036e-07 -2.1418426854324935e-07 0.0002660362224560231" pbc="T T T"
Nb       1.42124290       1.00496883       2.46166389       0.00000069      -0.00002488      -0.00000792
Nb       4.26372723       3.01491390       7.38499828      -0.00001984       0.00004105       0.00007526
Cu      -0.00000033      -0.00000002      -0.00000003       0.00001188      -0.00000433       0.00000197
O        1.48886173       1.05278282       4.92332855       0.00796604       0.00561240      -0.00001307
O        4.19610952       2.96709871       4.92332784      -0.00796443      -0.00561881      -0.00001889
O        3.51929856       1.05278415       3.75105601      -0.00396863       0.00563011       0.00688276
O        2.16567272       2.96709737       6.09560160       0.00396582      -0.00562704      -0.00689399
O        2.16567439       2.96709774       3.75105571       0.00398767      -0.00562060       0.00687602
O        3.51929729       1.05278302       6.09560122      -0.00397953       0.00561246      -0.00690243
