9
Lattice="5.059877403366284 1.916599195469689e-07 2.921321776034561 1.6866259409661815 4.770498874415864 2.921321846796794 9.472813551566783e-10 8.733558394989174e-08 5.842643550428403" Properties=species:S:1:pos:R:3:forces:R:3 energy=-49.00090408325195 free_energy=-49.00090408325195 stress="-0.0001816154835978523 1.6324037233061972e-08 -3.7020146947952526e-08 1.6324037233061972e-08 -0.00018155282305087894 -4.7411528925067614e-08 -3.7020146947952526e-08 -4.7411528925067614e-08 -0.00018149794777855277" pbc="T T T"
Nb       1.68662766       1.19262191       2.92132400       0.00001286      -0.00003023       0.00003409
Nb       5.05987753       3.57787789       8.76395923      -0.00000512       0.00003275      -0.00005142
Co      -0.00000028       0.00000003       0.00000031      -0.00000264      -0.00000087       0.00000569
S        1.76442785       1.24763866       5.84264351      -0.00564355      -0.00399446      -0.00000078
S        4.98207522       3.52286065       5.84264463       0.00563943       0.00399143       0.00000232
S        4.17766243       1.24763722       4.44936186       0.00281507      -0.00399381      -0.00488251
S        2.56884049       3.52286055       7.23592673      -0.00281787       0.00399613       0.00489014
S        2.56883854       3.52286012       4.44936181      -0.00282395       0.00398880      -0.00488609
S        4.17766385       1.24763970       7.23592672       0.00282586      -0.00398976       0.00488842
