9
Lattice="4.262714483817819 -2.4664869273141124e-08 2.4610794159137894 1.4209048118375902 4.018925645722121 2.4610794035251806 -7.848265490158635e-08 -7.0668508972399e-08 4.922158967763562" Properties=species:S:1:pos:R:3:forces:R:3 energy=-67.18633270263672 free_energy=-67.18633270263672 stress="-0.000328829453792423 -4.416034471432795e-08 -4.7933514935039057e-08 -4.416034471432795e-08 -0.0003284005797468126 5.5062674420014446e-08 -4.7933514935039057e-08 5.5062674420014446e-08 -0.00032894618925638497" pbc="T T T"
Nb       1.42090426       1.00472953       2.46108033      -0.00000999      -0.00002524       0.00001459
Nb       4.26271492       3.01419557       7.38323869       0.00000797       0.00001966       0.00000563
Cr       0.00000004       0.00000004      -0.00000009       0.00000239      -0.00000426      -0.00000390
O        1.47679488       1.04425130       4.92215935      -0.00517944      -0.00366974      -0.00000091
O        4.20682432       2.97467431       4.92215879       0.00518385       0.00366780      -0.00000264
O        3.52431681       1.04425169       3.74002098       0.00258985      -0.00366965      -0.00448999
O        2.15930220       2.97467481       6.10429593      -0.00259273       0.00367844       0.00448912
O        2.15930208       2.97467389       3.74002113      -0.00259598       0.00367120      -0.00449309
O        3.52431732       1.04425113       6.10429602       0.00259498      -0.00366852       0.00448111
