9
Lattice="5.8707993333686685 8.981303320494016e-08 3.3895075871972984 1.956933165456851 5.535042796348124 3.3895076397522144 -3.259239432866901e-08 4.13200712696973e-08 6.779015230846219" Properties=species:S:1:pos:R:3:forces:R:3 energy=-43.00480270385742 free_energy=-43.00480270385742 stress="-1.995533239096403e-05 -6.721211143201344e-09 2.4169143131302917e-08 -6.721211143201344e-09 -1.9937693650717847e-05 2.445658076055679e-08 2.4169143131302917e-08 2.445658076055679e-08 -1.9940544007113203e-05" pbc="T T T"
Nb       1.95693291       1.38376038       3.38950775       0.00000011      -0.00000036       0.00000031
Nb       5.87079978       4.15128301      10.16852180       0.00000233       0.00000250      -0.00000274
Co       0.00000008      -0.00000005      -0.00000003      -0.00000078      -0.00000084      -0.00000140
Te       1.96755710       1.39127303       6.77901530       0.00328234       0.00232145       0.00000159
Te       5.86017503       4.14376993       6.77901573      -0.00328139      -0.00231972       0.00000044
Te       4.88702080       1.39127245       5.09346241      -0.00164106       0.00232048       0.00284363
Te       2.94071172       4.14376991       8.46456847       0.00163903      -0.00232098      -0.00284217
Te       2.94071149       4.14376995       5.09346212       0.00164204      -0.00232210       0.00284236
Te       4.88702095       1.39127310       8.46456828      -0.00164279       0.00231955      -0.00284199
