9
Lattice="5.163237909026651 7.4076247614910925e-09 2.980997052164824 1.7210793166541563 4.867947391719291 2.980997040627133 1.2055947859611708e-08 -5.605884040412319e-09 5.961994083448144" Properties=species:S:1:pos:R:3:forces:R:3 energy=-43.50048828125 free_energy=-43.50048828125 stress="-1.0524388926569372e-05 3.5120663710586086e-07 -1.8117113143034658e-08 3.5120663710586086e-07 -1.0749435205070768e-05 -4.931777652927849e-09 -1.8117113143034658e-08 -4.931777652927849e-09 -1.0263525837217458e-05" pbc="T T T"
Nb       1.72108265       1.21698827       2.98099512       0.00002747       0.00001388      -0.00002137
Nb       5.16323675       3.65095971       8.94299404      -0.00001983      -0.00001118       0.00002492
Cu      -0.00000012      -0.00000001       0.00000065      -0.00000165       0.00000063      -0.00000511
S        1.83425270       1.29701238       5.96199391       0.00076437       0.00053728       0.00000063
S        5.05006431       3.57093502       5.96199308      -0.00076497      -0.00053817      -0.00000931
S        4.24611219       1.29701344       4.56950618      -0.00037694       0.00055194       0.00065887
S        2.63820529       3.57093398       7.35448164       0.00037795      -0.00054502      -0.00065613
S        2.63820570       3.57093431       4.56950587       0.00038952      -0.00054669       0.00065798
S        4.24610958       1.29701243       7.35448224      -0.00039536       0.00053686      -0.00065011
