9
Lattice="5.470403306012138 -1.6681542596861162e-07 3.158338999568576 1.8234676547604185 5.157545542038444 3.158338924458552 4.935886331778315e-08 -5.7088622483761614e-08 6.316677913645106" Properties=species:S:1:pos:R:3:forces:R:3 energy=-47.46382522583008 free_energy=-47.46382522583008 stress="1.0956775440718047e-05 -1.2109079960964664e-08 -1.2485672051809615e-08 -1.2109079960964664e-08 1.0957993254123721e-05 -2.237757712464372e-08 -1.2485672051809615e-08 -2.237757712464372e-08 1.0936055332422256e-05" pbc="T T T"
Nb       1.82346734       1.28938676       3.15833769      -0.00000442       0.00000088      -0.00001107
Nb       5.47040339       3.86815996       9.47501836       0.00000226       0.00000762       0.00001170
Cr       0.00000014      -0.00000023      -0.00000018       0.00000136      -0.00000150      -0.00000459
Se       1.93918693       1.37121199       6.31667844      -0.00197303      -0.00139642       0.00000561
Se       5.35468437       3.78633286       6.31667738       0.00197613       0.00139040      -0.00000623
Se       4.50081000       1.37121141       4.83772405       0.00098735      -0.00139692      -0.00170362
Se       2.79306080       3.78633357       7.79563152      -0.00099158       0.00139713       0.00171018
Se       2.79306153       3.78633348       4.83772409      -0.00098270       0.00139710      -0.00171089
Se       4.50080949       1.37121151       7.79563201       0.00098473      -0.00139803       0.00170907
