9
Lattice="4.242896397406174 6.415350650676205e-08 2.4496375827747934 1.414298817517476 4.000241378263239 2.4496376556983286 -4.707569377714948e-08 5.602517093036863e-08 4.8992752470870915" Properties=species:S:1:pos:R:3:forces:R:3 energy=-64.01480865478516 free_energy=-64.01480865478516 stress="0.00036752180312760174 -1.1142908817873831e-07 5.7838121847453294e-08 -1.1142908817873831e-07 0.0003671954618766904 -4.975181155941755e-09 5.7838121847453294e-08 -4.975181155941755e-09 0.00036764179822057486" pbc="T T T"
Nb       1.41429865       1.00006077       2.44963786      -0.00000113       0.00000786       0.00000555
Nb       4.24289737       3.00018026       7.34891183       0.00001979      -0.00001368      -0.00001836
Co      -0.00000000       0.00000010      -0.00000003      -0.00000050       0.00000261       0.00000100
O        1.46595707       1.03658862       4.89927553      -0.00493211      -0.00348246       0.00000524
O        4.19123789       2.96365328       4.89927576       0.00492388       0.00348449       0.00001041
O        3.50991772       1.03658877       3.71919384       0.00246781      -0.00348771      -0.00427169
O        2.14727722       2.96365325       6.07935669      -0.00246704       0.00348467       0.00426596
O        2.14727692       2.96365260       3.71919385      -0.00247326       0.00348663      -0.00426733
O        3.50991793       1.03658848       6.07935672       0.00246215      -0.00348228       0.00427008
