9
Lattice="4.221726586721566 4.508050714130543e-08 2.4374150947872097 1.4072422116145964 3.9802821326585254 2.4374151406199953 -6.8648744148045695e-09 5.127926652753428e-08 4.874830201464722" Properties=species:S:1:pos:R:3:forces:R:3 energy=-71.39093017578125 free_energy=-71.39093017578125 stress="1.0706720786402002e-05 4.037944734136545e-08 -8.059883072064622e-08 4.037944734136545e-08 1.0740096513472963e-05 2.411191246665112e-08 -8.059883072064622e-08 2.411191246665112e-08 1.0900989764195401e-05" pbc="T T T"
Nb       1.40724213       0.99507059       2.43741504      -0.00000054      -0.00000143       0.00000074
Nb       4.22172659       2.98521170       7.31224573       0.00000055      -0.00000020      -0.00000031
Co       0.00000001      -0.00000004       0.00000022       0.00000381       0.00000074      -0.00000356
N        1.46187411       1.03370113       4.87483025       0.00024492       0.00017574       0.00000054
N        4.16709467       2.94658109       4.87483021      -0.00024864      -0.00017789       0.00000089
N        3.49078957       1.03370114       3.70343508      -0.00012311       0.00017840       0.00021496
N        2.13817926       2.94658105       6.04622512       0.00012313      -0.00017390      -0.00021198
N        2.13817932       2.94658119       3.70343511       0.00012445      -0.00017741       0.00021383
N        3.49078951       1.03370099       6.04622505      -0.00012425       0.00017545      -0.00021443
