9
Lattice="5.459571536098939 3.102843323773644e-08 3.1520848708337947 1.8198571582555794 5.147333281567935 3.1520849569131046 -3.0828131719834084e-08 8.362649431499157e-08 6.304169795063444" Properties=species:S:1:pos:R:3:forces:R:3 energy=-40.24033737182617 free_energy=-40.24033737182617 stress="0.0002603132161311805 4.50465584833637e-08 -4.0018761637838907e-08 4.50465584833637e-08 0.0002603564062155783 -2.241875485253786e-08 -4.0018761637838907e-08 -2.241875485253786e-08 0.00026038967189379036" pbc="T T T"
Nb       1.81985532       1.28683279       3.15208553      -0.00001922      -0.00000614       0.00000698
Nb       5.45957341       3.86049946       9.45625264       0.00001865      -0.00000382      -0.00001642
Cu       0.00000008       0.00000004       0.00000017      -0.00000033       0.00000027       0.00000042
Se       1.97421929       1.39598487       6.30416966      -0.00143486      -0.00100553      -0.00000176
Se       5.30520923       3.75134875       6.30417065       0.00143373       0.00100678       0.00000519
Se       4.47246157       1.39598356       4.86180960       0.00071731      -0.00101614      -0.00123453
Se       2.80696696       3.75134982       7.74652990      -0.00071526       0.00101730       0.00123399
Se       2.80696670       3.75134960       4.86181001      -0.00071996       0.00101426      -0.00123191
Se       4.47246209       1.39598466       7.74653033       0.00072014      -0.00100693       0.00123799
