9
Lattice="4.186056797097362 3.6627607713520384e-08 2.416821077232232 1.395352275954869 3.9466524460310564 2.416821119281385 -5.713580483057615e-09 4.745937007956588e-08 4.833642164360677" Properties=species:S:1:pos:R:3:forces:R:3 energy=-67.40534973144531 free_energy=-67.40534973144531 stress="5.846676504006609e-05 9.116844523759937e-08 -1.4895431377226487e-07 9.116844523759937e-08 5.8892994275083765e-05 -1.4978904516738112e-07 -1.4895431377226487e-07 -1.4978904516738112e-07 5.8956127759302035e-05" pbc="T T T"
Nb       1.39535209       0.98666308       2.41682114      -0.00000328      -0.00000009       0.00000168
Nb       4.18605670       2.95998971       7.25046333      -0.00000338       0.00000197       0.00000064
C       -0.00000040      -0.00000005       0.00000026      -0.00000616       0.00000283       0.00000173
O        1.29556308       0.91610130       4.83364206       0.00071487       0.00049986       0.00000251
O        4.28584627       3.03055120       4.83364230      -0.00070715      -0.00049628      -0.00000510
O        3.53827546       0.91610134       3.53881143      -0.00035064       0.00050066       0.00061244
O        2.04313370       3.03055116       6.12847283       0.00035381      -0.00050262      -0.00061545
O        2.04313385       3.03055094       3.53881141       0.00035921      -0.00050078       0.00061421
O        3.53827550       0.91610144       6.12847278      -0.00035760       0.00049485      -0.00061218
