9
Lattice="4.12573793531863 -9.820804281077006e-08 2.3819958394932406 1.3752458472881213 3.8897832817069684 2.381995906281095 -1.39537918821535e-07 -1.6870124221675187e-08 4.76399192067325" Properties=species:S:1:pos:R:3:forces:R:3 energy=-69.1935043334961 free_energy=-69.1935043334961 stress="-0.0006643796805292368 1.2373851632219157e-07 -8.482516733465673e-08 1.2373851632219157e-07 -0.0006641370127908885 -1.1519830422912491e-08 -8.482516733465673e-08 -1.1519830422912491e-08 -0.0006645108223892748" pbc="T T T"
Nb       1.37524636       0.97244612       2.38199572       0.00001214       0.00000553      -0.00000515
Nb       4.12573764       2.91733746       7.14598773       0.00001207      -0.00000137      -0.00000296
C       -0.00000992      -0.00000134       0.00000318      -0.00039148      -0.00005471       0.00012137
N        1.34755934       0.95286811       4.76399180      -0.00157464      -0.00111151       0.00000124
N        4.15343126       2.93691955       4.76399184       0.00183940       0.00129759       0.00000085
N        3.45196057       0.95286490       3.54901188       0.00089574      -0.00126171      -0.00154507
N        2.04902510       2.93691533       5.97896815      -0.00081003       0.00114560       0.00140119
N        2.04902420       2.93691685       3.54901408      -0.00084561       0.00119531      -0.00145972
N        3.45195997       0.95286570       5.97896993       0.00086337      -0.00121772       0.00148892
