9
Lattice="4.209653628927398 -2.404945048215854e-08 2.4304446470352077 1.4032178625207417 3.9688994204110957 2.4304446316448174 2.5864209825573218e-08 -5.605505285025966e-10 4.860889249272294" Properties=species:S:1:pos:R:3:forces:R:3 energy=-75.15631866455078 free_energy=-75.15631866455078 stress="0.0001246501924470067 -2.427653278402886e-08 -1.1532416976933746e-07 -2.427653278402886e-08 0.00012468412751331925 5.790045776166153e-08 -1.1532416976933746e-07 5.790045776166153e-08 0.00012478137796279043" pbc="T T T"
Nb       1.40321839       0.99222481       2.43044429       0.00000319       0.00000390      -0.00000011
Nb       4.20965392       2.97667544       7.29133327      -0.00000094       0.00000014      -0.00000456
Cr      -0.00000007      -0.00000010       0.00000002      -0.00000289      -0.00000027       0.00000094
N        1.49548151       1.05746515       4.86088940       0.00030351       0.00021636       0.00000122
N        4.11738986       2.91143426       4.86088956      -0.00030088      -0.00021422       0.00000178
N        3.46191267       1.05746480       3.72556996      -0.00015146       0.00020933       0.00026476
N        2.15095869       2.91143416       5.99620907       0.00015289      -0.00021559      -0.00026447
N        2.15095861       2.91143420       3.72556957       0.00015134      -0.00021571       0.00026417
N        3.46191255       1.05746499       5.99620897      -0.00015467       0.00021583      -0.00026482
