9
Lattice="5.428767350042978 -3.293490947053406e-08 3.1343002455264792 1.8095890578330622 5.118291030222535 3.134300293671516 9.149001487337782e-09 6.543477435121042e-08 6.268600475206368" Properties=species:S:1:pos:R:3:forces:R:3 energy=-44.38338088989258 free_energy=-44.38338088989258 stress="-0.0004480574280023575 3.1570795755442305e-08 7.127879797508285e-08 3.1570795755442305e-08 -0.0004480344941839576 1.5994432445154416e-08 7.127879797508285e-08 1.5994432445154416e-08 -0.0004479562630876899" pbc="T T T"
Nb       1.80958787       1.27957200       3.13429975      -0.00000971      -0.00000688      -0.00000531
Nb       5.42876816       3.83871978       9.40290211       0.00000780       0.00001332       0.00001023
Co      -0.00000005       0.00000011       0.00000018       0.00000039      -0.00000111      -0.00000048
Se       1.89645492       1.34099555       6.26860104       0.00563228       0.00397542       0.00000314
Se       5.34190183       3.77729510       6.26860015      -0.00562891      -0.00397864      -0.00000182
Se       4.48054073       1.34099639       4.77667831      -0.00280990       0.00398043       0.00487787
Se       2.75781590       3.77729540       7.76052249       0.00281088      -0.00397652      -0.00487703
Se       2.75781639       3.77729492       4.77667799       0.00281224      -0.00397852       0.00487497
Se       4.48053994       1.34099502       7.76052199      -0.00281525       0.00397256      -0.00488129
