9
Lattice="5.146984093861406 -5.02808944796646e-08 2.971612824256657 1.7156612878910933 4.852623159533171 2.971612875047526 -2.6320360722239076e-08 4.3594503874806904e-08 5.943225694101471" Properties=species:S:1:pos:R:3:forces:R:3 energy=-51.600257873535156 free_energy=-51.600257873535156 stress="-0.0003097558510489762 -3.810363224943103e-08 -4.917599216724966e-09 -3.810363224943103e-08 -0.0003098000888712704 3.527307113060374e-09 -4.917599216724966e-09 3.527307113060374e-09 -0.0003097706940025091" pbc="T T T"
Nb       1.71566275       1.21315431       2.97161212       0.00000815      -0.00001562       0.00000592
Nb       5.14698436       3.63946942       8.91483487      -0.00000049       0.00001809      -0.00002192
Cr      -0.00000004      -0.00000016       0.00000003      -0.00000057       0.00000320       0.00000690
S        1.83921244       1.30051880       5.94322509       0.00251961       0.00177646      -0.00000235
S        5.02343293       3.55210440       5.94322657      -0.00252485      -0.00177938       0.00000339
S        4.22737734       1.30051880       4.56441811      -0.00125709       0.00177413       0.00218099
S        2.63526752       3.55210350       7.32203528       0.00126493      -0.00178683      -0.00217968
S        2.63526634       3.55210418       4.56441856       0.00125387      -0.00177473       0.00218767
S        4.22737780       1.30051929       7.32203468      -0.00126350       0.00178468      -0.00218046
