9
Lattice="5.533597624411371 -3.595054645633897e-08 3.1948239852342777 1.8445325419532395 5.217125880709421 3.194823925691082 -3.380452852351496e-08 -9.682860387278769e-08 6.389648029019757" Properties=species:S:1:pos:R:3:forces:R:3 energy=-45.107295989990234 free_energy=-45.107295989990234 stress="4.381522103358293e-06 2.562867029709537e-09 -1.8725213379866545e-08 2.562867029709537e-09 4.3630434447550215e-06 -2.724206815685193e-08 -1.8725213379866545e-08 -2.724206815685193e-08 4.3577724682108965e-06" pbc="T T T"
Nb       1.84453329       1.30428245       3.19482639       0.00000844       0.00001150       0.00002399
Nb       5.53359804       3.91284404       9.58446961       0.00000020      -0.00000445      -0.00002179
Fe      -0.00000026       0.00000004      -0.00000020       0.00000016      -0.00000064       0.00000044
Se       1.90521321       1.34718927       6.38964675       0.00410008       0.00289953      -0.00000922
Se       5.47291662       3.86993648       6.38964940      -0.00410050      -0.00289899       0.00001122
Se       4.58099060       1.34718942       4.84478636      -0.00205296       0.00290209       0.00354916
Se       2.79713948       3.86993632       7.93450964       0.00205275      -0.00290465      -0.00355178
Se       2.79713820       3.86993591       4.84478656       0.00204295      -0.00290591       0.00355190
Se       4.58099137       1.34718899       7.93450934      -0.00205117       0.00290132      -0.00355399
