9
Lattice="5.052932995221145 5.2374961252054924e-08 2.917312239098142 1.6843111245679432 4.763950931725848 2.9173121061088585 -3.2843697760682285e-08 -1.861019060679079e-07 5.834624535083263" Properties=species:S:1:pos:R:3:forces:R:3 energy=-49.472023010253906 free_energy=-49.472023010253906 stress="0.00018577223818283528 5.304724481902667e-08 2.8296083698364782e-08 5.304724481902667e-08 0.000185356373549439 1.8337152241088006e-08 2.8296083698364782e-08 1.8337152241088006e-08 0.0001858172327047214" pbc="T T T"
Nb       1.68431173       1.19098652       2.91731284       0.00000958      -0.00000731       0.00001421
Nb       5.05293282       3.57296378       8.75193520      -0.00000459       0.00000734      -0.00001114
Fe      -0.00000018      -0.00000039      -0.00000115      -0.00000133      -0.00000278      -0.00001324
S        1.79062076       1.26616033       5.83462423       0.00196838       0.00138956       0.00000186
S        4.94662326       3.49779174       5.83462424      -0.00197518      -0.00139105       0.00000158
S        4.15762169       1.26615924       4.46803528      -0.00098884       0.00138819       0.00170970
S        2.57962085       3.49779070       7.20121484       0.00098783      -0.00139683      -0.00170398
S        2.57962150       3.49779087       4.46803519       0.00098610      -0.00138956       0.00170803
S        4.15762412       1.26616032       7.20121472      -0.00098217       0.00140214      -0.00170767
