9
Lattice="4.189879819641582 -9.98736101804636e-09 2.41902810781408 1.3966266086318109 3.9502563900570102 2.419028087894119 4.437845260910452e-08 6.983447622569681e-09 4.838056138762411" Properties=species:S:1:pos:R:3:forces:R:3 energy=-73.09068298339844 free_energy=-73.09068298339844 stress="-0.000880407344084233 -6.652812345464554e-08 -7.19270758509083e-08 -6.652812345464554e-08 -0.0008805675897747278 5.377756195912298e-08 -7.19270758509083e-08 5.377756195912298e-08 -0.0008807523408904672" pbc="T T T"
Nb       1.39662667       0.98756408       2.41902812       0.00000208       0.00000051      -0.00000136
Nb       4.18987993       2.96269256       7.25708411      -0.00000151       0.00000041       0.00000073
Fe      -0.00000003       0.00000036       0.00000008      -0.00000082      -0.00000116       0.00000093
N        1.50568555       1.06468038       4.83805635      -0.00149024      -0.00105190       0.00000396
N        4.08082079       2.88557610       4.83805599       0.00149232       0.00105420      -0.00000147
N        3.43703683       1.06468008       3.72299024       0.00074503      -0.00105587      -0.00129104
N        2.14946952       2.88557592       5.95312226      -0.00074607       0.00105372       0.00129145
N        2.14946940       2.88557563       3.72298994      -0.00074750       0.00105119      -0.00129193
N        3.43703717       1.06468056       5.95312233       0.00074658      -0.00105155       0.00128967
