9
Lattice="5.880572846873329 -3.8421191585296506e-08 3.3951502714923434 1.9601909169910285 5.544257327402899 3.3951502641188687 -1.192793455994839e-09 -9.874133581607857e-09 6.790300545050686" Properties=species:S:1:pos:R:3:forces:R:3 energy=-43.77018356323242 free_energy=-43.77018356323242 stress="1.074851297744317e-06 1.3422613243108117e-08 -9.281365898061722e-09 1.3422613243108117e-08 1.1126070376121788e-06 -1.243900804581699e-08 -9.281365898061722e-09 -1.243900804581699e-08 1.0476483112142887e-06" pbc="T T T"
Nb       1.96019012       1.38606432       3.39515051      -0.00000206      -0.00000025       0.00000069
Nb       5.88057266       4.15819340      10.18545208      -0.00000022       0.00000187       0.00000660
Fe      -0.00000004       0.00000005       0.00000033       0.00000141       0.00000121      -0.00000162
Te       1.97464354       1.39628346       6.79030042       0.00061651       0.00043461      -0.00000113
Te       5.86612061       4.14797348       6.79030028      -0.00061865      -0.00043684      -0.00000217
Te       4.89325149       1.39628374       5.10524136      -0.00030874       0.00043853       0.00053468
Te       2.94751243       4.14797346       8.47535909       0.00030742      -0.00043610      -0.00053571
Te       2.94751292       4.14797369       5.10524123       0.00031167      -0.00043698       0.00053342
Te       4.89325132       1.39628348       8.47535903      -0.00030727       0.00043403      -0.00053483
