9
Lattice="4.281199727353072 -3.6651751082735834e-09 2.4717518649568393 1.4270665969317828 4.036354017109347 2.4717518223432426 1.0352135330974538e-08 -4.487075627698623e-08 4.943503711983276" Properties=species:S:1:pos:R:3:forces:R:3 energy=-63.20508575439453 free_energy=-63.20508575439453 stress="-0.0005007547442801297 -3.362391964856215e-08 7.623235376286175e-09 -3.362391964856215e-08 -0.0005006943247281015 7.03750728803243e-08 7.623235376286175e-09 7.03750728803243e-08 -0.0005009382148273289" pbc="T T T"
Nb       1.42706519       1.00908720       2.47175175      -0.00002283      -0.00002343      -0.00000504
Nb       4.28119930       3.02726506       7.41525552      -0.00000721      -0.00000784       0.00000199
Fe      -0.00000004      -0.00000012      -0.00000023      -0.00000479      -0.00000236       0.00000104
O        1.46552309       1.03628159       4.94350318      -0.00725300      -0.00512789      -0.00001207
O        4.24274335       3.00007269       4.94350435       0.00726175       0.00512976       0.00001279
O        3.54843936       1.03628158       3.74093222       0.00364181      -0.00512575      -0.00627712
O        2.15982770       3.00007296       6.14607499      -0.00363019       0.00514322       0.00628098
O        2.15982937       3.00007340       3.74093208      -0.00361404       0.00514163      -0.00628895
O        3.54843794       1.03628145       6.14607571       0.00362863      -0.00512772       0.00628670
