9
Lattice="6.0727045362126235 -7.72203388370675e-09 3.5060775506142683 2.0242348377693204 5.725400755649193 3.506077551228297 1.4893480589714232e-08 1.1283299673183543e-08 7.012155075432272" Properties=species:S:1:pos:R:3:forces:R:3 energy=-37.54496765136719 free_energy=-37.54496765136719 stress="-1.115234408644028e-05 -1.252881443036813e-08 1.2053869014039265e-09 -1.252881443036813e-08 -1.1137565707031172e-05 3.8720626704957795e-09 1.2053869014039265e-09 3.8720626704957795e-09 -1.1100738447566982e-05" pbc="T T T"
Nb       2.02423501       1.43135032       3.50607795       0.00000089       0.00000185       0.00000195
Nb       6.07270479       4.29405071      10.51823329       0.00000229       0.00000015       0.00000385
Ge      -0.00000010      -0.00000002       0.00000021       0.00000394       0.00000022      -0.00000088
Te       2.13893414       1.51245474       7.01215516      -0.00101207      -0.00071621      -0.00000073
Te       5.95800525       4.21294616       7.01215488       0.00100852       0.00071406      -0.00000090
Te       5.00323752       1.51245493       5.35844844       0.00050605      -0.00071313      -0.00087544
Te       3.09370189       4.21294588       8.66586115      -0.00050762       0.00071612       0.00087506
Te       3.09370169       4.21294569       5.35844849      -0.00050655       0.00071397      -0.00087741
Te       5.00323739       1.51245462       8.66586113       0.00050451      -0.00071728       0.00087465
