9
Lattice="4.280522993992742 6.723767939088184e-08 2.4713610268287676 1.426841035618409 4.035715769645758 2.471361071466251 1.409045631487959e-07 1.5430408810169947e-07 4.942721809603687" Properties=species:S:1:pos:R:3:forces:R:3 energy=-65.32612609863281 free_energy=-65.32612609863281 stress="-2.793285239022225e-05 1.4587122620923765e-07 -1.721659401709985e-07 1.4587122620923765e-07 -2.771801155176945e-05 7.203810525879817e-08 -1.721659401709985e-07 7.203810525879817e-08 -2.7711139409802854e-05" pbc="T T T"
Nb       1.42684160       1.00892798       2.47135978       0.00000266      -0.00000983      -0.00001051
Nb       4.28052112       3.02678688       7.41408476      -0.00002283      -0.00000323       0.00002185
Ge       0.00000014       0.00000013      -0.00000009       0.00000579      -0.00000129      -0.00000246
O        1.47233901       1.04110043       4.94272204       0.00064015       0.00044209       0.00000342
O        4.23502538       2.99461579       4.94272152      -0.00063884      -0.00044161      -0.00000665
O        3.54435443       1.04110124       3.74644334      -0.00031251       0.00045633       0.00054777
O        2.16301063       2.99461514       6.13900046       0.00031871      -0.00044733      -0.00054622
O        2.16301032       2.99461536       3.74644358       0.00032324      -0.00044799       0.00054783
O        3.54435412       1.04110097       6.13900022      -0.00031674       0.00045317      -0.00055522
