9
Lattice="5.607691985966355 -3.8407382416151394e-08 3.2376022800209143 1.8692306490372268 5.286982578395268 3.2376022397346533 -7.213875436020215e-08 -1.0035017859455264e-07 6.475204684989816" Properties=species:S:1:pos:R:3:forces:R:3 energy=-40.426780700683594 free_energy=-40.426780700683594 stress="-3.934328560717404e-06 -7.26421589547499e-09 -4.7376307321655986e-08 -7.26421589547499e-09 -3.945061962440377e-06 -7.250232414435231e-08 -4.7376307321655986e-08 -7.250232414435231e-08 -4.0153217923943885e-06" pbc="T T T"
Nb       1.86922954       1.32174404       3.23759998      -0.00000794      -0.00001297      -0.00001957
Nb       5.60769249       3.96523835       9.71281233       0.00000633       0.00001154       0.00004668
Ge      -0.00000012       0.00000002       0.00000014       0.00000115      -0.00000240       0.00000092
Se       1.98092818       1.40072639       6.47520515      -0.00011775      -0.00009203       0.00000580
Se       5.49599464       3.88625569       6.47520239       0.00011826       0.00009167      -0.00001954
Se       4.61722939       1.40072815       4.95313567       0.00006978      -0.00007653      -0.00010234
Se       2.85969300       3.88625526       7.99727259      -0.00007346       0.00008431       0.00009751
Se       2.85969507       3.88625598       4.95313614      -0.00005350       0.00009364      -0.00010425
Se       4.61722801       1.40072588       7.99727243       0.00005721      -0.00009730       0.00009447
