9
Lattice="4.222804253986192 4.959357356950362e-09 2.43803708618167 1.4076014024406625 3.981298158097367 2.438037121221813 1.444357133162891e-09 4.393656818668053e-08 4.876074169861628" Properties=species:S:1:pos:R:3:forces:R:3 energy=-66.71075439453125 free_energy=-66.71075439453125 stress="0.0007639409741386771 -1.203304407226824e-07 2.1150633244815253e-07 -1.203304407226824e-07 0.0007641338161192834 -1.8805678791977698e-07 2.1150633244815253e-07 -1.8805678791977698e-07 0.000763854302931577" pbc="T T T"
Nb       1.40760134       0.99532450       2.43803745       0.00000325       0.00000327      -0.00000261
Nb       4.22280459       2.98597375       7.31411122      -0.00000103      -0.00000475       0.00000533
Ge      -0.00000020      -0.00000013      -0.00000021       0.00000438       0.00000010       0.00000209
N        1.51550154       1.07162142       4.87607417      -0.00651968      -0.00461179       0.00000097
N        4.11490410       2.90967688       4.87607431       0.00652039       0.00461078       0.00000136
N        3.46505324       1.07162159       3.75049980       0.00325900      -0.00461173      -0.00564408
N        2.16535195       2.90967698       6.00164833      -0.00326169       0.00461113       0.00564480
N        2.16535264       2.90967599       3.75050019      -0.00326586       0.00461829      -0.00565523
N        3.46505345       1.07162168       6.00164827       0.00326204      -0.00461543       0.00564998
