9
Lattice="5.4881043269231675 1.2482442481348734e-08 3.168558445719577 1.8293681325232818 5.174234290774072 3.168558425315432 -6.401852102604393e-09 -2.951667406998935e-08 6.337116902527501" Properties=species:S:1:pos:R:3:forces:R:3 energy=-43.782100677490234 free_energy=-43.782100677490234 stress="-5.733247598982416e-05 -1.3430295986438523e-08 8.018941066723073e-09 -1.3430295986438523e-08 -5.732664430979639e-05 3.087641431420707e-08 8.018941066723073e-09 3.087641431420707e-08 -5.733491343562491e-05" pbc="T T T"
Nb       1.82936817       1.29355794       3.16855799       0.00000047      -0.00001118      -0.00000761
Nb       5.48810329       3.88067666       9.50567590      -0.00001094       0.00001486       0.00001237
Ge       0.00000011       0.00000006       0.00000017      -0.00000294      -0.00000215      -0.00000010
S        1.87060441       1.32271557       6.33711678      -0.00114602      -0.00082338       0.00000214
S        5.44686847       3.85151790       6.33711615       0.00115317       0.00081903      -0.00000874
S        4.55280262       1.32271631       4.78854885       0.00057846      -0.00081515      -0.00099689
S        2.76467001       3.85151772       7.88568515      -0.00057545       0.00081664       0.00099832
S        2.76467044       3.85151849       4.78854890      -0.00057101       0.00082010      -0.00099766
S        4.55280226       1.32271645       7.88568520       0.00057432      -0.00081909       0.00099820
