9
Lattice="4.374547058411575 -1.9650358882979952e-08 2.5256458755322333 1.45818233700457 4.124362434121641 2.5256458708085168 -3.2171352927415484e-08 -2.853392865666584e-08 5.051291806786883" Properties=species:S:1:pos:R:3:forces:R:3 energy=-73.92145538330078 free_energy=-73.92145538330078 stress="-5.20794783369638e-05 -1.5867371416788956e-08 5.542930026081194e-08 -1.5867371416788956e-08 -5.2036608394701034e-05 -5.1289362090756185e-08 5.542930026081194e-08 -5.1289362090756185e-08 -5.216096906224266e-05" pbc="T T T"
Nb       1.45818255       1.03109038       2.52564599       0.00000105      -0.00000123      -0.00000045
Nb       4.37454715       3.09327194       7.57693774       0.00000019      -0.00000083      -0.00000008
Hf       0.00000002       0.00000012      -0.00000017      -0.00000113      -0.00000319       0.00000276
N        1.64680866       1.16446976       5.05129148       0.00198013       0.00140014      -0.00000363
N        4.18592038       2.95989293       5.05129155      -0.00197881      -0.00139603      -0.00000255
N        3.55114263       1.16446934       3.95182412      -0.00099102       0.00140074       0.00171864
N        2.28158687       2.95989256       6.15075952       0.00099060      -0.00140092      -0.00171232
N        2.28158655       2.95989276       3.95182426       0.00098917      -0.00139925       0.00171441
N        3.55114256       1.16446967       6.15075971      -0.00099036       0.00140068      -0.00171608
