9
Lattice="4.344414490989837 -9.777189107492382e-08 2.5082488995058543 1.4481380667134245 4.095953227230214 2.508248907767092 -2.917934928063317e-08 -1.0515025208130325e-08 5.016497849551856" Properties=species:S:1:pos:R:3:forces:R:3 energy=-70.55313873291016 free_energy=-70.55313873291016 stress="0.00011583069863263518 2.57905725220553e-07 3.2691964690911846e-09 2.57905725220553e-07 0.00011534611257957295 -5.3825672807761293e-08 3.2691964690911846e-09 -5.3825672807761293e-08 0.00011573955998755991" pbc="T T T"
Nb       1.44813814       1.02398835       2.50824937       0.00000040       0.00000109       0.00000304
Nb       4.34441376       3.07196451       7.52474753      -0.00001063      -0.00000427       0.00000694
Ir      -0.00000008      -0.00000005      -0.00000027      -0.00000243      -0.00000704       0.00001577
N        1.56936409       1.10970801       5.01649776       0.00017881       0.00012916      -0.00000326
N        4.22318854       2.98624527       5.01649774      -0.00017381      -0.00012213      -0.00000202
N        3.55973263       1.10970823       3.86735796      -0.00008476       0.00013041       0.00015247
N        2.23282023       2.98624515       6.16563750       0.00009465      -0.00013113      -0.00015837
N        2.23282062       2.98624519       3.86735775       0.00009429      -0.00012839       0.00014949
N        3.55973227       1.10970769       6.16563748      -0.00009704       0.00013179      -0.00016373
