9
Lattice="4.210763387132717 6.31028695466784e-08 2.4310852749103846 1.4035878209053418 3.9699458778015178 2.431085334318898 4.0458838444702786e-08 1.0136899194045403e-07 4.862170479743993" Properties=species:S:1:pos:R:3:forces:R:3 energy=-74.85336303710938 free_energy=-74.85336303710938 stress="8.56773021951085e-06 -9.114798160680948e-08 -4.203371517519372e-08 -9.114798160680948e-08 8.57728718983708e-06 -9.836555570075234e-09 -4.203371517519372e-08 -9.836555570075234e-09 8.709103894943837e-06" pbc="T T T"
Nb       1.40358782       0.99248642       2.43108539       0.00000006      -0.00000027      -0.00000028
Nb       4.21076350       2.97745943       7.29325617      -0.00000018      -0.00000091      -0.00000034
Mn      -0.00000003      -0.00000002      -0.00000013       0.00000040       0.00000069       0.00000016
N        1.49774545       1.05906585       4.86217050      -0.00498414      -0.00352573      -0.00000007
N        4.11660572       2.91088031       4.86217054       0.00498325       0.00352633      -0.00000132
N        3.46189071       1.05906616       3.72817074       0.00249422      -0.00352442      -0.00431907
N        2.15246029       2.91087994       5.99617022      -0.00249705       0.00352657       0.00431931
N        2.15246053       2.91087987       3.72817070      -0.00249329       0.00352526      -0.00431973
N        3.46189092       1.05906627       5.99617023       0.00249690      -0.00352734       0.00432110
