9
Lattice="5.164523964308918 2.5258993315504195e-08 2.9817393682770956 1.7215080227973594 4.869159659452448 2.9817393494323556 7.372940602611108e-08 2.9054629738743013e-08 5.963478608851066" Properties=species:S:1:pos:R:3:forces:R:3 energy=-42.76350402832031 free_energy=-42.76350402832031 stress="7.155495404731482e-05 1.7414778596958058e-07 -3.732250419830052e-08 1.7414778596958058e-07 7.107691635610536e-05 1.469192589809154e-08 -3.732250419830052e-08 1.469192589809154e-08 7.114293111953884e-05" pbc="T T T"
Nb       1.72150898       1.21729138       2.98173827       0.00000205       0.00001009      -0.00000774
Nb       5.16452564       3.65186913       8.94521932       0.00000522      -0.00000774       0.00000772
Mg      -0.00000016      -0.00000015       0.00000024      -0.00000272      -0.00000566      -0.00000752
S        1.84195675       1.30246138       5.96347871       0.00537738       0.00380889       0.00000178
S        5.04407463       3.56669866       5.96347848      -0.00537154      -0.00380385      -0.00000035
S        4.24354535       1.30246115       4.57692110      -0.00268742       0.00380662       0.00465932
S        2.64248604       3.56669848       7.35003590       0.00268181      -0.00380346      -0.00465265
S        2.64248671       3.56669883       4.57692141       0.00268841      -0.00380394       0.00465566
S        4.24354435       1.30246016       7.35003594      -0.00269295       0.00379911      -0.00465617
