9
Lattice="5.413242112275619 1.1886260945767114e-08 3.125336856745698 1.8044140545439527 5.103653239768271 3.1253368465053173 1.3986722549657967e-07 8.635922410814834e-08 6.250673471234222" Properties=species:S:1:pos:R:3:forces:R:3 energy=-39.38387680053711 free_energy=-39.38387680053711 stress="4.7439421905437484e-05 4.4603773119433754e-08 -3.0484429203170293e-08 4.4603773119433754e-08 4.751769665745087e-05 4.914874196515484e-08 -3.0484429203170293e-08 4.914874196515484e-08 4.748055289383046e-05" pbc="T T T"
Nb       1.80441348       1.27591358       3.12533753      -0.00000294       0.00000312       0.00000937
Nb       5.41324227       3.82773918       9.37600726       0.00000157      -0.00000639      -0.00002434
Mg       0.00000002       0.00000000       0.00000029      -0.00000147      -0.00000056      -0.00000099
Se       1.98142120       1.40107679       6.25067356       0.00004292       0.00003409       0.00000077
Se       5.23623513       3.70257612       6.25067561      -0.00004074      -0.00003445       0.00001105
Se       4.42253134       1.40107649       4.84129793      -0.00002521       0.00003248       0.00003919
Se       2.79512527       3.70257751       7.66004912       0.00002633      -0.00002965      -0.00004011
Se       2.79512440       3.70257683       4.84129812       0.00002129      -0.00003448       0.00004205
Se       4.42253214       1.40107681       7.66004929      -0.00002156       0.00003582      -0.00003713
