9
Lattice="5.918698398342586 1.7952350863776393e-08 3.4171620530432487 1.97289945433078 5.580202425679333 3.4171621027688066 -3.468587003956555e-08 3.637450111622195e-08 6.8343241661641665" Properties=species:S:1:pos:R:3:forces:R:3 energy=-44.26182174682617 free_energy=-44.26182174682617 stress="-5.092532956041396e-05 -2.1372787983864328e-08 1.6803454627734027e-08 -2.1372787983864328e-08 -5.09216079080943e-05 7.0624670556185265e-09 1.6803454627734027e-08 7.0624670556185265e-09 -5.0959319196408615e-05" pbc="T T T"
Nb       1.97289942       1.39505057       3.41716220      -0.00000016      -0.00000072       0.00000048
Nb       5.91869893       4.18515191      10.25148672       0.00000360      -0.00000004       0.00000251
Mn      -0.00000009       0.00000006      -0.00000029       0.00000049      -0.00000140       0.00000060
Te       2.01695772       1.42620457       6.83432420       0.00185680       0.00131328       0.00000075
Te       5.87464004       4.15399784       6.83432388      -0.00185835      -0.00131387      -0.00000150
Te       4.91021944       1.42620463       5.16389865      -0.00092972       0.00131406       0.00160745
Te       2.98137815       4.15399787       8.50474957       0.00092874      -0.00131225      -0.00160722
Te       2.98137816       4.15399795       5.16389873       0.00092857      -0.00131316       0.00160841
Te       4.91021953       1.42620454       8.50474961      -0.00092981       0.00131439      -0.00161145
