9
Lattice="4.374833884212456 -2.0811609267211197e-08 2.5258114433369316 1.4582779605913063 4.124632766045207 2.525811410759621 4.1833483003328145e-08 -1.0318165140334109e-08 5.051622814216157" Properties=species:S:1:pos:R:3:forces:R:3 energy=-74.82678985595703 free_energy=-74.82678985595703 stress="-0.00023059462546370924 1.2695888074176764e-07 4.332105163484812e-08 1.2695888074176764e-07 -0.00023070703900884837 -8.44915870601426e-09 4.332105163484812e-08 -8.44915870601426e-09 -0.00023072739713825285" pbc="T T T"
Nb       1.45827820       1.03115834       2.52581134       0.00000096       0.00000012       0.00000119
Nb       4.37483397       3.09347455       7.57743435       0.00000172       0.00000162       0.00000103
Mo       0.00000009       0.00000015       0.00000018      -0.00000061      -0.00000452      -0.00000475
N        1.58705245       1.12221529       5.05162252       0.00503469       0.00355887      -0.00000082
N        4.24605958       3.00241717       5.05162272      -0.00503039      -0.00355971      -0.00000005
N        3.58130780       1.12221531       3.90023900      -0.00251716       0.00356162       0.00436354
N        2.25180397       3.00241751       6.20300664       0.00251484      -0.00356090      -0.00436127
N        2.25180392       3.00241725       3.90023895       0.00251657      -0.00355953       0.00436080
N        3.58130755       1.12221536       6.20300700      -0.00252092       0.00356197      -0.00435948
