9
Lattice="4.240562620490374 2.376342102560911e-08 2.448289964053641 1.4135208778825812 3.998040914357682 2.448289995262735 -1.1847669503518613e-07 -4.5552490176117606e-08 4.896580133314956" Properties=species:S:1:pos:R:3:forces:R:3 energy=-60.08915710449219 free_energy=-60.08915710449219 stress="0.00019699089170899242 -1.6017226300846232e-07 3.739370129096642e-07 -1.6017226300846232e-07 0.00019724761659745127 4.984506745131512e-07 3.739370129096642e-07 4.984506745131512e-07 0.00019651935144793242" pbc="T T T"
Nb       1.41352025       0.99950857       2.44829173      -0.00000871      -0.00002417       0.00002567
Nb       4.24056453       2.99853095       7.34486651       0.00002971       0.00000521      -0.00005977
Mg       0.00000010       0.00000017       0.00000021       0.00000301      -0.00000444      -0.00000717
O        1.47939711       1.04609205       4.89657965      -0.00266986      -0.00188300      -0.00000949
O        4.17468604       2.95194934       4.89658189       0.00266057       0.00189278       0.00003033
O        3.50086326       1.04609177       3.72948599       0.00133093      -0.00189357      -0.00230965
O        2.15321910       2.95194925       6.06367386      -0.00134205       0.00190030       0.00231400
O        2.15321909       2.95194938       3.72948658      -0.00134670       0.00189485      -0.00229973
O        3.50086420       1.04609205       6.06367404       0.00134251      -0.00188807       0.00231607
