9
Lattice="5.452526383148674 -1.0357824114096491e-07 3.148017640709047 1.8175087155568441 5.140691229759593 3.1480176080971387 -4.87926831440453e-08 -7.44428990842394e-08 6.2960353659294785" Properties=species:S:1:pos:R:3:forces:R:3 energy=-46.265228271484375 free_energy=-46.265228271484375 stress="-0.0001938674395205453 -6.719879763750214e-08 -2.208711613604919e-08 -6.719879763750214e-08 -0.00019389620865695179 2.6990846890839748e-08 -2.208711613604919e-08 2.6990846890839748e-08 -0.00019399150914978236" pbc="T T T"
Nb       1.81751325       1.28517440       3.14801712       0.00004664       0.00001694      -0.00000320
Nb       5.45252269       3.85551942       9.44405050      -0.00003658       0.00000829      -0.00001953
Mn      -0.00000024       0.00000013      -0.00000013       0.00000083      -0.00000398       0.00000258
Se       1.95770420       1.38430445       6.29603503       0.00334978       0.00235465      -0.00000439
Se       5.31233119       3.75638607       6.29603598      -0.00334716      -0.00235936       0.00000284
Se       4.47367417       1.38430483       4.84343915      -0.00167900       0.00236061       0.00289762
Se       2.79636164       3.75638447       7.74863333       0.00167939      -0.00237027      -0.00288057
Se       2.79636046       3.75638457       4.84343818       0.00167239      -0.00237215       0.00288880
Se       4.47367291       1.38430593       7.74863335      -0.00168580       0.00236514      -0.00288421
