9
Lattice="4.26795014206055 -1.4084481373860704e-07 2.4641021230812914 1.4226499498698957 4.023861600412631 2.4641020619292453 -8.568872252695507e-09 -8.09547570372498e-08 4.928204261004305" Properties=species:S:1:pos:R:3:forces:R:3 energy=-67.14852142333984 free_energy=-67.14852142333984 stress="3.782933345064521e-05 7.083867359369833e-08 4.4645023677958307e-08 7.083867359369833e-08 3.7599660572595894e-05 8.40119156464425e-08 4.4645023677958307e-08 8.40119156464425e-08 3.756497608264908e-05" pbc="T T T"
Nb       1.42264966       1.00596634       2.46410164      -0.00000760       0.00000985      -0.00000855
Nb       4.26794920       3.01789551       7.39230474      -0.00001297      -0.00000572      -0.00001938
Mn       0.00000007      -0.00000017       0.00000014       0.00000194       0.00000747      -0.00000363
O        1.46760837       1.03775606       4.92820421      -0.00217693      -0.00153445       0.00000326
O        4.22299171       2.98610566       4.92820462       0.00217442       0.00152633       0.00000392
O        3.53414584       1.03775500       3.73508841       0.00108443      -0.00153095      -0.00187333
O        2.15645474       2.98610518       6.12132106      -0.00107451       0.00152479       0.00189032
O        2.15645444       2.98610630       3.73508859      -0.00107964       0.00153604      -0.00187342
O        3.53414630       1.03775560       6.12132035       0.00109074      -0.00153388       0.00188065
