9
Lattice="5.134175941728208 1.2660614580616387e-08 2.9642178082299244 1.7113920150011424 4.840547228484208 2.964217769278622 3.3447497478193395e-08 -2.4054454705463593e-08 5.92843555852707" Properties=species:S:1:pos:R:3:forces:R:3 energy=-50.11719512939453 free_energy=-50.11719512939453 stress="-0.00014692568220198154 -3.6232481903653024e-08 2.8067184132396505e-08 -3.6232481903653024e-08 -0.00014685382484458387 4.471472525580111e-09 2.8067184132396505e-08 4.471472525580111e-09 -0.00014706767979077995" pbc="T T T"
Nb       1.71139650       1.21014100       2.96421374       0.00005079       0.00005172      -0.00004063
Nb       5.13417178       3.63040316       8.89265583      -0.00004602      -0.00007150       0.00002825
Mn      -0.00000061       0.00000086       0.00000130      -0.00000257       0.00000568       0.00000589
S        1.82560691       1.29090037       5.92843743      -0.00356376      -0.00251353       0.00001028
S        5.01996074       3.54964779       5.92843401       0.00356388       0.00251162      -0.00001267
S        4.22137081       1.29090037       4.54523858       0.00177121      -0.00250745      -0.00308633
S        2.62419560       3.54964561       7.31163183      -0.00178552       0.00250804       0.00309670
S        2.62419826       3.54964714       4.54523854      -0.00176710       0.00251400      -0.00309765
S        4.22137210       1.29090267       7.31163352       0.00177944      -0.00249827       0.00309682
