9
Lattice="5.890122721947821 -1.6639779949680432e-07 3.4006639915576304 1.9633741220210554 5.553260807626823 3.4006639253012363 3.8394446716368245e-08 -5.39981662964978e-08 6.801327916614095" Properties=species:S:1:pos:R:3:forces:R:3 energy=-41.241607666015625 free_energy=-41.241607666015625 stress="-2.4885193852242082e-06 -4.673615716654922e-09 -1.921594794396242e-08 -4.673615716654922e-09 -2.451494765409734e-06 -9.907507703132978e-09 -1.921594794396242e-08 -9.907507703132978e-09 -2.444111714794417e-06" pbc="T T T"
Nb       1.96337453       1.38831469       3.40066414       0.00000288      -0.00000400       0.00000134
Nb       5.89012227       4.16494537      10.20199156      -0.00000206       0.00000022       0.00000126
Ni      -0.00000013       0.00000001       0.00000015       0.00000210      -0.00000082      -0.00000099
Te       2.01372165       1.42391612       6.80132792       0.00003058       0.00002238      -0.00000004
Te       5.83977509       4.12934471       6.80132799      -0.00003169      -0.00001968       0.00000105
Te       4.88326162       1.42391623       5.14459818      -0.00001416       0.00002369       0.00002337
Te       2.97023541       4.12934448       8.45805756       0.00001358      -0.00002083      -0.00002469
Te       2.97023518       4.12934435       5.14459829       0.00001282      -0.00001973       0.00002538
Te       4.88326189       1.42391638       8.45805761      -0.00001411       0.00001886      -0.00002664
