9
Lattice="5.458587712205739 -2.075562867800271e-08 3.1515170752887816 1.8195292133874519 5.146405697740444 3.151517082989233 -7.916730470579658e-08 -4.654862425349394e-08 6.303034287699298" Properties=species:S:1:pos:R:3:forces:R:3 energy=-42.86708450317383 free_energy=-42.86708450317383 stress="0.00027532438980415463 2.204254023752128e-08 -2.1765739433021736e-08 2.204254023752128e-08 0.00027537564164958894 -3.5711348544964494e-08 -2.1765739433021736e-08 -3.5711348544964494e-08 0.000275303958915174" pbc="T T T"
Nb       1.81952831       1.28660398       3.15151634      -0.00001013       0.00002185      -0.00000581
Nb       5.45858745       3.85980447       9.45455224       0.00000155      -0.00000048       0.00001108
Ni       0.00000016      -0.00000008      -0.00000032      -0.00000054      -0.00000438       0.00000451
Se       1.90874863       1.34968989       6.30303425      -0.00445166      -0.00314587       0.00000200
Se       5.36936808       3.79671536       6.30303372       0.00445837       0.00314397      -0.00000525
Se       4.50421375       1.34968896       4.80454288       0.00223210      -0.00315014      -0.00385490
Se       2.77390368       3.79671505       7.80152700      -0.00222753       0.00313994       0.00386027
Se       2.77390407       3.79671597       4.80454198      -0.00222628       0.00314724      -0.00386342
Se       4.50421324       1.34968882       7.80152576       0.00222401      -0.00315210       0.00385165
