9
Lattice="5.137770925757197 -1.220151719031026e-07 2.9662933386293315 1.7125901677121305 4.843936560837559 2.9662933833796092 -7.498937650061443e-08 1.7822534179312116e-09 5.9325868071439505" Properties=species:S:1:pos:R:3:forces:R:3 energy=-46.650787353515625 free_energy=-46.650787353515625 stress="6.938596015970688e-06 1.1683967215958546e-07 1.2074030664166457e-09 1.1683967215958546e-07 7.5248335633659735e-06 -4.9188773054709145e-09 1.2074030664166457e-09 -4.9188773054709145e-09 7.070509127515834e-06" pbc="T T T"
Nb       1.71259205       1.21098902       2.96629191       0.00002203       0.00005901      -0.00001053
Nb       5.13776914       3.63294755       8.89887918      -0.00002051      -0.00005655      -0.00000219
Ni      -0.00000008      -0.00000010       0.00000012      -0.00000182       0.00000236       0.00000822
S        1.77257817       1.25340321       5.93258632       0.00142545       0.00101689      -0.00000190
S        5.07778296       3.59053302       5.93258626      -0.00142682      -0.00101763      -0.00000193
S        4.25148185       1.25340373       4.50139147      -0.00070882       0.00101584       0.00122851
S        2.59888036       3.59053232       7.36378347       0.00071836      -0.00102383      -0.00122935
S        2.59887920       3.59053295       4.50139164       0.00071079      -0.00101599       0.00123364
S        4.25148041       1.25340406       7.36378360      -0.00071806       0.00102019      -0.00122482
