9
Lattice="4.2678462814889215 -3.555798673656536e-08 2.46404225416694 1.4226154249938538 4.02376377865335 2.4640421998580027 2.50404793102375e-08 -4.8808293928517325e-08 4.928084464962505" Properties=species:S:1:pos:R:3:forces:R:3 energy=-60.24650955200195 free_energy=-60.24650955200195 stress="-0.00017651091911830008 -5.944409409153195e-08 -1.7863095536085893e-07 -5.944409409153195e-08 -0.0001765829074429348 -1.860465381753329e-08 -1.7863095536085893e-07 -1.860465381753329e-08 -0.00017666038183961064" pbc="T T T"
Nb       1.42261447       1.00594006       2.46404143      -0.00001305      -0.00001347      -0.00001046
Nb       4.26784807       3.01782343       7.39212950       0.00002427       0.00001191       0.00004502
Ni      -0.00000003      -0.00000008      -0.00000005       0.00000256       0.00000216      -0.00000144
O        1.44481743       1.02164046       4.92808454       0.00108458       0.00077070      -0.00000057
O        4.24564401       3.00212348       4.92808366      -0.00109053      -0.00077010      -0.00001148
O        3.54543769       1.02164046       3.71529092      -0.00053781       0.00076735       0.00093981
O        2.14502380       3.00212382       6.14087718       0.00053661      -0.00076411      -0.00095140
O        2.14502432       3.00212352       3.71529090       0.00054363      -0.00076890       0.00094201
O        3.54543715       1.02163964       6.14087752      -0.00055053       0.00076473      -0.00095041
