9
Lattice="4.322804949673107 -3.8054358451903426e-08 2.495772534730515 1.440934958190032 4.075579589466303 2.4957725159487616 -3.7865568086026814e-08 -4.977786336046659e-08 4.991545135046101" Properties=species:S:1:pos:R:3:forces:R:3 energy=-75.15983581542969 free_energy=-75.15983581542969 stress="-8.706452354090288e-05 8.183150157492491e-08 4.456330060520486e-08 8.183150157492491e-08 -8.72220189194195e-05 -1.3279650268316345e-08 4.456330060520486e-08 -1.3279650268316345e-08 -8.709923713468015e-05" pbc="T T T"
Nb       1.44093516       1.01889472       2.49577249       0.00000158      -0.00000150      -0.00000087
Nb       4.32280494       3.05668437       7.48731720      -0.00000023      -0.00000178      -0.00000067
Os      -0.00000003       0.00000002       0.00000019      -0.00000571      -0.00000263      -0.00001390
N        1.51678268       1.07252794       4.99154517       0.00087678       0.00062740      -0.00000195
N        4.24695692       3.00305190       4.99154528      -0.00087214      -0.00061637       0.00000193
N        3.56441319       1.07252754       3.80934524      -0.00044250       0.00062120       0.00076270
N        2.19932674       3.00305205       6.17374496       0.00043935      -0.00061709      -0.00075614
N        2.19932684       3.00305213       3.80934509       0.00044316      -0.00062639       0.00076675
N        3.56441307       1.07252734       6.17374501      -0.00043958       0.00061828      -0.00075781
