9
Lattice="4.340665350629265 5.983027564336786e-08 2.506084258973434 1.4468885036676848 4.092418626794325 2.5060842640840346 -4.676647352735311e-09 2.952280952508294e-09 5.012168526047072" Properties=species:S:1:pos:R:3:forces:R:3 energy=-66.36952209472656 free_energy=-66.36952209472656 stress="-0.00015368197637144476 9.579967752415541e-08 1.5507366413203272e-07 9.579967752415541e-08 -0.00015403050929307938 -1.2844584773574752e-07 1.5507366413203272e-07 -1.2844584773574752e-07 -0.00015392193745356053" pbc="T T T"
Nb       1.44688800       1.02310461       2.50608445      -0.00000117      -0.00000015      -0.00000311
Nb       4.34066532       3.06931367       7.51825254      -0.00000551      -0.00000254      -0.00000479
Pt       0.00000012       0.00000008      -0.00000026      -0.00000312      -0.00000090       0.00003330
N        1.57460960       1.11341756       5.01216837       0.00638866       0.00452155      -0.00000251
N        4.21294407       2.97900153       5.01216920      -0.00638920      -0.00451827       0.00000793
N        3.55336015       1.11341757       3.86973590      -0.00319439       0.00452334       0.00553036
N        2.23419337       2.97900139       6.15460134       0.00320375      -0.00453258      -0.00554538
N        2.23419386       2.97900142       3.86973624       0.00319785      -0.00451267       0.00553358
N        3.55336090       1.11341684       6.15460044      -0.00319633       0.00452250      -0.00555086
