9
Lattice="4.412337151278366 1.435897486270891e-07 2.547464135347052 1.4707791764520428 4.159991574998978 2.5474641515448053 1.553187550695832e-07 1.2966507111080076e-07 5.094928001674143" Properties=species:S:1:pos:R:3:forces:R:3 energy=-58.375022888183594 free_energy=-58.375022888183594 stress="-0.0002963723964057863 -4.539248266155482e-08 -4.867979441769421e-07 -4.539248266155482e-08 -0.00029655551770702004 -4.4718859726344817e-07 -4.867979441769421e-07 -4.4718859726344817e-07 -0.00029689367511309683" pbc="T T T"
Nb       1.47077770       1.03999752       2.54746086      -0.00002173      -0.00000757      -0.00005285
Nb       4.41233979       3.11999432       7.64239724       0.00003189       0.00000525       0.00006408
Pb      -0.00000005      -0.00000012      -0.00000025       0.00000044      -0.00000060       0.00001162
N        1.73761228       1.22867842       5.09493066      -0.00434956      -0.00306499       0.00004632
N        4.14550448       2.93131315       5.09492188       0.00434980       0.00305438      -0.00009129
N        3.54353371       1.22867720       4.05228240       0.00221632      -0.00306690      -0.00373396
N        2.33958065       2.93131185       6.13757420      -0.00224261       0.00304440       0.00374275
N        2.33958725       2.93131820       4.05228314      -0.00214303       0.00312927      -0.00373161
N        3.54353007       1.22867688       6.13757503       0.00215825      -0.00309327       0.00374565
