9
Lattice="4.150796199517382 -3.447295627067338e-08 2.3964632889616073 1.3835987920328683 3.913407753796748 2.396463130718299 1.360179613195443e-07 -9.762845182806738e-08 4.792926342333189" Properties=species:S:1:pos:R:3:forces:R:3 energy=-72.20390319824219 free_energy=-72.20390319824219 stress="-0.0001275356626138091 -7.13551742137497e-08 2.8727345835477536e-08 -7.13551742137497e-08 -0.00012782856356352568 -2.57835068850909e-07 2.8727345835477536e-08 -2.57835068850909e-07 -0.00012718643120024353" pbc="T T T"
Nb       1.38359843       0.97835167       2.39646327      -0.00000130       0.00000204       0.00000070
Nb       4.15079631       2.93505585       7.18938960       0.00000125      -0.00000003      -0.00000031
P        0.00000015       0.00000003      -0.00000011      -0.00000227       0.00000195      -0.00000148
N        1.40315821       0.99218222       4.79292606      -0.00021231      -0.00014937      -0.00000030
N        4.13123692       2.92122528       4.79292616       0.00021148       0.00015044       0.00000184
N        3.44921764       0.99218259       3.61163380       0.00010693      -0.00014746      -0.00018358
N        2.08517782       2.92122533       5.97421917      -0.00010365       0.00014210       0.00018001
N        2.08517757       2.92122533       3.61163381      -0.00010681       0.00014937      -0.00018287
N        3.44921753       0.99218225       5.97421908       0.00010675      -0.00014937       0.00018454
