9
Lattice="5.542609878747613 -7.716564015119984e-08 3.200027162153971 1.8475365793087233 5.225622393365975 3.2000271174462656 9.948518576156015e-08 1.5591150673162665e-08 6.400054151994582" Properties=species:S:1:pos:R:3:forces:R:3 energy=-41.671287536621094 free_energy=-41.671287536621094 stress="0.0003966983058489859 2.301485402256276e-08 -1.0498411917581052e-08 2.301485402256276e-08 0.00039663471397943795 -7.125550638420464e-08 -1.0498411917581052e-08 -7.125550638420464e-08 0.0003967087541241199" pbc="T T T"
Nb       1.84753632       1.30640431       3.20002704      -0.00000089      -0.00001077       0.00000279
Nb       5.54260669       3.91921549       9.60007849      -0.00002814      -0.00000974      -0.00002824
Pd       0.00000026       0.00000020       0.00000016      -0.00000166       0.00000415       0.00000068
Se       2.01775897       1.42677093       6.40005424      -0.00174081      -0.00123128       0.00000023
Se       5.37238736       3.79885220       6.40005533       0.00173932       0.00123468       0.00000895
Se       4.53373099       1.42677096       4.94745761       0.00087446      -0.00122657      -0.00150663
Se       2.85641799       3.79885156       7.85265215      -0.00085464       0.00123084       0.00151330
Se       2.85641651       3.79885178       4.94745731      -0.00086564       0.00123319      -0.00150710
Se       4.53373120       1.42677195       7.85265132       0.00087851      -0.00122437       0.00151634
