9
Lattice="4.485516101765326 5.211788757679269e-09 2.5897139880784925 1.495172031450569 4.228985232746982 2.5897140008695363 1.834005919227553e-08 2.8634150087340222e-08 5.1794279443910805" Properties=species:S:1:pos:R:3:forces:R:3 energy=-59.59130859375 free_energy=-59.59130859375 stress="0.000290808267891407 -1.9833304065741686e-07 -4.4120191944330145e-08 -1.9833304065741686e-07 0.0002908584719989449 -1.870239074719393e-08 -4.4120191944330145e-08 -1.870239074719393e-08 0.0002908504393417388" pbc="T T T"
Nb       1.49517255       1.05724659       2.58971366       0.00000920       0.00000465      -0.00000428
Nb       4.48551876       3.17173912       7.76914263       0.00005052       0.00000365       0.00001413
Pd       0.00000004      -0.00000010       0.00000010       0.00000664      -0.00000098      -0.00000410
O        1.55718531       1.10109737       5.17942791      -0.00392742      -0.00275762      -0.00000093
O        4.42350243       3.12788831       5.17942780       0.00391363       0.00276025      -0.00000347
O        3.70692244       1.10109662       3.93827639       0.00194590      -0.00277327      -0.00339429
O        2.27376448       3.12788856       6.42057883      -0.00197382       0.00277363       0.00339112
O        2.27376446       3.12788867       3.93827731      -0.00197330       0.00277358      -0.00338677
O        3.70692225       1.10109594       6.42057907       0.00194883      -0.00278354       0.00338848
