9
Lattice="4.388853731185631 6.588752650382466e-08 2.533905875309601 1.4629512956785544 4.137850983676219 2.533905892923435 1.8153530735426487e-08 3.440892714701071e-08 5.067811719176369" Properties=species:S:1:pos:R:3:forces:R:3 energy=-76.70536041259766 free_energy=-76.70536041259766 stress="-0.00018145678041037172 -1.1916502984377075e-07 7.94088137467952e-08 -1.1916502984377075e-07 -0.0001817388692870736 -2.534489738081902e-07 7.94088137467952e-08 -2.534489738081902e-07 -0.00018181026098318398" pbc="T T T"
Nb       1.46295123       1.03446308       2.53390609       0.00000170       0.00000299      -0.00000056
Nb       4.38885389       3.10338856       7.60171783      -0.00000037       0.00000191       0.00000388
Re       0.00000016       0.00000012       0.00000012       0.00000341       0.00000154       0.00000102
N        1.54383605       1.09165682       5.06781173      -0.00097895      -0.00069189       0.00000194
N        4.30796906       3.04619396       5.06781165       0.00097501       0.00069118      -0.00000182
N        3.61693580       1.09165710       3.87090692       0.00048733      -0.00069177      -0.00084448
N        2.23486919       3.04619402       6.26471642      -0.00048709       0.00069129       0.00084221
N        2.23486922       3.04619392       3.87090687      -0.00049359       0.00069094      -0.00084758
N        3.61693558       1.09165680       6.26471625       0.00049126      -0.00069618       0.00084817
