9
Lattice="4.2568262965619645 1.3743584309125697e-07 2.4576797864087156 1.418942216012377 4.013374384238818 2.4576798079162474 1.0409588390369757e-07 9.994814223851604e-08 4.915359392518078" Properties=species:S:1:pos:R:3:forces:R:3 energy=-70.33680725097656 free_energy=-70.33680725097656 stress="0.00023780892661307007 3.350666588630702e-08 -1.5687869847624825e-07 3.350666588630702e-08 0.00023783955839462578 -1.058859879776719e-07 -1.5687869847624825e-07 -1.058859879776719e-07 0.0002378436183789745" pbc="T T T"
Nb       1.41894240       1.00334371       2.45767867      -0.00000051      -0.00000017      -0.00000725
Nb       4.25682641       3.01003096       7.37303961       0.00000134      -0.00000113      -0.00000099
Rh      -0.00000004       0.00000002      -0.00000021      -0.00000363       0.00000405       0.00000644
N        1.56219498       1.10463827       4.91535966       0.00347739       0.00245643       0.00000003
N        4.11357400       2.90873591       4.91535966      -0.00347418      -0.00245810       0.00000032
N        3.47572923       1.10463870       3.81057995      -0.00173408       0.00245726       0.00300765
N        2.20003959       2.90873591       6.02013899       0.00174034      -0.00246221      -0.00301182
N        2.20003946       2.90873643       3.81058034       0.00173625      -0.00245345       0.00301439
N        3.47572855       1.10463853       6.02013918      -0.00174367       0.00245756      -0.00300884
