9
Lattice="4.293882568425875 1.9462616519086083e-08 2.479074160948446 1.4312941943836932 4.0483114662814765 2.4790741842291717 -6.399935725040921e-08 -1.6741443628001043e-08 4.958148432747036" Properties=species:S:1:pos:R:3:forces:R:3 energy=-72.49666595458984 free_energy=-72.49666595458984 stress="-3.540271063684486e-05 5.24032124360474e-08 8.435722342881036e-09 5.24032124360474e-08 -3.5202283470425755e-05 1.1633574104052968e-07 8.435722342881036e-09 1.1633574104052968e-07 -3.5479020880302414e-05" pbc="T T T"
Nb       1.43129418       1.01207817       2.47907421       0.00000184       0.00000203       0.00000037
Nb       4.29388273       3.03623429       7.43722234       0.00000225       0.00000336      -0.00000135
Ru       0.00000003       0.00000005      -0.00000003       0.00000292      -0.00000017       0.00000119
N        1.52458203       1.07804214       4.95814847       0.00031364       0.00021952      -0.00000023
N        4.20059499       2.97026886       4.95814846      -0.00031173      -0.00022405       0.00000088
N        3.53159133       1.07804205       3.79940092      -0.00015920       0.00022048       0.00027561
N        2.19358512       2.97026928       6.11689572       0.00015557      -0.00022119      -0.00027335
N        2.19358510       2.97026894       3.79940079       0.00015664      -0.00022393       0.00027102
N        3.53159129       1.07804212       6.11689593      -0.00016129       0.00022322      -0.00027442
