9
Lattice="4.096623652180441 -3.8373085203758996e-08 2.3651866858246735 1.3655411796340406 3.8623337194970806 2.3651866885629844 -6.14304392661339e-08 -4.0084167939063024e-08 4.730373478050007" Properties=species:S:1:pos:R:3:forces:R:3 energy=-71.53289794921875 free_energy=-71.53289794921875 stress="0.00034498030436225235 1.643258542571857e-07 6.372495420237101e-08 1.643258542571857e-07 0.00034554587909951806 1.11732234131523e-07 6.372495420237101e-08 1.11732234131523e-07 0.0003449915675446391" pbc="T T T"
Nb       1.36554173       0.96558298       2.36518679       0.00000026       0.00000085      -0.00000032
Nb       4.09662372       2.89675040       7.09556057      -0.00000036      -0.00000123       0.00000223
Si      -0.00000014      -0.00000006      -0.00000030      -0.00000044      -0.00000080       0.00000233
N        1.45450612       1.02849150       4.73037314      -0.00289130      -0.00204217      -0.00000232
N        4.00765864       2.83384190       4.73037328       0.00289452       0.00204694       0.00000173
N        3.36936993       1.02849123       3.62482590       0.00144011      -0.00204390      -0.00250363
N        2.09279425       2.83384254       5.83592077      -0.00144070       0.00204152       0.00249809
N        2.09279482       2.83384285       3.62482627      -0.00144267       0.00204426      -0.00249904
N        3.36937011       1.02849096       5.83592081       0.00144100      -0.00204515       0.00250161
