9
Lattice="4.269633404021677 -4.2620396797261544e-08 2.465074070685285 1.4232111360831368 4.025448801864543 2.465073998645599 7.62807516511097e-08 -3.429160771214763e-08 4.930148009248426" Properties=species:S:1:pos:R:3:forces:R:3 energy=-66.0153579711914 free_energy=-66.0153579711914 stress="7.930854917503893e-05 7.497686027591044e-08 -1.7474439673037523e-08 7.497686027591044e-08 7.920150528661907e-05 -9.985214433072542e-09 -1.7474439673037523e-08 -9.985214433072542e-09 7.905987877165899e-05" pbc="T T T"
Nb       1.42321130       1.00636238       2.46507404       0.00000158       0.00000078       0.00000082
Nb       4.26963364       3.01908651       7.39522195       0.00000205       0.00000016       0.00000028
Se      -0.00000015      -0.00000003      -0.00000002      -0.00000211      -0.00000231      -0.00000180
N        1.46746397       1.03765396       4.93014794      -0.00047535      -0.00033575      -0.00000033
N        4.22538057       2.98779487       4.93014807       0.00047469       0.00033361      -0.00000117
N        3.53590127       1.03765359       3.73593532       0.00023448      -0.00033301      -0.00040728
N        2.15694339       2.98779515       6.12436086      -0.00023741       0.00033468       0.00040990
N        2.15694320       2.98779484       3.73593515      -0.00023568       0.00033629      -0.00041044
N        3.53590112       1.03765360       6.12436106       0.00023735      -0.00033420       0.00041032
