9
Lattice="4.275324454763924 -9.610071198373007e-08 2.468359699375543 1.4251081075432421 4.030814533774158 2.4683596187314283 -1.8054835784475182e-07 -2.2643541959115087e-07 4.93671971147002" Properties=species:S:1:pos:R:3:forces:R:3 energy=-61.94025421142578 free_energy=-61.94025421142578 stress="1.0862628187169321e-05 1.4960956917775547e-08 1.4362602485107345e-07 1.4960956917775547e-08 1.1195013030373957e-05 1.6792718326996692e-07 1.4362602485107345e-07 1.6792718326996692e-07 1.0839660717465449e-05" pbc="T T T"
Nb       1.42510743       1.00770451       2.46835939      -0.00000856       0.00000417      -0.00000095
Nb       4.27532399       3.02310964       7.40507960      -0.00000420      -0.00000616       0.00000293
Sn      -0.00000032      -0.00000007      -0.00000020       0.00000503       0.00000145      -0.00001101
N        1.60300126       1.13349246       4.93671994       0.00013113       0.00008750       0.00000197
N        4.09743179       2.89732001       4.93671850      -0.00012189      -0.00010186      -0.00000602
N        3.47382500       1.13349408       3.85659932      -0.00005576       0.00009912       0.00010836
N        2.22660781       2.89732091       6.01683957       0.00005552      -0.00009191      -0.00011051
N        2.22660859       2.89732121       3.85659903       0.00006139      -0.00009418       0.00011313
N        3.47382400       1.13349413       6.01684066      -0.00006279       0.00010186      -0.00009805
