9
Lattice="3.979925405936723 1.399779690675399e-07 2.2978113487696024 1.3266419480610119 3.752309478927599 2.2978113243310885 1.1943838466443057e-07 5.4524718027261116e-08 4.595622490665852" Properties=species:S:1:pos:R:3:forces:R:3 energy=-73.91328430175781 free_energy=-73.91328430175781 stress="-5.430001692730002e-05 -4.2362430008324736e-08 -1.2964295592610142e-07 -4.2362430008324736e-08 -5.452190089272335e-05 4.4905032581255e-08 -1.2964295592610142e-07 4.4905032581255e-08 -5.38578096893616e-05" pbc="T T T"
Nb       1.32664184       0.93807756       2.29781140       0.00000087      -0.00000249       0.00000063
Nb       3.97992554       2.81423230       6.89343392      -0.00000528       0.00000549       0.00000250
S        0.00000021      -0.00000014      -0.00000022      -0.00000730       0.00000187       0.00001168
N        1.30852464       0.92526667       4.59562254       0.00013785       0.00009286       0.00000231
N        3.99804271       2.82704303       4.59562279      -0.00013205      -0.00009245      -0.00000351
N        3.32566333       0.92526644       3.43102686      -0.00006579       0.00009141       0.00010970
N        1.98090410       2.82704313       5.76021831       0.00007094      -0.00009805      -0.00011715
N        1.98090411       2.82704319       3.43102683       0.00007256      -0.00009686       0.00011529
N        3.32566323       0.92526667       5.76021862      -0.00007179       0.00009717      -0.00012286
