9
Lattice="5.238610788685929 -2.1802088383568113e-07 3.024513318376339 1.746203483407444 4.939009696006419 3.0245131577618105 1.750395402236258e-08 -1.8433475004246024e-07 6.049026606435022" Properties=species:S:1:pos:R:3:forces:R:3 energy=-51.24894714355469 free_energy=-51.24894714355469 stress="0.00041228998452425003 1.0682416728968747e-08 -2.301713486474455e-08 1.0682416728968747e-08 0.0004122908867429942 3.2644926761804527e-09 -2.301713486474455e-08 3.2644926761804527e-09 0.00041231876821257174" pbc="T T T"
Nb       1.74620486       1.23475188       3.02451452       0.00000926      -0.00000555       0.00000987
Nb       5.23861094       3.70425801       9.07353821      -0.00000112       0.00000823      -0.00001745
Ti      -0.00000005       0.00000012       0.00000006      -0.00000132      -0.00000248      -0.00000567
S        1.87923254       1.32881743       6.04902621       0.00779241       0.00550544      -0.00000727
S        5.10558167       3.61019141       6.04902686      -0.00778949      -0.00550616       0.00000073
S        4.29899394       1.32881722       4.65197641      -0.00390220       0.00550795       0.00674993
S        2.68581997       3.61019120       7.44607642       0.00389078      -0.00550097      -0.00673991
S        2.68581926       3.61019148       4.65197647       0.00389370      -0.00551069       0.00674856
S        4.29899405       1.32881842       7.44607691      -0.00389200       0.00550425      -0.00673920
