9
Lattice="4.305488368327654 -4.518423066475509e-08 2.4857748528643975 1.4351627649177896 4.059253254197791 2.485774821556998 -2.1732729556988676e-08 -5.3710938187080915e-08 4.971549743371005" Properties=species:S:1:pos:R:3:forces:R:3 energy=-73.13546752929688 free_energy=-73.13546752929688 stress="-0.00011019945668522269 1.1883042816407396e-07 -4.029107003589161e-08 1.1883042816407396e-07 -0.0001100946101360023 5.994472473958012e-08 -4.029107003589161e-08 5.994472473958012e-08 -0.00011019338853657246" pbc="T T T"
Nb       1.43516264       1.01481355       2.48577505       0.00000152       0.00000134      -0.00000239
Nb       4.30548848       3.04443959       7.45732446      -0.00000018       0.00000011      -0.00000180
Ti       0.00000014       0.00000012       0.00000002      -0.00000158       0.00000257       0.00000564
N        1.54333884       1.09130573       4.97154993      -0.00132990      -0.00093466       0.00000083
N        4.19731238       2.96794752       4.97154994       0.00132871       0.00093371      -0.00000008
N        3.53381867       1.09130524       3.82234540       0.00065985      -0.00093454      -0.00114739
N        2.20683216       2.96794787       6.12075375      -0.00066152       0.00093639       0.00114375
N        2.20683221       2.96794788       3.82234545      -0.00065818       0.00093359      -0.00114459
N        3.53381906       1.09130521       6.12075362       0.00066200      -0.00093830       0.00114548
