9
Lattice="5.52505420603114 -9.801153756580477e-08 3.1898913682739134 1.8416846368885487 5.209070741964948 3.189891378751093 4.846481782138589e-08 4.710168109830385e-08 6.379782652604293" Properties=species:S:1:pos:R:3:forces:R:3 energy=-46.83216857910156 free_energy=-46.83216857910156 stress="-7.85740339779295e-05 4.475171877516004e-08 -7.941341806372293e-09 4.475171877516004e-08 -7.852117414586246e-05 1.309659758419457e-08 -7.941341806372293e-09 1.309659758419457e-08 -7.849012035876513e-05" pbc="T T T"
Nb       1.84168256       1.30226725       3.18989249      -0.00001897      -0.00000668       0.00000878
Nb       5.52505486       3.90680390       9.56967433       0.00000856       0.00000567       0.00000160
Ti       0.00000021       0.00000006      -0.00000028       0.00000177       0.00000150       0.00000604
Se       1.97014772       1.39310491       6.37978220      -0.00070459      -0.00049832      -0.00000361
Se       5.39659136       3.81596563       6.37978280       0.00070810       0.00049716      -0.00000088
Se       4.53998060       1.39310447       4.89608957       0.00035414      -0.00050192      -0.00060904
Se       2.82675850       3.81596610       7.86347593      -0.00035216       0.00050174       0.00060505
Se       2.82675871       3.81596605       4.89608907      -0.00035201       0.00050285      -0.00061151
Se       4.53998103       1.39310446       7.86347550       0.00035512      -0.00050171       0.00060359
