9
Lattice="6.0628474301797235 -6.489924483452578e-08 3.5003865941630625 2.020949087556154 5.716107390858356 3.5003865848956393 -3.832061716777216e-08 -3.8446960807559757e-08 7.000773254699373" Properties=species:S:1:pos:R:3:forces:R:3 energy=-43.38468933105469 free_energy=-43.38468933105469 stress="1.8455300960340537e-05 -8.436387588517391e-09 -2.1569936947685164e-09 -8.436387588517391e-09 1.847239036578685e-05 1.7202365754087623e-08 -2.1569936947685164e-09 1.7202365754087623e-08 1.846860504883807e-05" pbc="T T T"
Nb       2.02094889       1.42902659       3.50038640       0.00000026      -0.00000131      -0.00000168
Nb       6.06284742       4.28708059      10.50116057       0.00000050       0.00000222       0.00000508
Ti       0.00000008       0.00000013       0.00000045      -0.00000018       0.00000265      -0.00000969
Te       2.11826612       1.49784050       7.00077324      -0.00210939      -0.00148996      -0.00000449
Te       5.96553041       4.21826674       7.00077286       0.00210743       0.00148906      -0.00000251
Te       5.00371446       1.49784020       5.33485909       0.00105203      -0.00148799      -0.00182404
Te       3.08008236       4.21826666       8.66668706      -0.00105841       0.00149648       0.00182941
Te       3.08008239       4.21826721       5.33485897      -0.00104992       0.00148692      -0.00182250
Te       5.00371375       1.49784050       8.66668708       0.00105754      -0.00149809       0.00183044
