9
Lattice="4.297218382059166 -1.862345595815066e-08 2.4810004123555807 1.4324060943118504 4.05145669003604 2.481000439172628 -6.171815852946132e-08 -1.0797280871080314e-08 4.962000931610145" Properties=species:S:1:pos:R:3:forces:R:3 energy=-71.09469604492188 free_energy=-71.09469604492188 stress="-4.8772479203762487e-05 -1.3301284695899085e-07 -1.4457862462791127e-08 -1.3301284695899085e-07 -4.9248323193751276e-05 2.2507530061943726e-08 -1.4457862462791127e-08 2.2507530061943726e-08 -4.888135663350113e-05" pbc="T T T"
Nb       1.43240465       1.01286487       2.48099974      -0.00002359       0.00000803      -0.00001008
Nb       4.29721766       3.03859119       7.44300097      -0.00000944      -0.00001996      -0.00000980
Ti      -0.00000005      -0.00000001      -0.00000008       0.00000232      -0.00000797      -0.00000191
O        1.50862950       1.06676186       4.96200137       0.00181532       0.00127733       0.00000918
O        4.22099518       2.98469496       4.96200087      -0.00180149      -0.00127307      -0.00000245
O        3.54290435       1.06676255       3.78751191      -0.00089261       0.00128356       0.00156569
O        2.18672124       2.98469426       6.13649050       0.00090069      -0.00127515      -0.00155026
O        2.18672030       2.98469444       3.78751197       0.00089583      -0.00127357       0.00156438
O        3.54290481       1.06676254       6.13648994      -0.00088778       0.00128126      -0.00156581
