9
Lattice="5.987875533958068 -2.6073546604649056e-08 3.4571015818449675 1.995958490431946 5.645423194308089 3.45710157544514 -8.018286084323218e-09 -1.3507990598194691e-08 6.914203177578051" Properties=species:S:1:pos:R:3:forces:R:3 energy=-43.94939422607422 free_energy=-43.94939422607422 stress="-4.766362690133974e-05 3.4677543059302707e-09 -1.4819794280640508e-09 3.4677543059302707e-09 -4.767274367623031e-05 -7.596087314709621e-09 -1.4819794280640508e-09 -7.596087314709621e-09 -4.7667610488133505e-05" pbc="T T T"
Nb       1.99595802       1.41135514       3.45710209      -0.00000314      -0.00000411       0.00000204
Nb       5.98787546       4.23406720      10.37130490       0.00000031      -0.00000184       0.00000058
V        0.00000002      -0.00000003       0.00000042       0.00000004      -0.00000065      -0.00000406
Te       2.08304198       1.47293288       6.91420314      -0.00605759      -0.00428300      -0.00000107
Te       5.90079185       4.17249043       6.91420279       0.00605959       0.00428630      -0.00000205
Te       4.94635484       1.47293335       5.26106876       0.00302961      -0.00428164      -0.00524539
Te       3.03747969       4.17249008       8.56733729      -0.00303084       0.00428681       0.00524892
Te       3.03747944       4.17249020       5.26106877      -0.00303059       0.00428221      -0.00524640
Te       4.94635475       1.47293331       8.56733716       0.00303278      -0.00428428       0.00524764
