9
Lattice="4.281488118165068 5.313478199064137e-08 2.4719183955072883 1.4271626974652278 4.036625970973422 2.4719184971539714 -4.077271112363234e-08 9.566062988322783e-08 4.943836861634966" Properties=species:S:1:pos:R:3:forces:R:3 energy=-68.20774841308594 free_energy=-68.20774841308594 stress="0.00016126586706377566 4.94907947956591e-10 -2.0121241561810166e-08 4.94907947956591e-10 0.00016149180009961128 -3.335568279916323e-11 -2.0121241561810166e-08 -3.335568279916323e-11 0.00016139473882503808" pbc="T T T"
Nb       1.42716317       1.00915655       2.47191847       0.00000575      -0.00000016      -0.00000168
Nb       4.28148824       3.02746990       7.41575522       0.00000574       0.00000509       0.00000084
V        0.00000005       0.00000012      -0.00000013       0.00000066       0.00000010       0.00000096
O        1.47745734       1.04472085       4.94383721       0.00171024       0.00121510      -0.00000049
O        4.23119298       2.99190547       4.94383685      -0.00171125      -0.00121087      -0.00000310
O        3.54275864       1.04472001       3.75143437      -0.00086699       0.00120614       0.00148198
O        2.16589160       2.99190550       6.13623941       0.00085810      -0.00120896      -0.00147974
O        2.16589174       2.99190593       3.75143449       0.00085564      -0.00121073       0.00148430
O        3.54275930       1.04472027       6.13623906      -0.00085787       0.00120406      -0.00148332
