9
Lattice="5.4804944328862195 -4.5978203638701917e-08 3.164164879630834 1.8268315155760306 5.167059518874912 3.164164738822039 5.3637257060636394e-08 -1.3452755208475003e-07 6.328329666359182" Properties=species:S:1:pos:R:3:forces:R:3 energy=-46.84014129638672 free_energy=-46.84014129638672 stress="-2.0430215954547748e-05 3.781545387937513e-08 4.947430909396644e-08 3.781545387937513e-08 -2.050113289442379e-05 4.072908055263724e-08 4.947430909396644e-08 4.072908055263724e-08 -2.0532657799776644e-05" pbc="T T T"
Nb       1.82683352       1.29176515       3.16416357       0.00001774       0.00000058      -0.00001833
Nb       5.48049530       3.87529663       9.49249892       0.00000900       0.00002098       0.00005039
V       -0.00000040       0.00000001      -0.00000032      -0.00000048      -0.00000408       0.00000135
Se       1.96857214       1.39199005       6.32832981       0.00517982       0.00366187       0.00000291
Se       5.33875343       3.77506905       6.32832722      -0.00517935      -0.00365835      -0.00002286
Se       4.49620746       1.39198992       4.86899800      -0.00260088       0.00365788       0.00448161
Se       2.81111638       3.77506753       7.78766154       0.00257653      -0.00367194      -0.00448740
Se       2.81111804       3.77506950       4.86899807       0.00259367      -0.00366098       0.00448596
Se       4.49620826       1.39198944       7.78766045      -0.00259572       0.00365424      -0.00449359
