9
Lattice="4.322784142131405 -1.7446575173418433e-08 2.4957605674343735 1.440928049208106 4.075559953795507 2.4957605357729187 -1.872491184311217e-08 -5.201771423191925e-08 4.991521167301236" Properties=species:S:1:pos:R:3:forces:R:3 energy=-77.6584701538086 free_energy=-77.6584701538086 stress="0.00034094075090251863 -2.059040937751888e-08 -5.914400080797577e-09 -2.059040937751888e-08 0.0003410107165109366 -1.0714546050394347e-07 -5.914400080797577e-09 -1.0714546050394347e-07 0.0003410493955016136" pbc="T T T"
Nb       1.44092813       1.01889000       2.49576046      -0.00000179       0.00000572       0.00000042
Nb       4.32278432       3.05666988       7.48728191       0.00000126      -0.00000253      -0.00000265
W       -0.00000003      -0.00000000      -0.00000010       0.00000911       0.00000400      -0.00000592
N        1.56514893       1.10672759       4.99152118       0.00123465       0.00087076       0.00000172
N        4.19856335       2.96883222       4.99152122      -0.00124109      -0.00087786       0.00000134
N        3.54020978       1.10672749       3.85121922      -0.00062048       0.00087714       0.00107276
N        2.22350212       2.96883240       6.13182289       0.00061685      -0.00087440      -0.00107408
N        2.22350236       2.96883239       3.85121898       0.00061989      -0.00087345       0.00107276
N        3.54020969       1.10672754       6.13182316      -0.00061816       0.00087154      -0.00106788
