9
Lattice="5.994197015227722 -3.781040452837328e-08 3.460751313805568 1.9980656446802265 5.651383047367168 3.4607512989347624 2.8615201302468543e-08 2.0210919343706683e-09 6.921502578048117" Properties=species:S:1:pos:R:3:forces:R:3 energy=-35.4388427734375 free_energy=-35.4388427734375 stress="6.645766006840859e-06 -7.696520754052472e-09 -1.2296504259268204e-08 -7.696520754052472e-09 6.6642710407904815e-06 1.1419780676646951e-09 -1.2296504259268204e-08 1.1419780676646951e-09 6.646152542089112e-06" pbc="T T T"
Nb       1.99806490       1.41284531       3.46075116      -0.00000538      -0.00000440      -0.00000127
Nb       5.99419686       4.23853731      10.38225595      -0.00000117       0.00000178       0.00001163
Zn      -0.00000025      -0.00000029       0.00000014       0.00000718       0.00000481      -0.00000125
Te       2.09857448       1.48391590       6.92150253       0.00001918       0.00001244      -0.00000285
Te       5.89368869       4.16746698       6.92150182      -0.00002564      -0.00001684      -0.00000284
Te       4.94491036       1.48391656       5.27816969      -0.00000942       0.00001658       0.00001632
Te       3.04735251       4.16746720       8.56483482       0.00001120      -0.00001326      -0.00001933
Te       3.04735329       4.16746739       5.27816966       0.00001289      -0.00001390       0.00001846
Te       4.94490989       1.48391570       8.56483502      -0.00000878       0.00001264      -0.00001873
