9
Lattice="4.28391002979175 -4.3995333803444216e-08 2.4733163438617938 1.427970046443707 4.038908513602751 2.473316208775126 9.317010003289192e-08 -9.956547838056079e-08 4.9466325263482585" Properties=species:S:1:pos:R:3:forces:R:3 energy=-57.16096115112305 free_energy=-57.16096115112305 stress="-6.726563151460141e-05 1.4879378795740195e-07 1.6316057838139386e-07 1.4879378795740195e-07 -6.762767588952556e-05 -1.0639453762451012e-07 1.6316057838139386e-07 -1.0639453762451012e-07 -6.712364847771823e-05" pbc="T T T"
Nb       1.42797012       1.00972847       2.47331708      -0.00000215       0.00001904       0.00000933
Nb       4.28390920       3.02917956       7.41994826      -0.00001067      -0.00002285      -0.00000670
Zn      -0.00000016       0.00000002       0.00000004       0.00000828      -0.00000083       0.00000018
O        1.49651769       1.05819826       4.94663172      -0.00792122      -0.00558650      -0.00001359
O        4.21536244       2.98071027       4.94663346       0.00791603       0.00558454       0.00001364
O        3.53565177       1.05819777       3.76933859       0.00395639      -0.00558576      -0.00684866
O        2.17622872       2.98071072       6.12392660      -0.00395213       0.00559054       0.00684825
O        2.17623005       2.98071077       3.76933790      -0.00394632       0.00558926      -0.00685987
O        3.53565085       1.05819768       6.12392678       0.00395226      -0.00558673       0.00685832
