9
Lattice="5.511596202177129 -9.410854159904072e-08 3.1821216024921175 1.8371986333693437 5.1963827530872715 3.182121623213187 -1.0984180509035461e-07 -5.229186009168885e-08 6.3642433952357935" Properties=species:S:1:pos:R:3:forces:R:3 energy=-37.83835983276367 free_energy=-37.83835983276367 stress="5.343163866200484e-05 -3.4917455593586055e-09 -1.57154147473193e-08 -3.4917455593586055e-09 5.334877278073691e-05 -3.177843266310987e-10 -1.57154147473193e-08 -3.177843266310987e-10 5.344938472262584e-05" pbc="T T T"
Nb       1.83719971       1.29909478       3.18212180       0.00000632      -0.00000983      -0.00000011
Nb       5.51159641       3.89728798       9.54636613      -0.00000025       0.00001064       0.00000656
Zn      -0.00000007       0.00000009       0.00000046       0.00000011       0.00000050      -0.00000680
Se       1.98798947       1.40572048       6.36424321       0.00339615       0.00240067      -0.00000391
Se       5.36080516       3.79066218       6.36424264      -0.00339568      -0.00239602      -0.00000314
Se       4.51760115       1.40572020       4.90377095      -0.00170222       0.00239962       0.00293863
Se       2.83119288       3.79066179       7.82471516       0.00169328      -0.00239703      -0.00293940
Se       2.83119336       3.79066241       4.90377097       0.00170082      -0.00240314       0.00294256
Se       4.51760082       1.40572043       7.82471515      -0.00169849       0.00239477      -0.00293455
