9
Lattice="5.358799507962589 -1.7933397294441682e-08 3.0939043264662986 1.786266493936659 5.052324606632119 3.0939043122804244 -1.9697008936986642e-08 -3.1301964130882737e-08 6.187808687048819" Properties=species:S:1:pos:R:3:forces:R:3 energy=-40.717002868652344 free_energy=-40.717002868652344 stress="-0.00020701519679278135 -3.036549856005877e-08 7.704603177671743e-09 -3.036549856005877e-08 -0.0002070942282443866 6.535349150738057e-09 7.704603177671743e-09 6.535349150738057e-09 -0.0002070373884635046" pbc="T T T"
Nb       1.78626611       1.26308221       3.09390458      -0.00000497       0.00001404       0.00000226
Nb       5.35880043       3.78924263       9.28171240       0.00000997      -0.00001014      -0.00000362
Zn       0.00000023      -0.00000011       0.00000018      -0.00000003       0.00000086       0.00000076
S        1.89141864       1.33743584       6.18780860      -0.00480318      -0.00339073      -0.00000083
S        5.25364713       3.71488869       6.18780901       0.00480139       0.00338954       0.00000019
S        4.41308998       1.33743537       4.73192118       0.00240016      -0.00339466      -0.00415885
S        2.73197575       3.71488882       7.64369595      -0.00240329       0.00339204       0.00415754
S        2.73197540       3.71488886       4.73192129      -0.00240412       0.00339121      -0.00415528
S        4.41309024       1.33743586       7.64369606       0.00240409      -0.00339246       0.00415754
