9
Lattice="5.65008851916826 8.590244036301235e-08 3.2620799718052975 1.8833629053720273 5.32695476953 3.2620799983753646 9.145701074623646e-08 9.721145622463247e-08 6.524159785202338" Properties=species:S:1:pos:R:3:forces:R:3 energy=-28.5758056640625 free_energy=-28.5758056640625 stress="0.00012436319957487285 -4.713418544355363e-09 -1.7183936051878845e-08 -4.713418544355363e-09 0.0001243145961780101 -2.085197259305005e-08 -1.7183936051878845e-08 -2.085197259305005e-08 0.00012436549877747893" pbc="T T T"
Ni       1.88336166       1.33173940       3.26208049      -0.00000741       0.00000285       0.00000314
Ni       5.65008852       3.99521518       9.78624077       0.00000080      -0.00000395       0.00000304
Au       0.00000014      -0.00000006       0.00000038      -0.00000044       0.00000081      -0.00000187
Se       2.20348070       1.55809610       6.52415945      -0.00075141      -0.00052886      -0.00000140
Se       5.32997169       3.76885873       6.52415922       0.00075154       0.00052789      -0.00000203
Se       4.54834848       1.55809699       5.17034988       0.00037757      -0.00052655      -0.00065156
Se       2.98510321       3.76885829       7.87796990      -0.00037495       0.00052835       0.00064945
Se       2.98510220       3.76885907       5.17035023      -0.00037552       0.00052952      -0.00064748
Se       4.54834950       1.55809613       7.87796866       0.00037982      -0.00053003       0.00064865
