9
Lattice="5.468026221680605 1.3600853599528824e-07 3.1569664932951023 1.8226755545330693 5.155304726477584 3.156966460254289 8.882171275084329e-08 2.2339886596005105e-08 6.313932832746465" Properties=species:S:1:pos:R:3:forces:R:3 energy=-27.709182739257812 free_energy=-27.709182739257812 stress="5.818724457640201e-05 1.7575766619870592e-08 1.3802627485404173e-08 1.7575766619870592e-08 5.814093310618773e-05 -1.9475113077760398e-08 1.3802627485404173e-08 -1.9475113077760398e-08 5.81998101552017e-05" pbc="T T T"
Ni       1.82267566       1.28882625       3.15696622       0.00000112      -0.00000013      -0.00000132
Ni       5.46802610       3.86647825       9.47089951      -0.00000152      -0.00000347       0.00000075
Ag       0.00000008       0.00000055      -0.00000027      -0.00000101      -0.00001218       0.00000808
S        1.95381180       1.38155352       6.31393298       0.00267962       0.00189626       0.00000007
S        5.33688984       3.77375102       6.31393278      -0.00267366      -0.00189105      -0.00000111
S        4.49112073       1.38155378       4.84901680      -0.00133899       0.00189745       0.00231916
S        2.79958121       3.77375132       7.77884894       0.00133908      -0.00189465      -0.00231880
S        2.79958151       3.77375122       4.84901721       0.00133708      -0.00189036       0.00231531
S        4.49112051       1.38155368       7.77884908      -0.00134198       0.00189805      -0.00232211
