9
Lattice="5.5118593272452605 3.373195901932082e-08 3.1822730285043708 1.837286380598994 5.196631377176051 3.1822731906569772 -1.7764472253235912e-07 7.298177726811402e-08 6.364546364698346" Properties=species:S:1:pos:R:3:forces:R:3 energy=-28.134014129638672 free_energy=-28.134014129638672 stress="-2.6986090233549476e-05 -2.9419412683751034e-08 3.643221502258598e-09 -2.9419412683751034e-08 -2.7055077225668356e-05 -1.5745879267115015e-08 3.643221502258598e-09 -1.5745879267115015e-08 -2.689224129426293e-05" pbc="T T T"
Ni       1.83728681       1.29915521       3.18227169       0.00000156      -0.00001932      -0.00000722
Ni       5.51185940       3.89747713       9.54681694       0.00000291       0.00002440      -0.00001487
Ag       0.00000004      -0.00000026      -0.00000011      -0.00000010       0.00000227       0.00000082
Se       2.13070219       1.50663071       6.36454632       0.00186485       0.00130264      -0.00000018
Se       5.21844479       3.68999873       6.36454734      -0.00185949      -0.00131090       0.00000487
Se       4.44650836       1.50663210       5.02751561      -0.00093119       0.00130580       0.00161335
Se       2.90263808       3.69000057       7.70157724       0.00093335      -0.00130175      -0.00161183
Se       2.90263583       3.68999952       5.02751708       0.00092375      -0.00130668       0.00161928
Se       4.44650664       1.50663219       7.70157825      -0.00093576       0.00130336      -0.00160405
