9
Lattice="4.688725345849426 0.42867446828943223 2.6463226292748927 1.778088714252957 4.461869609952361 2.9996728759833404 -0.11837804784530505 0.3284046698423757 5.479287186845507" Properties=species:S:1:pos:R:3:forces:R:3 energy=-38.381492614746094 free_energy=-38.381492614746094 stress="0.00018946513591799885 -0.00025561804068274796 0.0005987161421217024 -0.00025561804068274796 -0.00012780475663021207 0.00012250410509295762 0.0005987161421217024 0.00012250410509295762 -0.0002456229995004833" pbc="T T T"
Ni       1.31928203      -0.17336156       3.27345493      -0.00070691       0.00165078      -0.00042656
Ni       5.07009272       4.33767105       8.92196303       0.00050396      -0.00029007       0.00265859
Au       0.02524066       0.23450180       0.07445846      -0.00064754       0.00403708       0.00130606
O        1.90363207       0.63591049       4.91375209       0.00378203      -0.00012369       0.00310081
O        4.53124020       4.76956099       5.26043567      -0.00048295      -0.00594912       0.00092617
O        4.26321952       2.41541261       3.49809723      -0.00545752       0.00734586      -0.00350659
O        1.90429202       3.31956492       7.40297492      -0.00026719      -0.00210309      -0.00226069
O        1.94373665       3.74858436       4.89096585       0.00363949      -0.00745961       0.00048800
O        4.43337560       1.58878607       6.26579506      -0.00036341       0.00289088      -0.00228557
