9
Lattice="4.454171729669331 -3.6377168574891874e-07 2.5716168707366944 1.4847236492580496 4.199432975706007 2.57161672812731 1.45231115448373e-07 -7.196618702021432e-08 5.143233489925756" Properties=species:S:1:pos:R:3:forces:R:3 energy=-28.915430068969727 free_energy=-28.915430068969727 stress="-7.535622717114165e-05 6.349521299853222e-07 -4.967141649103723e-07 6.349521299853222e-07 -7.495282625313848e-05 -4.252822236594511e-07 -4.967141649103723e-07 -4.252822236594511e-07 -7.406961231026798e-05" pbc="T T T"
Ni       1.48472932       1.04985734       2.57161618       0.00008098      -0.00000789      -0.00001298
Ni       4.45416658       3.14957190       7.71485823      -0.00008073      -0.00003690       0.00011258
Ag       0.00000013       0.00000002      -0.00000011      -0.00000605       0.00000078       0.00001169
O        1.58964867       1.12405071       5.14323370      -0.00264233      -0.00188231       0.00001388
O        4.34924554       3.07538272       5.14322957       0.00263810       0.00190085      -0.00005904
O        3.65934608       1.12405454       3.94828898       0.00131169      -0.00182450      -0.00235140
O        2.27954814       3.07538100       6.33817561      -0.00131616       0.00185072       0.00230813
O        2.27955161       3.07538186       3.94829061      -0.00126937       0.00187814      -0.00233495
O        3.65934565       1.12405006       6.33817525       0.00128415      -0.00187910       0.00231183
