9
Lattice="5.377526484760473 -6.099571602543742e-08 3.104716445182572 1.792508811246896 5.069980287752376 3.104716375033275 1.127715947232209e-07 -6.173473769112833e-09 6.209432695039046" Properties=species:S:1:pos:R:3:forces:R:3 energy=-28.807640075683594 free_energy=-28.807640075683594 stress="6.011606819811277e-05 -2.580376445848742e-08 -2.9378012911251972e-08 -2.580376445848742e-08 6.020789442118257e-05 2.1927540672095347e-08 -2.9378012911251972e-08 2.1927540672095347e-08 6.011728692101315e-05" pbc="T T T"
Ni       1.79250969       1.26749478       3.10471579       0.00000341      -0.00000152      -0.00000384
Ni       5.37752594       3.80248610       9.31414945      -0.00000316       0.00000602       0.00000286
Au      -0.00000012       0.00000010      -0.00000013       0.00000346       0.00000006       0.00000457
S        1.93697905       1.36965031       6.20943266      -0.00504649      -0.00357281       0.00000036
S        5.23305633       3.70033028       6.20943201       0.00504148       0.00357206      -0.00000563
S        4.40903673       1.36965021       4.78218968       0.00252174      -0.00357157      -0.00437045
S        2.76099847       3.70032860       7.63667669      -0.00252235       0.00356507       0.00437319
S        2.76099895       3.70032998       4.78218956      -0.00251806       0.00357270      -0.00437182
S        4.40903659       1.36965048       7.63667636       0.00251974      -0.00357002       0.00437093
