9
Lattice="1.365551201106335 -0.4882339147491189 2.840010869915992 0.921891153124056 2.121216806609113 0.899410912653348 -1.2893948851077006 -0.18412053603426692 2.491905436558112" Properties=species:S:1:pos:R:3:forces:R:3 energy=-205983072.0 free_energy=-205983072.0 stress="187658528.0 7846158.5 811411.625 7846158.5 190070784.0 4666596.5 811411.625 4666596.5 183425280.0" pbc="T T T"
Ni      -2.45477145      -0.38377513       0.77971921  835124.00000000 -63223240.00000000 -7975570.00000000
Ni      -0.28373751       1.32550684       2.73644857 63450880.00000000 73131256.00000000 7461568.00000000
Be      -0.74495458      -0.20736224      -0.41028817 -112677360.00000000 -14442630.00000000 31249798.00000000
O       -1.70817060       0.76617981       2.74938609 -34146068.00000000 -112542520.00000000 -53302104.00000000
O       -0.54499347       0.41017973       3.03654047 -25044412.00000000 -4511344.00000000 -248802784.00000000
O       -0.36010511      -0.06285074       2.34055987 -18224772.00000000 89475552.00000000 3268560.00000000
O       -2.60578555       0.24384121       3.82859632 24605420.00000000 -27966400.00000000 82635936.00000000
O       -0.41592015       1.68132881       1.03828730 178209312.00000000 87575832.00000000 26854280.00000000
O       -0.75526448       0.39892221       3.99301492 -77007912.00000000 -27496504.00000000 158610192.00000000
