9
Lattice="5.964791076260517 -6.280027988676949e-08 3.4437734456227598 1.9882636132769445 5.6236588968868775 3.443773479573161 -6.030674008700414e-08 -1.0626811357620022e-09 6.887546995699771" Properties=species:S:1:pos:R:3:forces:R:3 energy=-28.209787368774414 free_energy=-28.209787368774414 stress="-0.0001328452053712681 6.595249235630263e-09 1.3477760241187298e-08 6.595249235630263e-09 -0.0001328468497376889 -1.8197479079162804e-09 1.3477760241187298e-08 -1.8197479079162804e-09 -0.00013280074927024543" pbc="T T T"
Ni       1.98826320       1.40591392       3.44377403      -0.00000342      -0.00000323       0.00000241
Ni       5.96479095       4.21774418      10.33131978      -0.00000160      -0.00000026      -0.00000460
Be      -0.00000088      -0.00000002      -0.00000041       0.00001077      -0.00000122      -0.00000007
Te       1.91638438       1.35508879       6.88754684       0.00406525       0.00287499      -0.00000024
Te       6.03667077       4.26857096       6.88754739      -0.00407219      -0.00287850       0.00000291
Te       5.00659894       1.35508792       5.10341042      -0.00203639       0.00287801       0.00352563
Te       2.94645603       4.26857088       8.67168338       0.00203660      -0.00287390      -0.00352147
Te       2.94645560       4.26857057       5.10341074       0.00203370      -0.00287484       0.00352076
Te       5.00659954       1.35508819       8.67168349      -0.00203259       0.00287896      -0.00352535
