9
Lattice="4.7048672611224465 3.6689782470881374e-08 2.7163565384916293 1.5682889919352025 4.435792182566146 2.7163567631337036 -4.0173661065121167e-07 -8.941401530889622e-09 5.432713772811461" Properties=species:S:1:pos:R:3:forces:R:3 energy=-32.72943115234375 free_energy=-32.72943115234375 stress="-1.6881986084626988e-05 -1.086979608544425e-07 1.9431861630891945e-07 -1.086979608544425e-07 -1.7119218682637438e-05 1.1740748817601343e-07 1.9431861630891945e-07 1.1740748817601343e-07 -1.6872483683982864e-05" pbc="T T T"
Ni       1.56828565       1.10894419       2.71635668      -0.00003016      -0.00003643       0.00000158
Ni       4.70486499       3.32684537       8.14907409      -0.00001878       0.00000937       0.00003814
Be      -0.00000080      -0.00000050      -0.00000003       0.00001160       0.00000150      -0.00000713
S        1.63184876       1.15388883       5.43271528       0.00014251       0.00008294       0.00000690
S        4.64130938       3.28190189       5.43271161      -0.00012708      -0.00009164      -0.00001308
S        3.88894396       1.15389136       4.12957683      -0.00006089       0.00009879       0.00011039
S        2.38421227       3.28190315       6.73584688       0.00006130      -0.00007734      -0.00012541
S        2.38421460       3.28190434       4.12957914       0.00008067      -0.00007319       0.00011224
S        3.88894457       1.15389019       6.73584770      -0.00005886       0.00008604      -0.00012350
