9
Lattice="5.308567612851406 8.344691212470633e-07 3.0649049870902862 1.7695231774547378 5.004968567914039 3.0649052415417493 -1.3909079944646976e-06 -6.718825727213164e-07 6.129812383304195" Properties=species:S:1:pos:R:3:forces:R:3 energy=-30.786855697631836 free_energy=-30.786855697631836 stress="-0.00012360166874714196 -2.9152599267945334e-07 4.173217860170553e-07 -2.9152599267945334e-07 -0.00012465452891774476 4.675808611409593e-07 4.173217860170553e-07 4.675808611409593e-07 -0.00012458594574127346" pbc="T T T"
Ni       1.76952109       1.25124772       3.06490910      -0.00000830       0.00005339       0.00001742
Ni       5.30857667       3.75372774       9.19470276       0.00008127      -0.00000511      -0.00013038
Be       0.00000002      -0.00000085      -0.00000324       0.00002520      -0.00000643       0.00000917
Se       1.59930291       1.13088267       6.12981629      -0.00204247      -0.00141627       0.00002338
Se       5.47878671       3.87408464       6.12982620       0.00204676       0.00140759       0.00011159
Se       4.50891061       1.13087713       4.44994309       0.00098968      -0.00148326      -0.00176471
Se       2.56917162       3.87408373       7.80967410      -0.00103930       0.00141481       0.00174344
Se       2.56916597       3.87408617       4.44994717      -0.00109434       0.00142562      -0.00174361
Se       4.50892084       1.13088573       7.80967577       0.00104138      -0.00139019       0.00173396
