9
Lattice="4.944940460644669 -1.130928868556354e-07 2.8549626455238175 1.6483133932453125 4.662134474785146 2.854962623026662 2.5848726264515632e-08 -9.275484207827288e-09 5.709925246276324" Properties=species:S:1:pos:R:3:forces:R:3 energy=-35.18784713745117 free_energy=-35.18784713745117 stress="0.00015339869423769414 6.873635527426813e-08 -2.3771649093617953e-09 6.873635527426813e-08 0.00015336359501816332 9.200208594961623e-09 -2.3771649093617953e-09 9.200208594961623e-09 0.00015325822459999472" pbc="T T T"
Ni       1.64831307       1.16553343       2.85496258      -0.00000278      -0.00000084      -0.00000041
Ni       4.94494049       3.49659983       8.56488819       0.00000162      -0.00000806       0.00000252
C        0.00000016       0.00000012      -0.00000009      -0.00000498      -0.00000329      -0.00000668
S        1.51649612       1.07232489       5.70992526      -0.00093184      -0.00065632      -0.00000002
S        5.07675800       3.58980938       5.70992491       0.00093736       0.00065559      -0.00000342
S        4.18669260       1.07232479       4.16828639       0.00046612      -0.00065215      -0.00080455
S        2.40656105       3.58980988       7.25156374      -0.00046843       0.00065822       0.00080542
S        2.40656136       3.58981006       4.16828698      -0.00046431       0.00065876      -0.00080042
S        4.18669265       1.07232501       7.25156412       0.00046719      -0.00065206       0.00080778
