9
Lattice="5.038221950444148 -2.6042523486893944e-08 2.9088186164491305 1.679407357249973 4.750080900750069 2.9088185038859384 1.8059061609880307e-09 -1.3658424813627558e-07 5.817637229770282" Properties=species:S:1:pos:R:3:forces:R:3 energy=-31.206275939941406 free_energy=-31.206275939941406 stress="-1.4642916539742146e-05 -1.4688053440181648e-08 -1.3447847280190217e-08 -1.4688053440181648e-08 -1.4652160643890966e-05 1.9845908028059966e-08 -1.3447847280190217e-08 1.9845908028059966e-08 -1.4752408787899185e-05" pbc="T T T"
Ni       1.67940898       1.18752103       2.90881722       0.00001761       0.00001283      -0.00001361
Ni       5.03822136       3.56256128       8.72645362      -0.00000787       0.00000156      -0.00001833
Cu      -0.00000020      -0.00000010       0.00000051       0.00000151      -0.00000510      -0.00000521
S        1.79559604       1.26967777       5.81763725      -0.00126022      -0.00089562       0.00000060
S        4.92203330       3.48040244       5.81763767       0.00126252       0.00089011       0.00000354
S        4.14042296       1.26967788       4.46384946       0.00061461      -0.00088662      -0.00109905
S        2.57720567       3.48040055       7.17142602      -0.00062695       0.00087500       0.00111547
S        2.57720576       3.48040275       4.46384970      -0.00062329       0.00088367      -0.00109890
S        4.14042323       1.26967934       7.17142607       0.00062206      -0.00087586       0.00111574
