9
Lattice="4.65816081835351 5.749188846783217e-08 2.6893903782624 1.5527203506169935 4.391756080374665 2.6893903373364383 2.425957221822141e-07 1.2141722437251027e-07 5.378780336336672" Properties=species:S:1:pos:R:3:forces:R:3 energy=-27.747737884521484 free_energy=-27.747737884521484 stress="9.715511987451464e-05 7.926490042109435e-08 -3.380152975296369e-07 7.926490042109435e-08 9.706924902275205e-05 -2.6559666821412975e-07 -3.380152975296369e-07 -2.6559666821412975e-07 9.720028174342588e-05" pbc="T T T"
Ni       1.55272000       1.09793827       2.68938780      -0.00000225      -0.00000644      -0.00003590
Ni       4.65815953       3.29381570       8.06817546      -0.00001888      -0.00001937       0.00006012
Cd      -0.00000009      -0.00000003       0.00000004       0.00000250       0.00000514      -0.00000323
O        1.69221100       1.19657316       5.37878135      -0.00083882      -0.00059465       0.00001379
O        4.51867095       3.19518265       5.37877776       0.00083633       0.00059338      -0.00003015
O        3.81205675       1.19657498       4.15488679       0.00043358      -0.00057355      -0.00073183
O        2.39882462       3.19518240       6.60267356      -0.00042794       0.00058791       0.00072141
O        2.39882760       3.19518364       4.15488735      -0.00039756       0.00060208      -0.00072777
O        3.81205523       1.19657435       6.60267405       0.00041297      -0.00059459       0.00073366
