9
Lattice="5.953399344971997 2.135837501870576e-07 3.4371966182172495 1.9844664740703004 5.612919477156006 3.437196922404198 -1.2674912195430073e-07 2.829262528097931e-07 6.874393455970421" Properties=species:S:1:pos:R:3:forces:R:3 energy=-32.451171875 free_energy=-32.451171875 stress="8.831713057588786e-05 5.126880253669697e-09 -1.981340602696946e-08 5.126880253669697e-09 8.815559704089537e-05 -3.1390449350965355e-08 -1.981340602696946e-08 -3.1390449350965355e-08 8.814535976853222e-05" pbc="T T T"
Ni       1.98446667       1.40323024       3.43719696       0.00000102      -0.00000023       0.00000413
Ni       5.95339907       4.20969071      10.31159028       0.00000082       0.00000197       0.00000180
Co      -0.00000012       0.00000023       0.00000003       0.00000374      -0.00000274       0.00000107
Te       1.99536503       1.41093635       6.87439340      -0.00087899      -0.00062250      -0.00000059
Te       5.94250108       4.20198362       6.87439321       0.00087870       0.00061998      -0.00000060
Te       4.95571668       1.41093567       5.16523337       0.00043775      -0.00062186      -0.00075708
Te       2.98214890       4.20198437       8.58355353      -0.00043809       0.00062109       0.00075908
Te       2.98214857       4.20198273       5.16523332      -0.00044149       0.00062126      -0.00076396
Te       4.95571682       1.41093596       8.58355384       0.00043639      -0.00061695       0.00075615
