9
Lattice="5.617517836159214 9.194012804748262e-08 3.2432750815239393 1.872506020418168 5.2962459926272984 3.2432751017027557 -4.288641974973134e-08 -5.611385616320109e-09 6.486550237329408" Properties=species:S:1:pos:R:3:forces:R:3 energy=-26.349353790283203 free_energy=-26.349353790283203 stress="6.440439756261185e-05 6.709075073274562e-09 -2.65409063615607e-08 6.709075073274562e-09 6.450478394981474e-05 3.069774834330019e-08 -2.65409063615607e-08 3.069774834330019e-08 6.447678606491536e-05" pbc="T T T"
Ni       1.87250578       1.32406173       3.24327429      -0.00000236       0.00000376      -0.00000259
Ni       5.61751870       3.97218220       9.72982268       0.00000371      -0.00001343      -0.00001300
Cd       0.00000009      -0.00000008      -0.00000063      -0.00000198       0.00000180       0.00000409
Se       2.19125956       1.54945478       6.48654967       0.00250831       0.00177759      -0.00000108
Se       5.29876491       3.74678982       6.48655082      -0.00250214      -0.00177872       0.00000286
Se       4.52188820       1.54945577       5.14096289      -0.00124925       0.00177312       0.00217146
Se       2.96813602       3.74679201       7.83213843       0.00125451      -0.00177340      -0.00217444
Se       2.96813422       3.74679114       5.14096229       0.00124583      -0.00177528       0.00217646
Se       4.52188775       1.54945686       7.83214123      -0.00125654       0.00178476      -0.00216377
