9
Lattice="4.010133690370992 2.5952168775412877e-08 2.315252057576088 1.3367112944405897 3.780790023582429 2.3152519885556373 2.336645114550261e-07 8.069332552189015e-08 4.630503710433383" Properties=species:S:1:pos:R:3:forces:R:3 energy=-40.91652297973633 free_energy=-40.91652297973633 stress="0.0004266044998075813 5.68893732122433e-08 1.0118937865399857e-07 5.68893732122433e-08 0.00042683351784944534 9.087678876085192e-08 1.0118937865399857e-07 9.087678876085192e-08 0.00042663863860070705" pbc="T T T"
Ni       1.33671657       0.94519865       2.31525787       0.00008116       0.00002028       0.00008743
Ni       4.01013697       2.83559390       6.94576072       0.00005176       0.00001746       0.00007504
C        0.00000110      -0.00000031       0.00000106       0.00003388       0.00000006       0.00003654
O        1.23613230       0.87407584       4.63050154      -0.00867248      -0.00613916      -0.00004231
O        4.11071042       2.90671384       4.63050288       0.00862718       0.00613821      -0.00003095
O        3.39206592       0.87407885       3.38577100       0.00429809      -0.00611496      -0.00754321
O        1.95477471       2.90671123       5.87523248      -0.00436532       0.00610673       0.00747252
O        1.95477514       2.90671132       3.38577275      -0.00436759       0.00611007      -0.00752389
O        3.39206744       0.87407662       5.87523143       0.00431335      -0.00614011       0.00746715
