9
Lattice="3.9248284183087727 -0.8105547101973226 1.1710636850345049 0.46267306949635434 1.6571631507160658 1.2907751908162979 -0.3339526239909739 -0.1293340063360071 3.5300620774136324" Properties=species:S:1:pos:R:3:forces:R:3 energy=-401084000.0 free_energy=-401084000.0 stress="43666232.0 27789456.0 -13542738.0 27789456.0 115807472.0 49961284.0 -13542738.0 49961284.0 124218376.0" pbc="T T T"
Ni       0.96776560       0.24625591       3.69920539 110108256.00000000 -15290944.00000000 147399824.00000000
Ni       3.85928596      -1.46928205       6.49278142 -151639392.00000000 -240804608.00000000 4896352.00000000
C        0.02543209      -0.26087875       1.30458115 321223488.00000000 581675968.00000000 -132574824.00000000
S        0.59607585      -0.49779047       3.97495398 -304595424.00000000 169562048.00000000 -177355312.00000000
S        4.56566200      -0.14254846       3.72181496 684965440.00000000 -478810016.00000000 26204020.00000000
S        5.63198835      -1.21692196       1.72331413 -275475616.00000000 317334048.00000000 264610592.00000000
S        0.77200225       0.60280953       5.19491100 199455664.00000000 -684627392.00000000 -351453120.00000000
S        1.89445285       1.50047565       2.88197425 -436678144.00000000 266024992.00000000 -33527386.00000000
S        4.60382583      -1.73565361       5.86588518 -147364576.00000000 84936112.00000000 251799648.00000000
