9
Lattice="6.0795733936060605 7.857010342975237e-08 3.510043243618541 2.0265245233207705 5.731876719408452 3.510043270103723 -2.7578331963895774e-08 1.2936767459635881e-08 7.0200865350041" Properties=species:S:1:pos:R:3:forces:R:3 energy=-34.084930419921875 free_energy=-34.084930419921875 stress="-0.0001969645672943443 -1.7309177424706945e-09 7.445875027656257e-09 -1.7309177424706945e-09 -0.00019708297622855753 3.873525944442235e-09 7.445875027656257e-09 3.873525944442235e-09 -0.00019702107238117605" pbc="T T T"
Ni       2.02652428       1.43297009       3.51004318      -0.00000202       0.00000565      -0.00000034
Ni       6.07957323       4.29890675      10.53013109      -0.00000003      -0.00000453       0.00000665
Cr       0.00000017       0.00000011      -0.00000040      -0.00000445      -0.00000140       0.00000052
Te       2.12528312       1.50280223       7.02008622      -0.00330800      -0.00233896      -0.00000117
Te       5.98081465       4.22907435       7.02008550       0.00331356       0.00234286      -0.00000249
Te       5.01693220       1.50280256       5.35059223       0.00165739      -0.00234190      -0.00287032
Te       3.08916565       4.22907447       8.68958116      -0.00165653       0.00233856       0.00286654
Te       3.08916626       4.22907450       5.35059213      -0.00165365       0.00233920      -0.00286578
Te       5.01693201       1.50280218       8.68958110       0.00165386      -0.00233959       0.00286631
