9
Lattice="4.001354693641385 -2.7034864392831755e-08 2.310183251981503 1.3337848221966306 3.7725131747333625 2.310183338921997 -8.075144967000523e-08 4.938002853753708e-08 4.620366643828634" Properties=species:S:1:pos:R:3:forces:R:3 energy=-47.66986846923828 free_energy=-47.66986846923828 stress="-0.00010365185153204948 1.188813669728006e-07 -9.100141795670424e-08 1.188813669728006e-07 -0.00010323069000151008 -2.5658627222924224e-08 -9.100141795670424e-08 -2.5658627222924224e-08 -0.00010359124280512333" pbc="T T T"
Ni       1.33378606       0.94312808       2.31018322       0.00002689      -0.00000573       0.00000047
Ni       4.00135184       2.82938619       6.93054967      -0.00005133       0.00002503      -0.00000672
C        0.00000043       0.00000024       0.00000062       0.00000095      -0.00000336       0.00000378
N        1.25461544       0.88714607       4.62036667       0.00143468       0.00099456       0.00000100
N        4.08052336       2.88536760       4.62036702      -0.00144303      -0.00099039       0.00000445
N        3.37404627       0.88714605       3.39671188      -0.00072634       0.00099754       0.00123429
N        1.96109350       2.88536557       5.84402251       0.00073391      -0.00101614      -0.00121725
N        1.96109390       2.88536648       3.39671061       0.00074160      -0.00100946       0.00121915
N        3.37404690       0.88714684       5.84402089      -0.00071907       0.00100791      -0.00123632
