9
Lattice="4.326588323387272 8.712953866638519e-08 2.49795709970926 1.4421961997256878 4.079145896283332 2.497957082763912 5.7376687435833915e-08 1.9817700699198814e-08 4.9959141000392" Properties=species:S:1:pos:R:3:forces:R:3 energy=-34.253971099853516 free_energy=-34.253971099853516 stress="-0.0001312034291913733 -2.807665850923513e-07 7.701055437792093e-08 -2.807665850923513e-07 -0.00012913055252283812 -1.4197897968415418e-08 7.701055437792093e-08 -1.4197897968415418e-08 -0.00013194611528888345" pbc="T T T"
Ni       1.44219155       1.01977699       2.49795911      -0.00006283      -0.00014109       0.00002259
Ni       4.32658975       3.05936649       7.49387371       0.00002649       0.00011118       0.00002652
Cu      -0.00000009      -0.00000004       0.00000009       0.00000308      -0.00000062       0.00000573
O        1.55834411       1.10191200       4.99591369      -0.00281096      -0.00204104      -0.00001006
O        4.21044047       2.97723427       4.99591332       0.00280845       0.00204372      -0.00001185
O        3.54741787       1.10191177       3.84752355       0.00142360      -0.00204790      -0.00242090
O        2.22136802       2.97723661       6.14430318      -0.00141221       0.00206977       0.00240290
O        2.22136836       2.97723525       3.84752335      -0.00140494       0.00206280      -0.00241905
O        3.54741820       1.10191070       6.14430334       0.00142860      -0.00205731       0.00240356
