9
Lattice="4.43933266841684 8.696664597286302e-08 2.5630495699835123 1.4797776953338897 4.185443007976016 2.5630494709067873 5.154132967846638e-08 -8.489855522661157e-08 5.12609905069492" Properties=species:S:1:pos:R:3:forces:R:3 energy=-41.90992736816406 free_energy=-41.90992736816406 stress="-2.609115108498372e-05 -1.849736435133309e-07 4.232039430007717e-08 -1.849736435133309e-07 -2.609638795547653e-05 -1.2747398159262957e-07 4.232039430007717e-08 -1.2747398159262957e-07 -2.5936000383808278e-05" pbc="T T T"
Ni       1.47977762       1.04635547       2.56305107      -0.00000075      -0.00006649       0.00001821
Ni       4.43933256       3.13908164       7.68914642      -0.00000435      -0.00001289      -0.00002755
Cr      -0.00000020      -0.00000019      -0.00000008       0.00000229      -0.00000408      -0.00000448
O        1.45778845       1.03081242       5.12609876      -0.00129223      -0.00090867      -0.00000605
O        4.46132076       3.15463249       5.12610008       0.00128132       0.00093564       0.00001216
O        3.71043804       1.03081290       3.82553110       0.00064304      -0.00090975      -0.00111991
O        2.20867312       3.15463216       6.42666613      -0.00063720       0.00093961       0.00111815
O        2.20867228       3.15463195       3.82553233      -0.00065017       0.00093928      -0.00111443
O        3.71043890       1.03081305       6.42666631       0.00065807      -0.00091180       0.00112471
