9
Lattice="3.713742664628016 1.0420137551717693e-06 2.1441303308254143 1.237914095769711 3.5013514944367397 2.144132250271765 -1.1783834189878585e-06 1.5175889846461889e-06 4.288262702670965" Properties=species:S:1:pos:R:3:forces:R:3 energy=-40.954978942871094 free_energy=-40.954978942871094 stress="-0.0011450897436589003 1.9113471694254258e-07 -3.112687920747703e-07 1.9113471694254258e-07 -0.0011452545877546072 2.200972204491336e-07 -3.112687920747703e-07 2.200972204491336e-07 -0.0011446485295891762" pbc="T T T"
Ni       1.23791403       0.87533814       2.14413152      -0.00000272      -0.00000057       0.00000749
Ni       3.71374209       2.62601600       6.43239434      -0.00000147      -0.00000556      -0.00001068
C        0.00001081      -0.00001730       0.00002023       0.00011017      -0.00017677       0.00020624
O        1.20071559       0.84904145       4.28825897       0.00614166       0.00438559      -0.00004085
O        3.75093585       2.65231962       4.28825853      -0.00617957      -0.00431907      -0.00002511
O        3.11338117       0.84904185       3.18398076      -0.00310504       0.00437701       0.00529134
O        1.83827059       2.65231926       5.39253737       0.00306070      -0.00431323      -0.00537586
O        1.83827023       2.65231984       3.18397995       0.00307858      -0.00434470       0.00532830
O        3.11338137       0.84904083       5.39253805      -0.00310278       0.00439715      -0.00537980
