9
Lattice="6.306232806164327 -5.079593290914003e-10 3.64090526958454 2.1020775512040113 5.945573412242879 3.640905356831211 -7.726067820020816e-08 5.222333776276803e-08 7.281810672988542" Properties=species:S:1:pos:R:3:forces:R:3 energy=-24.227283477783203 free_energy=-24.227283477783203 stress="3.748026938410476e-05 -9.590285010574462e-09 -7.541567370594748e-09 -9.590285010574462e-09 3.7476547731785104e-05 2.8999567192045106e-09 -7.541567370594748e-09 2.8999567192045106e-09 3.746652873815037e-05" pbc="T T T"
Ni       2.10207696       1.48639338       3.64090546      -0.00000172       0.00000040       0.00000023
Ni       6.30623275       4.45918031      10.92271558       0.00000007       0.00000106      -0.00000197
Cd      -0.00000008       0.00000025       0.00000001       0.00000074      -0.00000101      -0.00000168
Te       2.35209023       1.66317862       7.28181070       0.00127612       0.00090154      -0.00000035
Te       6.05622044       4.28239441       7.28181095      -0.00127539      -0.00090274       0.00000091
Te       5.13018790       1.66317874       5.67787520      -0.00063778       0.00090190       0.00110546
Te       3.27812258       4.28239463       8.88574610       0.00063699      -0.00090018      -0.00110365
Te       3.27812231       4.28239452       5.67787513       0.00063733      -0.00090277       0.00110519
Te       5.13018804       1.66317897       8.88574604      -0.00063629       0.00090181      -0.00110403
