9
Lattice="4.238659565671823 -2.0958635477264285e-09 2.4471911536462656 1.4128865501576016 3.996246303388459 2.4471911012638494 6.829209322001495e-08 -1.58652568583598e-08 4.894382189007146" Properties=species:S:1:pos:R:3:forces:R:3 energy=-38.40315628051758 free_energy=-38.40315628051758 stress="-0.00038933800533413887 1.2306033170261799e-07 2.686580273802974e-07 1.2306033170261799e-07 -0.00038974781637080014 7.514413624676308e-08 2.686580273802974e-07 7.514413624676308e-08 -0.00038939592195674777" pbc="T T T"
Ni       1.41288672       0.99906290       2.44719352       0.00000334       0.00001345       0.00002919
Ni       4.23866035       2.99718265       7.34157207       0.00000534      -0.00002369      -0.00001242
Co      -0.00000008      -0.00000005       0.00000015       0.00000530      -0.00000048       0.00000588
O        1.42716434       1.00915796       4.89438160      -0.00366002      -0.00257295      -0.00001225
O        4.22438199       2.98708812       4.89438308       0.00365758       0.00257355       0.00000892
O        3.52507669       1.00915794       3.68315063       0.00181523      -0.00257137      -0.00316757
O        2.12646862       2.98708928       6.10561257      -0.00182253       0.00257668       0.00315529
O        2.12646789       2.98708814       3.68315140      -0.00183725       0.00256962      -0.00316459
O        3.52507847       1.00915814       6.10561314       0.00183308      -0.00256455       0.00315869
