9
Lattice="5.293204442450188 -1.3489065780696507e-07 3.056032925306455 1.764401380391658 4.990481580752515 3.0560328789722275 -2.511333192681424e-07 -2.343256935254092e-07 6.112066285588604" Properties=species:S:1:pos:R:3:forces:R:3 energy=-36.49350357055664 free_energy=-36.49350357055664 stress="4.0577728213975206e-05 -4.1411269080526836e-08 2.5355099353419064e-08 -4.1411269080526836e-08 4.0546492527937517e-05 3.3470632931908995e-09 2.5355099353419064e-08 3.3470632931908995e-09 4.0643950342200696e-05" pbc="T T T"
Ni       1.76440169       1.24761852       3.05603001      -0.00000190      -0.00001621      -0.00002127
Ni       5.29320262       3.74285987       9.16810086      -0.00001013      -0.00000829       0.00001563
Cr      -0.00000003      -0.00000003      -0.00000016       0.00000143       0.00000141       0.00000183
Se       1.93912258       1.37116649       6.11206825       0.00094289       0.00066440       0.00001434
Se       5.11848327       3.61931528       6.11206370      -0.00094046      -0.00065771      -0.00000982
Se       4.32364376       1.37116790       4.73536292      -0.00046226       0.00066689       0.00080988
Se       2.73396310       3.61931533       7.48876970       0.00047403      -0.00066156      -0.00081149
Se       2.73396275       3.61931451       4.73536367       0.00046968      -0.00065588       0.00081083
Se       4.32364270       1.37116695       7.48876935      -0.00047325       0.00066692      -0.00081009
