9
Lattice="5.459690135180845 9.56961199351961e-08 3.15215384192533 1.8198968410146001 5.147446179404644 3.152153774263661 -1.4285292726347607e-07 -1.8388054683907385e-07 6.304307931279134" Properties=species:S:1:pos:R:3:forces:R:3 energy=-25.460744857788086 free_energy=-25.460744857788086 stress="1.4582792573492043e-06 1.263505211568372e-08 6.79917988577472e-08 1.263505211568372e-08 1.4528754945786204e-06 3.657518732325116e-08 6.79917988577472e-08 3.657518732325116e-08 1.3571847148341476e-06" pbc="T T T"
Ni       1.81989625       1.28686222       3.15215400      -0.00000248       0.00000486      -0.00000073
Ni       5.45969014       3.86058384       9.45646211      -0.00000017      -0.00000484       0.00000217
Cd       0.00000016      -0.00000013      -0.00000034      -0.00000239       0.00000367       0.00000259
S        1.99333733       1.40950335       6.30430871      -0.00793383      -0.00560370       0.00000449
S        5.28624942       3.73794269       6.30430603       0.00793165       0.00560437      -0.00000860
S        4.46302157       1.40950339       4.87843495       0.00396934      -0.00560601      -0.00687018
S        2.81656518       3.73794238       7.73018102      -0.00396496       0.00560157       0.00686881
S        2.81656539       3.73794305       4.87843488      -0.00396469       0.00560476      -0.00686887
S        4.46302187       1.40950366       7.73018096       0.00396733      -0.00560479       0.00687031
