9
Lattice="5.541785447663386 -1.2710816372230047e-07 3.1995512221134055 1.8472617114105783 5.224845540068856 3.199551195506433 9.391471368577767e-08 3.382094131046125e-08 6.399102281561791" Properties=species:S:1:pos:R:3:forces:R:3 energy=-33.92613220214844 free_energy=-33.92613220214844 stress="-0.00013380606833379716 -4.33224034424029e-09 -2.4595838254981572e-08 -4.33224034424029e-09 -0.00013381868484430015 3.388323177588859e-09 -2.4595838254981572e-08 3.388323177588859e-09 -0.00013377155119087547" pbc="T T T"
Ni       1.84726123       1.30621107       3.19955148      -0.00000586      -0.00000197       0.00000401
Ni       5.54178540       3.91863420       9.59865463       0.00000114       0.00000165       0.00000729
Co       0.00000001       0.00000013       0.00000035       0.00000094      -0.00000060      -0.00000274
Se       1.87368462       1.32489466       6.39910231       0.00782706       0.00553156      -0.00000047
Se       5.51536274       3.89995084       6.39910202      -0.00782524      -0.00553233      -0.00000367
Se       4.60494398       1.32489534       4.82220927      -0.00391103       0.00553465       0.00677517
Se       2.78410349       3.89995049       7.97599478       0.00391032      -0.00553219      -0.00677744
Se       2.78410346       3.89995043       4.82220932       0.00391298      -0.00553247       0.00677621
Se       4.60494411       1.32489467       7.97599465      -0.00391041       0.00553155      -0.00677831
