9
Lattice="4.932972819398113 -1.0579555935236861e-07 2.848053201116845 1.6443241801791348 4.650851012311847 2.8480531893537275 5.396091784802615e-08 2.3749293277949038e-08 5.696106308770692" Properties=species:S:1:pos:R:3:forces:R:3 energy=-37.2465705871582 free_energy=-37.2465705871582 stress="-2.7033520382246934e-06 -5.240722344979076e-08 -4.6218882943094286e-08 -5.240722344979076e-08 -2.607913074825774e-06 -3.6756699905993173e-09 -4.6218882943094286e-08 -3.6756699905993173e-09 -2.669921286724275e-06" pbc="T T T"
Ni       1.64432692       1.16271462       2.84805468       0.00003449       0.00002305       0.00001775
Ni       4.93297346       3.48813897       8.54415850       0.00000715       0.00000787      -0.00001041
Co      -0.00000025      -0.00000009      -0.00000044       0.00000104      -0.00000222       0.00000691
S        1.73042231       1.22359329       5.69610580       0.00102099       0.00072311      -0.00000739
S        4.84687449       3.42725746       5.69610732      -0.00103397      -0.00072994       0.00000840
S        4.06775973       1.22359292       4.34664254      -0.00052970       0.00072011       0.00087743
S        2.50953585       3.42725722       7.04557037       0.00051598      -0.00073151      -0.00088482
S        2.50953473       3.42725636       4.34664243       0.00050430      -0.00073845       0.00087920
S        4.06776104       1.22359301       7.04556980      -0.00052039       0.00072794      -0.00088705
