9
Lattice="5.974410759323083 8.466721821655359e-08 3.449327928243366 1.991470277242864 5.632728858871026 3.4493280247011913 -2.582881024559022e-09 1.1630978870766237e-07 6.8986558609604165" Properties=species:S:1:pos:R:3:forces:R:3 energy=-28.51978302001953 free_energy=-28.51978302001953 stress="-1.4625265976064838e-05 -4.983434820360344e-08 2.8250513040006808e-08 -4.983434820360344e-08 -1.4688492228742689e-05 -8.943022322682737e-09 2.8250513040006808e-08 -8.943022322682737e-09 -1.4624549294239841e-05" pbc="T T T"
Ni       1.99147108       1.40818281       3.44932790       0.00000284       0.00000456      -0.00000033
Ni       5.97441118       4.22454666      10.34798259       0.00000254      -0.00000207      -0.00000815
Cu      -0.00000033       0.00000012       0.00000069       0.00000351      -0.00000131      -0.00000703
Te       2.11235524       1.49366109       6.89865615       0.00003286       0.00002342       0.00000119
Te       5.85352637       4.13906773       6.89865672      -0.00003634      -0.00002776       0.00000400
Te       4.91823244       1.49366073       5.27868113      -0.00002101       0.00002589       0.00003024
Te       3.04764819       4.13906781       8.51863014       0.00001538      -0.00002042      -0.00002471
Te       3.04764750       4.13906780       5.27868158       0.00001695      -0.00002515       0.00003061
Te       4.91823248       1.49366152       8.51863036      -0.00001676       0.00002287      -0.00002575
