9
Lattice="4.939898039204462 5.369832724275406e-08 2.852050900539259 1.6466326232067143 4.657380580707347 2.8520510861378296 9.74620327873746e-08 2.9622702049078136e-07 5.70410163226928" Properties=species:S:1:pos:R:3:forces:R:3 energy=-39.9431266784668 free_energy=-39.9431266784668 stress="5.348300328478217e-05 -8.13329563698062e-08 9.972445980110933e-08 -8.13329563698062e-08 5.3268217016011477e-05 9.047836257991548e-09 9.972445980110933e-08 9.047836257991548e-09 5.3674171795137227e-05" pbc="T T T"
Ni       1.64663434       1.16434177       2.85205100       0.00001509      -0.00002995       0.00000580
Ni       4.93989754       3.49303871       8.55615651      -0.00000283       0.00002370       0.00003526
Cr      -0.00000004      -0.00000010       0.00000167       0.00000133       0.00000249      -0.00001112
S        1.77785204       1.25712944       5.70410147      -0.00146633      -0.00105397      -0.00000170
S        4.80867903       3.40025131       5.70409847       0.00146255       0.00104839      -0.00002101
S        4.05097029       1.25712956       4.39171417       0.00072000      -0.00104760      -0.00127666
S        2.53555698       3.40024991       7.01648769      -0.00074560       0.00104485       0.00126937
S        2.53556027       3.40025184       4.39171573      -0.00072168       0.00105806      -0.00127317
S        4.05097238       1.25713147       7.01648769       0.00073761      -0.00104593       0.00127327
