9
Lattice="4.904036226654853 2.397342852013411e-07 2.8313471017281895 1.6346788838987292 4.623571310901213 2.831347247814766 -1.1516554900847998e-07 9.748454433162915e-08 5.662694402928864" Properties=species:S:1:pos:R:3:forces:R:3 energy=-38.47513961791992 free_energy=-38.47513961791992 stress="-5.568132837652229e-05 -6.748012992829899e-08 3.4665735171302003e-08 -6.748012992829899e-08 -5.599275027634576e-05 -4.493971061947377e-08 3.4665735171302003e-08 -4.493971061947377e-08 -5.585357575910166e-05" pbc="T T T"
Ni       1.63468213       1.15589352       2.83134777       0.00003828       0.00000584       0.00000890
Ni       4.90403334       3.46767773       8.49404415      -0.00003580      -0.00001134       0.00002978
Fe       0.00000014      -0.00000088      -0.00000062      -0.00000240       0.00000922       0.00000296
S        1.73498102       1.22681605       5.66269423       0.00092344       0.00064190      -0.00000076
S        4.80373436       3.39675477       5.66269195      -0.00092164      -0.00064364      -0.00001961
S        4.03654426       1.22681768       4.33388375      -0.00046967       0.00065228       0.00077319
S        2.50217016       3.39675479       6.99150494       0.00046920      -0.00065790      -0.00079374
S        2.50217010       3.39675408       4.33388382       0.00046966      -0.00065240       0.00077973
S        4.03654458       1.22681886       6.99150497      -0.00047104       0.00065601      -0.00078070
