9
Lattice="5.60108418820466 -2.7461334743374405e-09 3.233787430648675 1.8670281348929392 5.280752771972885 3.2337873011828697 6.166334250535734e-08 -1.1496001339255261e-07 6.467574754493322" Properties=species:S:1:pos:R:3:forces:R:3 energy=-36.19629669189453 free_energy=-36.19629669189453 stress="-3.57164244633168e-05 2.0382940135732497e-07 1.1846195491216349e-07 2.0382940135732497e-07 -3.586856837500818e-05 -1.246959726586283e-07 1.1846195491216349e-07 -1.246959726586283e-07 -3.596767783164978e-05" pbc="T T T"
Ni       1.86702782       1.32018814       3.23378813      -0.00000132       0.00000030       0.00000383
Ni       5.60108482       3.96056533       9.70136181       0.00000088       0.00000290      -0.00000166
Fe      -0.00000020       0.00000017      -0.00000041      -0.00000289      -0.00000961       0.00000648
Se       1.84553930       1.30499355       6.46757467       0.00002846       0.00001824      -0.00000141
Se       5.62257206       3.97575935       6.46757567      -0.00001970      -0.00001320       0.00000238
Se       4.67831541       1.30499229       4.83207054      -0.00002168       0.00002979       0.00004002
Se       2.78979741       3.97576042       8.10307851       0.00002094      -0.00002976      -0.00003988
Se       2.78979776       3.97575886       4.83207030       0.00001395      -0.00002261       0.00002322
Se       4.67831514       1.30499244       8.10307885      -0.00001876       0.00002386      -0.00003311
