9
Lattice="5.988771441830886 -1.6453559628422286e-07 3.4576187583854936 1.9962569121189646 5.64626789658891 3.457618897005442 -1.572928657561028e-07 5.855131902453058e-08 6.9152377892101855" Properties=species:S:1:pos:R:3:forces:R:3 energy=-34.091251373291016 free_energy=-34.091251373291016 stress="-2.34089202422183e-05 -3.2702153873742645e-08 -9.14942166474475e-09 -3.2702153873742645e-08 -2.3392718503600918e-05 2.827096956536934e-08 -9.14942166474475e-09 2.827096956536934e-08 -2.3341131964116357e-05" pbc="T T T"
Ni       1.99625703       1.41156718       3.45761856      -0.00000026       0.00000091      -0.00000156
Ni       5.98877141       4.23470091      10.37285780       0.00000187       0.00000053       0.00000516
Fe      -0.00000015      -0.00000034       0.00000034       0.00000171       0.00000395      -0.00000397
Te       1.95214839       1.38037701       6.91523776       0.00391664       0.00276954      -0.00000028
Te       6.03288006       4.26589071       6.91523677      -0.00391984      -0.00277183      -0.00000151
Te       5.01269723       1.38037785       5.14822928      -0.00195731       0.00276845       0.00338934
Te       2.97233083       4.26589018       8.68224624       0.00195517      -0.00276716      -0.00338944
Te       2.97233136       4.26589033       5.14822894       0.00195889      -0.00277115       0.00339241
Te       5.01269670       1.38037730       8.68224610      -0.00195688       0.00276682      -0.00339019
