9
Lattice="4.407943348025564 -6.398851631947883e-08 2.5449274084104885 1.4693144011641865 4.155848947038283 2.544927387363845 -5.825588533881034e-08 -6.69699182527534e-08 5.089854917723124" Properties=species:S:1:pos:R:3:forces:R:3 energy=-38.481117248535156 free_energy=-38.481117248535156 stress="-0.00013825661153532565 1.0778681058809525e-07 5.132337221880334e-09 1.0778681058809525e-07 -0.00013856912846677005 -3.008612736721261e-08 5.132337221880334e-09 -3.008612736721261e-08 -0.00013831790420226753" pbc="T T T"
Ni       1.46931495       1.03896459       2.54492746       0.00000671       0.00002511       0.00000054
Ni       4.40794251       3.11688594       7.63478315      -0.00001008      -0.00001043       0.00000850
Fe       0.00000004      -0.00000029       0.00000004       0.00000046       0.00000061       0.00000411
O        1.45544938       1.02915781       5.08985488      -0.00086117      -0.00061031       0.00000104
O        4.42180850       3.12669010       5.08985466       0.00086768       0.00060289      -0.00000652
O        3.68021878       1.02915849       3.80538288       0.00043056      -0.00060017      -0.00074862
O        2.19703877       3.12669008       6.37432645      -0.00043198       0.00059707       0.00075103
O        2.19703921       3.12669025       3.80538297      -0.00042593       0.00059852      -0.00075290
O        3.68021862       1.02915813       6.37432647       0.00042377      -0.00060290       0.00074355
