9
Lattice="5.505585732196371 -7.911484043982663e-08 3.178651503134672 1.8351952176508033 5.190715763541968 3.17865141969218 1.5224786134381067e-07 5.459761032428264e-09 6.357302742568311" Properties=species:S:1:pos:R:3:forces:R:3 energy=-30.865320205688477 free_energy=-30.865320205688477 stress="-0.0003602219803724438 2.423150746722058e-08 -2.5871795372722772e-08 2.423150746722058e-08 -0.00036022791755385697 -2.9576916915630136e-08 -2.5871795372722772e-08 -2.9576916915630136e-08 -0.00036021447158418596" pbc="T T T"
Ni       1.83519399       1.29768023       3.17865114      -0.00000754       0.00000702      -0.00000096
Ni       5.50558444       3.89303780       9.53595575      -0.00000836       0.00000534       0.00000576
Ge       0.00000001       0.00000018       0.00000013       0.00000143      -0.00000167      -0.00000140
Se       2.11241812       1.49370506       6.35730259       0.00149898       0.00105700      -0.00000011
Se       5.22836288       3.69701025       6.35730246      -0.00149487      -0.00106023      -0.00000237
Se       4.44937776       1.49370400       5.00805952      -0.00074703       0.00105758       0.00130013
Se       2.89140427       3.69700987       7.70654639       0.00074781      -0.00106029      -0.00129533
Se       2.89140561       3.69701052       5.00805828       0.00075535      -0.00106145       0.00129205
Se       4.44937737       1.49370475       7.70654643      -0.00074584       0.00105676      -0.00129767
