9
Lattice="6.259288973957507 -2.1840713240897425e-07 3.613802210031271 2.086429477610814 5.901314134035533 3.613802165792583 7.10955260676634e-08 -3.908976215679748e-09 7.227604296921471" Properties=species:S:1:pos:R:3:forces:R:3 energy=-25.75892448425293 free_energy=-25.75892448425293 stress="-8.589861681684852e-05 -7.3051209525942795e-09 -7.04955760433279e-10 -7.3051209525942795e-09 -8.591703954152763e-05 -1.1232651253578751e-08 -7.04955760433279e-10 -1.1232651253578751e-08 -8.587773481849581e-05" pbc="T T T"
Ni       2.08642931       1.47532816       3.61380223      -0.00000141      -0.00000070       0.00000026
Ni       6.25928905       4.42598606      10.84140549       0.00000143       0.00000265      -0.00000243
Mg      -0.00000035      -0.00000073       0.00000078       0.00000180       0.00000602      -0.00000587
Te       2.31776345       1.63890602       7.22760425       0.00541078       0.00382559      -0.00000062
Te       6.02795568       4.26240793       7.22760489      -0.00541496      -0.00382899       0.00000127
Te       5.10040702       1.63890557       5.62104452      -0.00270704       0.00382590       0.00468823
Te       3.24531169       4.26240826       8.83416421       0.00270624      -0.00382541      -0.00468735
Te       3.24531099       4.26240822       5.62104444       0.00270661      -0.00382837       0.00469097
Te       5.10040725       1.63890618       8.83416384      -0.00270348       0.00382330      -0.00468459
