9
Lattice="5.446552222980863 -3.5103565184089e-07 3.144568992573646 1.8155171169944195 5.135058864945932 3.144568922782853 -3.125604235744362e-08 -1.075773537321103e-07 6.289138039284243" Properties=species:S:1:pos:R:3:forces:R:3 energy=-27.790315628051758 free_energy=-27.790315628051758 stress="-0.00034095573937520385 5.7307715906063095e-08 -3.7865515167823105e-08 5.7307715906063095e-08 -0.00034101688652299345 3.459480479861554e-09 -3.7865515167823105e-08 3.459480479861554e-09 -0.000341112376190722" pbc="T T T"
Ni       1.81551706       1.28376682       3.14456695      -0.00000033       0.00001872      -0.00001049
Ni       5.44654822       3.85129687       9.43369529      -0.00002642       0.00001462      -0.00007866
Mg       0.00000029      -0.00000005       0.00000151       0.00000355      -0.00000661       0.00000089
Se       2.08988854       1.47777037       6.28914581      -0.00802299      -0.00569738       0.00003629
Se       5.17218451       3.65728253       6.28915142       0.00804609       0.00567025       0.00006812
Se       4.40160443       1.47777348       4.95445937       0.00398573      -0.00566761      -0.00697026
Se       2.86046212       3.65728878       7.62381058      -0.00401139       0.00570557       0.00695622
Se       2.86046004       3.65728235       4.95446108      -0.00401033       0.00565135      -0.00696042
Se       4.40161206       1.47777231       7.62381175       0.00403610      -0.00568888       0.00695816
