9
Lattice="5.9860136457950155 1.1985942534292144e-07 3.456026742707765 1.9953379288852482 5.64366791065548 3.4560268571114383 -5.030651666194724e-08 1.0454324338176546e-07 6.912053572548972" Properties=species:S:1:pos:R:3:forces:R:3 energy=-34.131690979003906 free_energy=-34.131690979003906 stress="-3.394670056877658e-05 -2.1942142325315217e-08 8.606219736861931e-09 -2.1942142325315217e-08 -3.39143953169696e-05 2.6984928069850866e-08 8.606219736861931e-09 2.6984928069850866e-08 -3.3896390959853306e-05" pbc="T T T"
Ni       1.99533747       1.41091637       3.45602755      -0.00000214      -0.00000308       0.00000477
Ni       5.98601385       4.23275152      10.36808054       0.00000066       0.00000218      -0.00000009
Mn       0.00000020       0.00000041       0.00000006       0.00000028      -0.00000320       0.00000003
Te       2.03621835       1.43982369       6.91205348       0.00069001       0.00048748      -0.00000073
Te       5.94513296       4.20384454       6.91205366      -0.00068805      -0.00048593      -0.00000027
Te       4.96790447       1.43982368       5.21944372      -0.00034568       0.00048798       0.00059898
Te       3.01344700       4.20384470       8.60466310       0.00034498      -0.00048713      -0.00059870
Te       3.01344695       4.20384396       5.21944363       0.00034399      -0.00048658       0.00059614
Te       4.96790481       1.43982364       8.60466293      -0.00034399       0.00048834      -0.00059998
