9
Lattice="5.3632632870312404 2.044245296267802e-07 3.0964817091262047 1.7877546012473902 5.056533451059356 3.096481744626837 1.0465553087630099e-07 1.1748181311801267e-07 6.192963236983803" Properties=species:S:1:pos:R:3:forces:R:3 energy=-38.81090545654297 free_energy=-38.81090545654297 stress="-0.00036054319934919477 -3.809075366234538e-08 -3.431779527218737e-09 -3.809075366234538e-08 -0.00036060161073692143 -1.2871132604175273e-08 -3.431779527218737e-09 -1.2871132604175273e-08 -0.0003605617384891957" pbc="T T T"
Ni       1.78775481       1.26413216       3.09648146       0.00000116      -0.00001052      -0.00000129
Ni       5.36326354       3.79240120       9.28944251       0.00000230       0.00000678      -0.00002069
Mn      -0.00000023       0.00000014       0.00000024       0.00000439      -0.00000039      -0.00000103
S        1.80364118       1.27536624       6.19296354       0.00494361       0.00349036       0.00000116
S        5.34737729       3.78116770       6.19296453      -0.00494802      -0.00349432       0.00000885
S        4.46144288       1.27536566       4.65848087      -0.00247455       0.00349218       0.00428712
S        2.68957554       3.78116774       7.72744617       0.00247455      -0.00348809      -0.00427938
S        2.68957415       3.78116727       4.65848097       0.00246677      -0.00349250       0.00428402
S        4.46144293       1.27536710       7.72744662      -0.00247052       0.00349662      -0.00427848
