9
Lattice="5.367966225459908 -9.854439626302192e-08 3.0991967836256102 1.7893220705207684 5.060967668437255 3.099196630726964 -2.009874312551593e-09 -1.8868292154229204e-07 6.198393570732353" Properties=species:S:1:pos:R:3:forces:R:3 energy=-27.977108001708984 free_energy=-27.977108001708984 stress="0.00010970763833029196 -6.411487163404672e-08 -2.302690127464757e-08 -6.411487163404672e-08 0.00010971934534609318 2.4305979451355597e-08 -2.302690127464757e-08 2.4305979451355597e-08 0.00010974764154525474" pbc="T T T"
Ni       1.78932346       1.26524346       3.09919669       0.00000673       0.00000600      -0.00000075
Ni       5.36796610       3.79572438       9.29758976      -0.00000055      -0.00000480      -0.00000271
Mg       0.00000011      -0.00000022       0.00000024       0.00000032       0.00000160      -0.00000581
S        1.92297244       1.35974677       6.19839357       0.00556256       0.00393188      -0.00000069
S        5.23431620       3.70121975       6.19839332      -0.00556028      -0.00393965       0.00000053
S        4.40647880       1.35974753       4.76453903      -0.00278566       0.00393612       0.00481321
S        2.75080830       3.70121987       7.63224718       0.00277830      -0.00393335      -0.00481236
S        2.75080856       3.70122024       4.76453957       0.00278073      -0.00393463       0.00481651
S        4.40647922       1.35974791       7.63224849      -0.00278214       0.00393693      -0.00480825
