9
Lattice="4.6373335527146695 -8.574343160368179e-08 2.6773658109254552 1.545777772840365 4.372120047967063 2.6773658061187477 1.4860449577484837e-08 4.62091998435774e-09 5.354731596111866" Properties=species:S:1:pos:R:3:forces:R:3 energy=-44.813507080078125 free_energy=-44.813507080078125 stress="-6.496068090200424e-05 8.891557001788897e-08 -1.6413432035733422e-07 8.891557001788897e-08 -6.518192094517872e-05 -8.006517049352624e-08 -1.6413432035733422e-07 -8.006517049352624e-08 -6.46380431135185e-05" pbc="T T T"
Ni       1.54577706       1.09302941       2.67736615      -0.00001224      -0.00000255       0.00000769
Ni       4.63733273       3.27909117       8.03209704      -0.00001202       0.00001548      -0.00000630
Mn       0.00000008       0.00000000       0.00000027       0.00000841      -0.00000289      -0.00001140
O        1.54172248       1.09016137       5.35473156      -0.00198448      -0.00140738       0.00000239
O        4.64138945       3.28195803       5.35473177       0.00197947       0.00140518       0.00000345
O        3.86647266       1.09016202       4.01253643       0.00100136      -0.00141042      -0.00172567
O        2.31663918       3.28195794       6.69692685      -0.00098902       0.00140733       0.00170988
O        2.31663878       3.28195768       4.01253611      -0.00099295       0.00140524      -0.00170964
O        3.86647289       1.09016221       6.69692655       0.00100106      -0.00141037       0.00173014
