9
Lattice="5.703222764548046 -1.803617289725714e-08 3.292757113975978 1.9010742405659597 5.377049735431411 3.2927571092625922 -2.978442098443586e-08 -2.6833460244702763e-08 6.585514279540107" Properties=species:S:1:pos:R:3:forces:R:3 energy=-36.54084777832031 free_energy=-36.54084777832031 stress="-1.804434577934444e-05 -2.0666572453365006e-08 6.565749277598343e-09 -2.0666572453365006e-08 -1.7935062714968808e-05 -8.72031424847819e-09 6.565749277598343e-09 -8.72031424847819e-09 -1.8004557205131277e-05" pbc="T T T"
Ni       1.90107416       1.34426222       3.29275743      -0.00000142      -0.00000141       0.00000186
Ni       5.70322264       4.03278721       9.87827155       0.00000058       0.00000047      -0.00000051
Mn      -0.00000008      -0.00000001      -0.00000028       0.00000164      -0.00000285       0.00000352
Se       1.90086586       1.34411464       6.58551426       0.00124308       0.00087693      -0.00000089
Se       5.70343111       4.03293530       6.58551433      -0.00124276      -0.00087759       0.00000235
Se       4.75279015       1.34411508       4.93895505      -0.00062020       0.00088018       0.00107381
Se       2.85150672       4.03293476       8.23207323       0.00061791      -0.00087887      -0.00107539
Se       2.85150700       4.03293459       4.93895528       0.00061944      -0.00087637       0.00107348
Se       4.75279033       1.34411488       8.23207320      -0.00061846       0.00087938      -0.00107801
