9
Lattice="4.326336405266166 2.369316798023691e-07 2.4978113166600187 1.4421123093057981 4.07890902477311 2.4978114018149755 1.1629545718560533e-07 1.8652639114658014e-07 4.995622431890408" Properties=species:S:1:pos:R:3:forces:R:3 energy=-32.819480895996094 free_energy=-32.819480895996094 stress="7.758117135381326e-05 4.337184478231393e-08 -2.507309204702324e-07 4.337184478231393e-08 7.735451799817383e-05 -2.413398192402383e-07 -2.507309204702324e-07 -2.413398192402383e-07 7.778873259667307e-05" pbc="T T T"
Ni       1.44211279       1.01972615       2.49781227       0.00000512      -0.00001378       0.00001060
Ni       4.32633683       3.05917802       7.49343944       0.00000425      -0.00005164       0.00007466
Mg       0.00000018      -0.00000025       0.00000030      -0.00000410      -0.00000175       0.00000319
O        1.54226349       1.09054839       4.99562347      -0.00056008      -0.00036255       0.00000740
O        4.22618291       2.98836413       4.99561886       0.00054121       0.00039788      -0.00004795
O        3.55520371       1.09054794       3.83345040       0.00027553      -0.00036155      -0.00049487
O        2.21324446       2.98836398       6.15779248      -0.00028241       0.00039341       0.00045973
O        2.21324563       2.98836249       3.83345090      -0.00026079       0.00038284      -0.00048445
O        3.55520542       1.09054694       6.15779255       0.00028128      -0.00038278       0.00047193
