9
Lattice="5.152210833002412 -6.201353066945772e-08 2.9746301117219156 1.7174035376216108 4.857551171924216 2.9746301375509105 -8.129954851015938e-08 -2.58536124032941e-08 5.949260364258829" Properties=species:S:1:pos:R:3:forces:R:3 energy=-41.33020782470703 free_energy=-41.33020782470703 stress="0.0003160572377964854 3.5880432847079646e-08 4.397170627612468e-08 3.5880432847079646e-08 0.0003159940242767334 -2.2794266030246035e-08 4.397170627612468e-08 -2.2794266030246035e-08 0.00031602237140759826" pbc="T T T"
Ni       1.71740370       1.21438832       2.97463003      -0.00000030       0.00000320       0.00000104
Ni       5.15220959       3.64316248       8.92389299      -0.00000532      -0.00000420       0.00001618
Nb       0.00000016       0.00000019      -0.00000023      -0.00000126       0.00000039      -0.00000060
S        1.88783970       1.33490472       5.94926007       0.00357014       0.00252701      -0.00000111
S        4.98177449       3.52264677       5.94925888      -0.00356761      -0.00252075      -0.00000797
S        4.20829165       1.33490514       4.60954653      -0.00178200       0.00252888       0.00308976
S        2.66132423       3.52264620       7.28897420       0.00179188      -0.00253217      -0.00309286
S        2.66132337       3.52264689       4.60954738       0.00178319      -0.00252394       0.00309157
S        4.20829038       1.33490345       7.28897256      -0.00178874       0.00252175      -0.00309595
