9
Lattice="5.810123364055969 -3.014636526129891e-08 3.3544760799581557 1.9367077256916976 5.477836805828631 3.354476138682704 -5.43843090300079e-08 3.346708752493225e-08 6.708952254112729" Properties=species:S:1:pos:R:3:forces:R:3 energy=-37.59174346923828 free_energy=-37.59174346923828 stress="-4.467335747904144e-05 -3.356408484478379e-08 -1.8718926853011908e-08 -3.356408484478379e-08 -4.4615575461648405e-05 3.40376615781679e-08 -1.8718926853011908e-08 3.40376615781679e-08 -4.455865564523265e-05" pbc="T T T"
Ni       1.93670846       1.36945911       3.35447607       0.00000364      -0.00000105      -0.00000105
Ni       5.81012284       4.10837717      10.06342754      -0.00000139      -0.00000176      -0.00000399
Nb      -0.00000013       0.00000018      -0.00000014       0.00000209       0.00000159      -0.00000241
Se       2.02319065       1.43061210       6.70895246      -0.00018007      -0.00012653       0.00000073
Se       5.72364040       4.04722484       6.70895270       0.00017742       0.00012622       0.00000218
Se       4.79852763       1.43061216       5.10661068       0.00009001      -0.00012804      -0.00015819
Se       2.94830351       4.04722523       8.31129379      -0.00009092       0.00013001       0.00016019
Se       2.94830296       4.04722467       5.10661083      -0.00009026       0.00012824      -0.00015663
Se       4.79852781       1.43061181       8.31129393       0.00008947      -0.00012866       0.00015915
