9
Lattice="4.603571065415359 5.248328824104127e-08 2.657872868890317 1.5345236833278109 4.340289141607318 2.6578729635048166 -1.370974909605291e-07 1.8936045032593973e-08 5.315745975240462" Properties=species:S:1:pos:R:3:forces:R:3 energy=-47.19449996948242 free_energy=-47.19449996948242 stress="0.00013828783994540572 9.494527120068597e-08 1.7738669555456e-07 9.494527120068597e-08 0.000137825874844566 4.217022819830163e-08 1.7738669555456e-07 4.217022819830163e-08 0.00013800121087115258" pbc="T T T"
Ni       1.53452307       1.08507405       2.65787301      -0.00000473       0.00002316       0.00000057
Ni       4.60357026       3.25521349       7.97361456      -0.00000729      -0.00004310      -0.00005865
Nb       0.00000030      -0.00000020      -0.00000017      -0.00000168      -0.00000092       0.00000073
O        1.60341826       1.13378910       5.31574597      -0.00543511      -0.00382674       0.00000272
O        4.53467602       3.20650113       5.31574806       0.00543308       0.00383270       0.00002537
O        3.80186223       1.13378845       4.04647461       0.00271994      -0.00383091      -0.00469327
O        2.33623360       3.20650076       6.58501861      -0.00270575       0.00383019       0.00470757
O        2.33623249       3.20650008       4.04647387      -0.00272131       0.00382757      -0.00469697
O        3.80186234       1.13378974       6.58501890       0.00272155      -0.00381172       0.00471115
