9
Lattice="5.380097769733871 4.582088021879794e-08 3.106200946194438 1.793365965997981 5.072404830035403 3.1062009469686713 3.0398013737634254e-08 2.2442862310191473e-08 6.212401839737961" Properties=species:S:1:pos:R:3:forces:R:3 energy=-32.4407844543457 free_energy=-32.4407844543457 stress="6.085350105422549e-05 1.4181679830471694e-08 7.282945357900417e-09 1.4181679830471694e-08 6.084930646466091e-05 1.610321298528561e-08 7.282945357900417e-09 1.610321298528561e-08 6.0826761909993365e-05" pbc="T T T"
Ni       1.79336543       1.26810115       3.10620120      -0.00000350      -0.00000120       0.00000149
Ni       5.38009777       3.80430358       9.31860324      -0.00000011      -0.00000087       0.00000376
P        0.00000008       0.00000005      -0.00000012       0.00000034      -0.00000074       0.00000055
Se       2.05309143       1.45175497       6.21240177      -0.00175312      -0.00123996      -0.00000079
Se       5.12037240       3.62064993       6.21240182       0.00175762       0.00124291      -0.00000182
Se       4.35355232       1.45175487       4.88423017       0.00087733      -0.00124125      -0.00152029
Se       2.81991163       3.62065007       7.54057319      -0.00087852       0.00124161       0.00151913
Se       2.81991176       3.62065005       4.88423027      -0.00087683       0.00124148      -0.00152098
Se       4.35355224       1.45175488       7.54057338       0.00087675      -0.00124198       0.00151907
