9
Lattice="4.011141837275672 -3.389648518842585e-08 2.315833861665032 1.3370471536975743 3.7817410999000796 2.31583402350166 4.5030133685547075e-09 2.0139268278162188e-07 4.631667715530645" Properties=species:S:1:pos:R:3:forces:R:3 energy=-50.532108306884766 free_energy=-50.532108306884766 stress="4.546955460682511e-05 -7.369159220615984e-07 -3.724373414115689e-07 -7.369159220615984e-07 4.556337808026001e-05 1.6228939614393312e-07 -3.724373414115689e-07 1.6228939614393312e-07 4.6447945351246744e-05" pbc="T T T"
Ni       1.33704703       0.94543538       2.31583385       0.00000003       0.00000195       0.00000056
Ni       4.01114180       2.83630580       6.94750139      -0.00000012      -0.00000171      -0.00000435
P       -0.00000001      -0.00000008       0.00000040       0.00000222      -0.00000096      -0.00003294
N        1.39247424       0.98462821       4.63166745       0.00311393       0.00220203      -0.00000167
N        3.95571459       2.79711314       4.63166815      -0.00311780      -0.00220346      -0.00000020
N        3.31490437       0.98462856       3.52175234      -0.00154841       0.00219178       0.00268245
N        2.03328491       2.79711247       5.74158302       0.00153515      -0.00217152      -0.00266320
N        2.03328411       2.79711259       3.52175240       0.00155869      -0.00220174       0.00269634
N        3.31490455       0.98462892       5.74158310      -0.00154394       0.00218403      -0.00267708
