9
Lattice="5.461824240891625 -1.494959859611048e-07 3.153385485938743 1.8206079564009845 5.149457185439134 3.1533854564073835 -9.35832323946234e-08 -1.0234170309225446e-07 6.306771133968372" Properties=species:S:1:pos:R:3:forces:R:3 energy=-34.03404998779297 free_energy=-34.03404998779297 stress="-4.521370283327997e-05 -5.823987336839309e-08 7.515720312767371e-08 -5.823987336839309e-08 -4.5182168832980096e-05 3.7806600516887556e-08 7.515720312767371e-08 3.7806600516887556e-08 -4.53261673101224e-05" pbc="T T T"
Ni       1.82061071       1.28736689       3.15338437       0.00002245       0.00002158      -0.00001040
Ni       5.46182172       3.86209352       9.46016200      -0.00002160      -0.00000119       0.00003566
P        0.00000016       0.00000013      -0.00000019      -0.00000574      -0.00000103      -0.00000310
S        1.76570645       1.24854304       6.30677025       0.00078070       0.00055194      -0.00000775
S        5.51672565       3.90091362       6.30676496      -0.00077808      -0.00054842      -0.00003497
S        4.57897019       1.24854387       4.68253125      -0.00039136       0.00055033       0.00067008
S        2.70346117       3.90090867       7.93101335       0.00038642      -0.00057465      -0.00065535
S        2.70346422       3.90091365       4.68253050       0.00040597      -0.00054997       0.00066721
S        4.57896815       1.24854431       7.93101170      -0.00039917       0.00055188      -0.00066185
