9
Lattice="3.8130940621928855 -3.605479479848785e-08 2.201490894520481 1.271031323701016 3.595019575581053 2.2014908882339888 2.624694505210804e-09 -5.843405847230287e-09 4.402981784494848" Properties=species:S:1:pos:R:3:forces:R:3 energy=-47.12440872192383 free_energy=-47.12440872192383 stress="4.7340517994598486e-07 -1.7380718020376662e-07 9.442605630738399e-08 -1.7380718020376662e-07 -2.800817000547795e-08 -2.997296988382914e-08 9.442605630738399e-08 -2.997296988382914e-08 -9.680564971858985e-07" pbc="T T T"
Ni       1.27103124       0.89875492       2.20149097       0.00000596       0.00000024       0.00000082
Ni       3.81309404       2.69626452       6.60447259      -0.00000747       0.00000497       0.00000246
P       -0.00000004       0.00000013       0.00000022      -0.00000726      -0.00004762      -0.00002340
O        1.34391968       0.95029486       4.40298179       0.00003409       0.00000036      -0.00000236
O        3.74020554       2.64472473       4.40298176       0.00000823       0.00001144      -0.00000123
O        3.14113418       0.95029470       3.36535951      -0.00003248       0.00002384       0.00002837
O        1.94299120       2.64472464       5.44060391       0.00000286      -0.00000012       0.00001192
O        1.94299119       2.64472469       3.36535967       0.00001454      -0.00000477      -0.00000525
O        3.14113427       0.95029474       5.44060391      -0.00001806       0.00001192      -0.00001013
