9
Lattice="5.053350358377104 1.297921809620512e-07 2.9175532289346706 1.6844501104041838 4.764345582371673 2.91755345656788 2.5679588151738695e-07 4.603746646554733e-07 5.835106013085728" Properties=species:S:1:pos:R:3:forces:R:3 energy=-33.042762756347656 free_energy=-33.042762756347656 stress="0.00015175646694842726 1.6472822039759194e-07 -1.6492077747898293e-07 1.6472822039759194e-07 0.00015106781211216003 -1.5111939433154475e-07 -1.6492077747898293e-07 -1.5111939433154475e-07 0.00015201259520836174" pbc="T T T"
Ni       1.68444665       1.19108296       2.91755240      -0.00002917      -0.00003453      -0.00000651
Ni       5.05334989       3.57326157       8.75265539      -0.00000196       0.00002064      -0.00003628
Pd       0.00000047       0.00000059      -0.00000012       0.00000340      -0.00000957       0.00001877
S        1.84641481       1.30561303       5.83510594       0.00360173       0.00253528      -0.00001117
S        4.89138494       3.45873622       5.83510999      -0.00360537      -0.00250295       0.00003429
S        4.13014458       1.30560837       4.51659800      -0.00179297       0.00249162       0.00315201
S        2.60765875       3.45873660       7.15361663       0.00181174      -0.00249496      -0.00313509
S        2.60765799       3.45873555       4.51659681       0.00178912      -0.00251147       0.00313279
S        4.13014478       1.30560992       7.15361544      -0.00177610       0.00250539      -0.00314930
