9
Lattice="4.157542041332176 4.686033949390056e-07 2.400359027116874 1.385847791147215 3.9197683180809313 2.4003590232493583 7.801075244375616e-08 5.0425142833783653e-08 4.800717919115178" Properties=species:S:1:pos:R:3:forces:R:3 energy=-35.975425720214844 free_energy=-35.975425720214844 stress="2.5812747480813414e-05 -1.1643112429737812e-06 -3.9879660107544623e-07 -1.1643112429737812e-06 2.467957529006526e-05 -2.828029721513303e-07 -3.9879660107544623e-07 -2.828029721513303e-07 2.2643509510089643e-05" pbc="T T T"
Ni       1.38584102       0.97993565       2.40036150       0.00007885       0.00003981       0.00007314
Ni       4.15755044       2.93982419       7.20108352       0.00017430       0.00007162       0.00009119
Pd       0.00002986       0.00002578       0.00000901      -0.00551219      -0.00463926      -0.00174089
O        1.47662237       1.04413134       4.80071709       0.00572860       0.00403595      -0.00007481
O        4.06673091       2.87561524       4.80071560       0.00077808       0.00054121      -0.00008438
O        3.41922555       1.04414171       3.67916332      -0.00184572       0.00216138       0.00276220
O        2.12416980       2.87562552       5.92226238       0.00062686      -0.00134313      -0.00153208
O        2.12416657       2.87562974       3.67916621       0.00122291      -0.00218606       0.00240493
O        3.41922296       1.04414596       5.92226524      -0.00125140       0.00131905      -0.00189948
