9
Lattice="3.836859262260381 -6.636115279280513e-08 2.21521161383563 1.278953049928748 3.6174254157771566 2.2152115704052657 -2.378374541315251e-08 -7.000875131675178e-08 4.430423268865914" Properties=species:S:1:pos:R:3:forces:R:3 energy=-46.120872497558594 free_energy=-46.120872497558594 stress="0.0005056965164840221 -3.071667009635348e-08 7.386105238538221e-08 -3.071667009635348e-08 0.0005058388924226165 2.0525362742773723e-07 7.386105238538221e-08 2.0525362742773723e-07 0.0005053149652667344" pbc="T T T"
Ni       1.27895293       0.90435630       2.21521217      -0.00002338      -0.00004440      -0.00004833
Ni       3.83685941       2.71306928       6.64563492      -0.00002753      -0.00004098      -0.00004368
Si      -0.00000229      -0.00000363      -0.00000336       0.00038701       0.00060332       0.00056947
O        1.36962484       0.96847061       4.43042282      -0.00433755      -0.00302255       0.00006395
O        3.74619192       2.64895719       4.43042269       0.00362051       0.00259930       0.00006814
O        3.15204679       0.96847055       3.40134096       0.00219828      -0.00300121      -0.00368881
O        1.96376307       2.64895718       5.45950856      -0.00177038       0.00261265       0.00319231
O        1.96376454       2.64895524       3.40133968      -0.00200874       0.00294906      -0.00349295
O        3.15204801       0.96846849       5.45950738       0.00195986      -0.00265580       0.00337780
