9
Lattice="5.614249470280564 3.830010806019547e-07 3.241388733183791 1.8714167553964558 5.293165180626766 3.2413888991038364 2.9670308314818017e-07 4.130105187105184e-07 6.482776952462731" Properties=species:S:1:pos:R:3:forces:R:3 energy=-32.766334533691406 free_energy=-32.766334533691406 stress="3.3804215490818024e-05 3.7211382419855e-08 -2.3599092457970983e-08 3.7211382419855e-08 3.383777948329225e-05 -1.3336078552583785e-07 -2.3599092457970983e-08 -1.3336078552583785e-07 3.390616984688677e-05" pbc="T T T"
Ni       1.87141601       1.32328864       3.24138739      -0.00000116      -0.00001437      -0.00000511
Ni       5.61425034       3.96987413       9.72416516       0.00000024      -0.00000485      -0.00000904
Sc       0.00000025       0.00000034       0.00000031      -0.00000490      -0.00000022      -0.00000519
Se       2.09361940       1.48041278       6.48277756       0.00071406       0.00050520       0.00000184
Se       5.39204527       3.81275426       6.48277837      -0.00071725      -0.00049594       0.00000746
Se       4.56744105       1.48041210       5.05451642      -0.00035452       0.00050336       0.00062202
Se       2.91822704       3.81275365       7.91103806       0.00035901      -0.00049973      -0.00061894
Se       2.91822579       3.81275352       5.05451708       0.00035386      -0.00049972       0.00062137
Se       4.56744103       1.48041446       7.91103785      -0.00034922       0.00050635      -0.00061443
