9
Lattice="4.5023323457108475 -1.3479751626866614e-08 2.599422795441685 1.5007774183195013 4.244839674142302 2.599422825825225 4.947332192760387e-09 4.0710374839352726e-08 5.19884558231434" Properties=species:S:1:pos:R:3:forces:R:3 energy=-41.231136322021484 free_energy=-41.231136322021484 stress="0.0002033146593021229 -2.2039546365704155e-07 -1.1714799796891384e-07 -2.2039546365704155e-07 0.00020356896857265383 1.6838359329085506e-07 -1.1714799796891384e-07 1.6838359329085506e-07 0.0002035982470260933" pbc="T T T"
Ni       1.50077788       1.06120946       2.59942284       0.00000509      -0.00000582      -0.00000076
Ni       4.50233237       3.18362993       7.79826898       0.00000100       0.00000116       0.00000777
Sc       0.00000017       0.00000025      -0.00000015      -0.00000447      -0.00000977       0.00001130
O        1.60928540       1.13793689       5.19884556      -0.00703420      -0.00497550      -0.00000124
O        4.39382396       3.10690279       5.19884529       0.00704288       0.00498218      -0.00000220
O        3.69768927       1.13793708       3.99310482       0.00352295      -0.00498677      -0.00610934
O        2.30542024       3.10690298       6.40458605      -0.00352501       0.00498702       0.00610262
O        2.30542041       3.10690298       3.99310509      -0.00352075       0.00498622      -0.00610181
O        3.69768936       1.13793648       6.40458630       0.00351263      -0.00497852       0.00609356
