9
Lattice="6.163199788884401 7.179343001245702e-08 3.5583249342467704 2.054399934537707 5.810720643155417 3.5583250429813393 -1.2910782526361052e-07 4.1879082102170815e-08 7.116650092114822" Properties=species:S:1:pos:R:3:forces:R:3 energy=-28.95318603515625 free_energy=-28.95318603515625 stress="-3.271919194958173e-05 -7.758478304253913e-09 5.574086081594487e-09 -7.758478304253913e-09 -3.270333763794042e-05 -9.113320764697619e-09 5.574086081594487e-09 -9.113320764697619e-09 -3.2703097531339154e-05" pbc="T T T"
Ni       2.05440078       1.45268013       3.55832519       0.00000333      -0.00000202       0.00000132
Ni       6.16319984       4.35803997      10.67497271       0.00000041      -0.00000163      -0.00000911
Si      -0.00000031       0.00000003       0.00000020       0.00000035       0.00000150      -0.00000133
Te       2.13122436       1.50700264       7.11665027       0.00171407       0.00121189      -0.00000001
Te       6.08637578       4.30371748       7.11665085      -0.00171550      -0.00121214       0.00000399
Te       5.09758732       1.50700354       5.40401893      -0.00085895       0.00121304       0.00148379
Te       3.12001272       4.30371807       8.82928102       0.00085996      -0.00121054      -0.00148389
Te       3.12001069       4.30371761       5.40402000       0.00085326      -0.00121303       0.00148710
Te       5.09758717       1.50700352       8.82928107      -0.00085689       0.00121288      -0.00148189
