9
Lattice="4.096922352671775 1.3533998861221585e-06 2.3653614793961015 1.3656420524426935 3.862611706721757 2.365361492868507 2.4876883817558274e-06 1.7755622105857003e-06 4.73071864999031" Properties=species:S:1:pos:R:3:forces:R:3 energy=-48.03009033203125 free_energy=-48.03009033203125 stress="1.1633338544925209e-05 -1.4203556020220276e-07 1.71864407150224e-08 -1.4203556020220276e-07 1.2570803846756462e-05 -1.512779235213202e-08 1.71864407150224e-08 -1.512779235213202e-08 1.163404704129789e-05" pbc="T T T"
Ni       1.36564191       0.96565325       2.36535903       0.00000092      -0.00000110      -0.00000438
Ni       4.09693765       2.89699940       7.09610799       0.00005223       0.00015394       0.00010962
Se      -0.00000347      -0.00000833      -0.00000590       0.00001333       0.00001718       0.00004085
N        1.52683894       1.07963443       4.73071722       0.00137448       0.00096035      -0.00000960
N        3.93572159       2.78296983       4.73071941      -0.00146627      -0.00104356      -0.00001647
N        3.33350168       1.07963509       3.68763887      -0.00068498       0.00095510       0.00119114
N        2.12906206       2.78296977       5.77379404       0.00072491      -0.00103402      -0.00127387
N        2.12906048       2.78297133       3.68764157       0.00070107      -0.00100827       0.00120616
N        3.33350260       1.07963505       5.77379415      -0.00071728       0.00099921      -0.00124383
