9
Lattice="5.3783166767576756 -2.7659001632984615e-08 3.105172562902146 1.792772235103446 5.070725448590171 3.1051725012502964 6.319622706900187e-08 -3.08213048834785e-08 6.210345016345216" Properties=species:S:1:pos:R:3:forces:R:3 energy=-32.01210021972656 free_energy=-32.01210021972656 stress="6.593675789190456e-05 1.6383824075205666e-08 2.2572808067167216e-09 1.6383824075205666e-08 6.588576070498675e-05 -1.2594931320109026e-08 2.2572808067167216e-09 -1.2594931320109026e-08 6.593279249500483e-05" pbc="T T T"
Ni       1.79277300       1.26768169       3.10517240       0.00000499       0.00000264      -0.00000099
Ni       5.37831706       3.80304392       9.31551750       0.00000157      -0.00000157       0.00000042
Si      -0.00000006      -0.00000029       0.00000015      -0.00000194       0.00000151       0.00000092
Se       2.01328722       1.42360899       6.21034478       0.00056610       0.00040138       0.00000017
Se       5.15780166       3.64711651       6.21034488      -0.00056736      -0.00040104      -0.00000019
Se       4.37167305       1.42360877       4.84873041      -0.00028452       0.00040070       0.00049071
Se       2.79941567       3.64711641       7.57196008       0.00028329      -0.00040325      -0.00049242
Se       2.79941559       3.64711652       4.84873018       0.00028283      -0.00040272       0.00049088
Se       4.37167272       1.42360909       7.57195998      -0.00028498       0.00040233      -0.00048953
