9
Lattice="4.063244898978022 1.1617975345025074e-07 2.345915558432933 1.3544150874019873 3.8308641129081127 2.34591553844391 1.2013166958020251e-08 -1.598687256469034e-08 4.691831096058452" Properties=species:S:1:pos:R:3:forces:R:3 energy=-50.819252014160156 free_energy=-50.819252014160156 stress="-2.8281190679990686e-05 1.652060603873906e-07 -4.918256379937702e-08 1.652060603873906e-07 -2.8198162908665836e-05 -2.990442027339668e-08 -4.918256379937702e-08 -2.990442027339668e-08 -2.8622052923310548e-05" pbc="T T T"
Ni       1.35441465       0.95771619       2.34591555      -0.00000024       0.00000043      -0.00000064
Ni       4.06324509       2.87314806       7.03774667       0.00000026      -0.00000115       0.00000159
Si       0.00000023      -0.00000025       0.00000007      -0.00000419       0.00000632      -0.00000100
N        1.43665923       1.01587178       4.69183100       0.00095914       0.00067592      -0.00000022
N        3.98100068       2.81499259       4.69183118      -0.00096087      -0.00067985      -0.00000049
N        3.34491532       1.01587144       3.59009867      -0.00048195       0.00068380       0.00083926
N        2.07274460       2.81499275       5.79356356       0.00048327      -0.00068159      -0.00083962
N        2.07274471       2.81499272       3.59009861       0.00048501      -0.00068428       0.00083981
N        3.34491536       1.01587153       5.79356345      -0.00048000       0.00068069      -0.00083837
