9
Lattice="4.252452106938544 -1.1376218514094187e-08 2.4551543011477146 1.4174840420630845 4.009250119546286 2.4551542714560153 5.108728794269039e-08 -2.4057200497082427e-10 4.9103085138097" Properties=species:S:1:pos:R:3:forces:R:3 energy=-44.776397705078125 free_energy=-44.776397705078125 stress="0.0006244456162676215 1.0421187113252017e-07 -3.95497430361047e-08 1.0421187113252017e-07 0.0006244776304811239 -2.6297581001699655e-08 -3.95497430361047e-08 -2.6297581001699655e-08 0.0006245169788599014" pbc="T T T"
Ni       1.41748571       1.00231194       2.45515272       0.00002630      -0.00001163      -0.00002704
Ni       4.25245152       3.00693833       7.36546402      -0.00001148       0.00001235       0.00002608
S        0.00000228      -0.00000222      -0.00000145       0.00003303      -0.00002893      -0.00001963
N        1.39101732       0.98359731       4.91030900       0.00050616       0.00035203       0.00001290
N        4.27891818       3.02565288       4.91030759      -0.00051737      -0.00034440      -0.00001465
N        3.55694273       0.98359823       3.65981144      -0.00026238       0.00036502       0.00044048
N        2.11299208       3.02565273       6.16080728       0.00024605      -0.00035691      -0.00042915
N        2.11299281       3.02565306       3.65981068       0.00025773      -0.00034487       0.00043786
N        3.55694206       0.98359811       6.16080717      -0.00027704       0.00035703      -0.00042903
