9
Lattice="6.324219432309593 4.6422494242282686e-08 3.6512897779832794 2.108073217230352 5.962531255658797 3.6512897271310494 1.0715897998332056e-09 -6.15233263135121e-08 7.302579554110538" Properties=species:S:1:pos:R:3:forces:R:3 energy=-31.91878318786621 free_energy=-31.91878318786621 stress="2.0218038116581738e-05 4.974040024308124e-08 5.3907709407496895e-09 4.974040024308124e-08 2.017765655182302e-05 -5.145608827916703e-09 5.3907709407496895e-09 -5.145608827916703e-09 2.014196797972545e-05" pbc="T T T"
Ni       2.10807352       1.49063275       3.65128985      -0.00000004      -0.00000015       0.00000072
Ni       6.32421957       4.47189905      10.95386958       0.00000058       0.00000240       0.00000155
Sc       0.00000031      -0.00000038       0.00000026      -0.00000478       0.00000250      -0.00000029
Te       2.28477881       1.61558220       7.30257964      -0.00048245      -0.00034155      -0.00000081
Te       6.14751361       4.34694832       7.30257962       0.00048676       0.00034378      -0.00000083
Te       5.18183023       1.61558207       5.62996614       0.00024074      -0.00034242      -0.00041674
Te       3.25046234       4.34694942       8.97519320      -0.00024102       0.00033961       0.00041384
Te       3.25046244       4.34694903       5.62996533      -0.00023993       0.00033833      -0.00041583
Te       5.18182977       1.61558253       8.97519263       0.00024026      -0.00034246       0.00041832
