9
Lattice="4.200656449744562 -1.1439884138556262e-07 2.425249911826652 1.4002188393771469 3.960416124337292 2.4252496855309404 1.350390282437465e-07 -1.8166750306133049e-07 4.850499589758864" Properties=species:S:1:pos:R:3:forces:R:3 energy=-41.05061340332031 free_energy=-41.05061340332031 stress="0.00019693643844220787 -6.580102240860697e-09 -3.7622470472342684e-08 -6.580102240860697e-09 0.0001970284793060273 -7.234522314547576e-08 -3.7622470472342684e-08 -7.234522314547576e-08 0.00019671491463668644" pbc="T T T"
Ni       1.40022030       0.99010345       2.42524884       0.00001288      -0.00000460      -0.00000794
Ni       4.20065547       2.97031333       7.27575026      -0.00000581       0.00001381       0.00000898
S        0.00000001       0.00000003       0.00000006      -0.00000099      -0.00000854       0.00000335
O        1.31782830       0.93184403       4.85049921      -0.00268412      -0.00191057      -0.00000052
O        4.28304707       3.02857137       4.85049916       0.00269437       0.00191355      -0.00000512
O        3.54174278       0.93184486       3.56652217       0.00134313      -0.00190330      -0.00233352
O        2.05913285       3.02857034       6.13447735      -0.00135028       0.00190067       0.00233901
O        2.05913284       3.02857137       3.56652229      -0.00134325       0.00190592      -0.00233674
O        3.54174193       0.93184437       6.13447733       0.00133514      -0.00190675       0.00233388
