9
Lattice="4.963113930404027 1.7940654404777321e-07 2.865455247334636 1.6543714958234983 4.679268639840467 2.865455218681892 4.737128589851266e-08 -1.5957371201146416e-09 5.73091041261985" Properties=species:S:1:pos:R:3:forces:R:3 energy=-33.99764633178711 free_energy=-33.99764633178711 stress="3.457371349213645e-05 7.590131190227112e-08 -5.177236062081647e-08 7.590131190227112e-08 3.4928008972201496e-05 -6.33543919548174e-08 -5.177236062081647e-08 -6.33543919548174e-08 3.446165646892041e-05" pbc="T T T"
Ni       1.65437011       1.16981812       2.86545578      -0.00000939       0.00001266       0.00000404
Ni       4.96311371       3.50944903       8.59636446      -0.00000334      -0.00002580      -0.00001497
Si       0.00000066       0.00000046      -0.00000037      -0.00000454      -0.00000123       0.00000601
S        1.75996998       1.24448940       5.73091119      -0.00071988      -0.00047585       0.00000557
S        4.85751472       3.43477983       5.73091265       0.00072437       0.00048754       0.00002652
S        4.08312940       1.24448921       4.38963377       0.00036295      -0.00047750      -0.00062478
S        2.53435758       3.43478180       7.07218624      -0.00034621       0.00049715       0.00061423
S        2.53435599       3.43477922       4.38963332      -0.00036872       0.00046937      -0.00062897
S        4.08312963       1.24448825       7.07218650       0.00036478      -0.00048623       0.00061212
