9
Lattice="5.722464684879088 9.670310219743899e-08 3.3038667028283273 1.907488314410358 5.395191811669115 3.3038667115843086 4.692288915435826e-08 4.390324410952896e-08 6.607733324383971" Properties=species:S:1:pos:R:3:forces:R:3 energy=-35.950767517089844 free_energy=-35.950767517089844 stress="-4.065894245286472e-05 6.270348507086965e-08 2.2144831746118143e-08 6.270348507086965e-08 -4.074804746778682e-05 -1.3066300041941759e-08 2.2144831746118143e-08 -1.3066300041941759e-08 -4.077531775692478e-05" pbc="T T T"
Ni       1.90748830       1.34879821       3.30386709       0.00000003       0.00000087       0.00000122
Ni       5.72246492       4.04639459       9.91160019       0.00000121       0.00000291       0.00000092
Ti      -0.00000030       0.00000012      -0.00000008       0.00000235       0.00000048      -0.00000014
Se       1.98855718       1.40612209       6.60773353       0.00033829       0.00023893       0.00000102
Se       5.64139626       3.98906982       6.60773334      -0.00034111      -0.00024065      -0.00000103
Se       4.72818604       1.40612157       5.02600727      -0.00017359       0.00024193       0.00029743
Se       2.90176654       3.98907005       8.18945949       0.00017195      -0.00024261      -0.00029726
Se       2.90176656       3.98906967       5.02600700       0.00017030      -0.00024264       0.00029663
Se       4.72818666       1.40612169       8.18945921      -0.00016950       0.00024083      -0.00029861
