9
Lattice="5.347661700284139 -1.854431650987622e-07 3.0874739801998854 1.7825537634135546 5.041823803487866 3.0874739141111776 4.18203313479362e-08 -5.1370350846338925e-08 6.174947887964797" Properties=species:S:1:pos:R:3:forces:R:3 energy=-38.882659912109375 free_energy=-38.882659912109375 stress="5.889915701118298e-05 -6.97478697020415e-08 2.1809871242339796e-08 -6.97478697020415e-08 5.8955989516107365e-05 -2.1947657913301555e-08 2.1809871242339796e-08 -2.1947657913301555e-08 5.90325980738271e-05" pbc="T T T"
Ni       1.78255416       1.26045630       3.08747427       0.00000184       0.00000330       0.00000187
Ni       5.34766192       3.78136799       9.26242175       0.00000367       0.00000195      -0.00000049
Ti      -0.00000006      -0.00000015      -0.00000032       0.00000032       0.00000216       0.00000643
S        1.87956872       1.32905566       6.17494791       0.00197046       0.00139149      -0.00000137
S        5.25064708       3.71276789       6.17494783      -0.00197279      -0.00139555      -0.00000128
S        4.40787694       1.32905563       4.71522837      -0.00098315       0.00138822       0.00170361
S        2.72233793       3.71276752       7.63466754       0.00098289      -0.00139356      -0.00170626
S        2.72233822       3.71276743       4.71522855       0.00098091      -0.00138943       0.00170092
S        4.40787708       1.32905590       7.63466729      -0.00098410       0.00139154      -0.00170355
