9
Lattice="4.499358139849071 3.8574862757546404e-07 2.5977058221877978 1.4997863260392688 4.242036486797896 2.5977059681379475 7.911426102908788e-08 2.346939826805195e-07 5.195411507345666" Properties=species:S:1:pos:R:3:forces:R:3 energy=-45.144866943359375 free_energy=-45.144866943359375 stress="0.0002879719249904156 -1.8625800635163614e-07 2.888090655517317e-08 -1.8625800635163614e-07 0.00028834620025008917 -2.881722878100845e-07 2.888090655517317e-08 -2.881722878100845e-07 0.00028854075935669243" pbc="T T T"
Ni       1.49979737       1.06051263       2.59770274       0.00015043       0.00004694      -0.00003436
Ni       4.49935956       3.18153240       7.79312038       0.00001929       0.00006378       0.00003852
Ti       0.00000023       0.00000047      -0.00000006      -0.00000208       0.00000482       0.00000301
O        1.52581942       1.07891612       5.19541134      -0.00692356      -0.00491345       0.00000854
O        4.47332583       3.16311954       5.19541051       0.00691116       0.00490159      -0.00001365
O        3.73644459       1.07891631       3.91910373       0.00341979      -0.00492299      -0.00601947
O        2.26269283       3.16311736       6.47171958      -0.00349587       0.00486475       0.00600821
O        2.26269614       3.16311787       3.91910369      -0.00347325       0.00488871      -0.00602216
O        3.73644225       1.07891662       6.47172051       0.00339451      -0.00493461       0.00603235
