9
Lattice="6.1966052728004675 1.3815491266428613e-07 3.5776116228433623 2.0655351981188814 5.842215440324124 3.5776116627988968 2.3021366259939518e-08 6.521389850820867e-08 7.1552232058125265" Properties=species:S:1:pos:R:3:forces:R:3 energy=-33.64461135864258 free_energy=-33.64461135864258 stress="2.5716440177347977e-06 3.14668433532006e-08 -1.9386094507467533e-08 3.14668433532006e-08 2.548007159930421e-06 1.984293085399713e-08 -1.9386094507467533e-08 1.984293085399713e-08 2.5205097244906938e-06" pbc="T T T"
Ni       2.06553511       1.46055386       3.57761149      -0.00000028      -0.00000015      -0.00000018
Ni       6.19660554       4.38166185      10.73283526       0.00000112       0.00000039       0.00000018
Ti       0.00000024      -0.00000032      -0.00000093      -0.00000212       0.00000324       0.00000649
Te       2.17713870       1.53946982       7.15522329      -0.00022066      -0.00015618      -0.00000003
Te       6.08500157       4.30274599       7.15522307       0.00022079       0.00015584       0.00000005
Te       5.10803604       1.53946967       5.46306890       0.00011071      -0.00015694      -0.00019171
Te       3.15410419       4.30274636       8.84737812      -0.00010757       0.00015207       0.00018635
Te       3.15410434       4.30274617       5.46306889      -0.00010967       0.00015413      -0.00018779
Te       5.10803621       1.53946921       8.84737792       0.00010767      -0.00015242       0.00018670
