9
Lattice="5.701222089491183 1.6081483417299976e-07 3.291601926610691 1.9004074953966201 5.375164089756567 3.2916019601860995 -3.7324283222994096e-09 3.848204190115037e-08 6.583203859686142" Properties=species:S:1:pos:R:3:forces:R:3 energy=-36.30796813964844 free_energy=-36.30796813964844 stress="-0.00024421914713457227 -9.894741914706628e-09 2.396962628381516e-09 -9.894741914706628e-09 -0.0002442973491270095 -2.510252450349526e-08 2.396962628381516e-09 -2.510252450349526e-08 -0.0002441982214804739" pbc="T T T"
Ni       1.90040781       1.34379109       3.29160234       0.00000323       0.00000025       0.00000110
Ni       5.70122248       4.03137316       9.87480616       0.00000076      -0.00000040       0.00000211
V       -0.00000006       0.00000000      -0.00000028       0.00000189       0.00000030       0.00000285
Se       1.94355505       1.37430107       6.58320462      -0.00381407      -0.00269721       0.00000274
Se       5.65807472       4.00086327       6.58320403       0.00381146       0.00269524      -0.00000010
Se       4.72944417       1.37430141       4.97476909       0.00190508      -0.00269627      -0.00330481
Se       2.87218473       4.00086379       8.19163787      -0.00190702       0.00269599       0.00329986
Se       2.87218470       4.00086267       4.97476937      -0.00190821       0.00269754      -0.00330424
Se       4.72944472       1.37430069       8.19163783       0.00190675      -0.00269558       0.00330049
