9
Lattice="4.403579897395858 5.916092061874544e-08 2.542408006089275 1.4678600057602411 4.151734939309737 2.542408033483086 4.278804733958896e-08 6.38061534211526e-08 5.084815938067462" Properties=species:S:1:pos:R:3:forces:R:3 energy=-43.68913269042969 free_energy=-43.68913269042969 stress="-0.00017400484648533165 -4.7850562623352744e-08 -3.788394664638872e-08 -4.7850562623352744e-08 -0.00017402860976289958 7.12137833147608e-08 -3.788394664638872e-08 7.12137833147608e-08 -0.00017375974857714027" pbc="T T T"
Ni       1.46785943       1.03793495       2.54240747      -0.00000929       0.00001182      -0.00000698
Ni       4.40357995       3.11379975       7.62722322       0.00000229      -0.00001874      -0.00001417
V       -0.00000001      -0.00000001       0.00000016       0.00000226      -0.00000046      -0.00000145
O        1.49600628       1.05783738       5.08481577       0.00153852       0.00109643       0.00000134
O        4.37543335       3.09389824       5.08481610      -0.00153768      -0.00109291       0.00000513
O        3.65557697       1.05783640       3.83798849      -0.00076813       0.00108880       0.00133848
O        2.21586336       3.09389776       6.33164445       0.00077063      -0.00109023      -0.00132722
O        2.21586344       3.09389843       3.83798820       0.00076896      -0.00109196       0.00133455
O        3.65557686       1.05783732       6.33164436      -0.00076783       0.00109643      -0.00133014
