9
Lattice="6.074101914648451 1.0979238957982612e-07 3.5068844595323236 2.024700674246431 5.726718499622968 3.5068845764162933 -1.8913059727756332e-07 9.41746978632084e-09 7.0137692466485" Properties=species:S:1:pos:R:3:forces:R:3 energy=-33.875732421875 free_energy=-33.875732421875 stress="-8.448840526398271e-05 -1.2625690715140081e-08 -2.0586751858786556e-08 -1.2625690715140081e-08 -8.442578109679744e-05 2.171563906472329e-08 -2.0586751858786556e-08 2.171563906472329e-08 -8.458106458419934e-05" pbc="T T T"
Ni       2.02470074       1.43167965       3.50688453       0.00000072      -0.00000152      -0.00000074
Ni       6.07410171       4.29503920      10.52065309       0.00000553       0.00000257      -0.00000141
V       -0.00000014      -0.00000002      -0.00000030       0.00000290       0.00000164       0.00000299
Te       2.13625587       1.51056106       7.01376947      -0.00306909      -0.00216963       0.00000067
Te       5.96254662       4.21615758       7.01376931       0.00306297       0.00216572       0.00000107
Te       5.00597375       1.51056114       5.35693658       0.00153108      -0.00216777      -0.00265619
Te       3.09282837       4.21615746       8.67060199      -0.00153292       0.00216778       0.00265566
Te       3.09282837       4.21615744       5.35693665      -0.00153471       0.00216843      -0.00265680
Te       5.00597426       1.51056096       8.67060181       0.00153354      -0.00216722       0.00265471
