9
Lattice="4.417266227287544 -3.555659679391978e-07 2.5503099456592144 1.4724218230109531 4.1646384759679895 2.5503098028009346 -4.1994028484576234e-08 -2.0465919757216404e-07 5.100619964054283" Properties=species:S:1:pos:R:3:forces:R:3 energy=-30.424854278564453 free_energy=-30.424854278564453 stress="-0.0001266418257728219 -1.5832344502086926e-07 5.126869950800028e-07 -1.5832344502086926e-07 -0.00012728064029943198 3.039020839423756e-07 5.126869950800028e-07 3.039020839423756e-07 -0.00012636666360776871" pbc="T T T"
Ni       1.47242258       1.04116492       2.55031164       0.00000694       0.00008538       0.00002720
Ni       4.41726569       3.12347695       7.65092214      -0.00000126      -0.00002482      -0.00011059
Zn      -0.00000002      -0.00000005      -0.00000016       0.00000456       0.00001066       0.00000089
O        1.53339162       1.08427355       5.10061905      -0.00335604      -0.00235297      -0.00001502
O        4.35629693       3.08036383       5.10062419       0.00336081       0.00233203       0.00006051
O        3.65056847       1.08427108       3.87826778       0.00166073      -0.00238885      -0.00290069
O        2.23911924       3.08036389       6.32297461      -0.00165625       0.00234339       0.00292927
O        2.23911716       3.08036397       3.87826656      -0.00170496       0.00233968      -0.00291049
O        3.65057040       1.08427348       6.32297317       0.00168529      -0.00234410       0.00291842
