9
Lattice="5.350670621833 1.4752587253185485e-07 3.089211149169379 1.7835569716101858 5.044660712982519 3.0892112209158644 4.491949419643554e-09 9.104743840949518e-08 6.178422290558439" Properties=species:S:1:pos:R:3:forces:R:3 energy=-27.82009506225586 free_energy=-27.82009506225586 stress="-0.00018816825468093157 5.2156661212166e-08 -1.0536070682576337e-08 5.2156661212166e-08 -0.0001881815551314503 7.785447841968107e-09 -1.0536070682576337e-08 7.785447841968107e-09 -0.00018823925347533077" pbc="T T T"
Ni       1.78355655       1.26116573       3.08921092      -0.00000216       0.00000147       0.00000018
Ni       5.35067045       3.78349477       9.26763277      -0.00000147      -0.00000655      -0.00000550
Zn       0.00000010       0.00000038       0.00000021      -0.00000048      -0.00000697      -0.00000111
S        1.88457115       1.33259344       6.17842214       0.00811079       0.00573520      -0.00000273
S        5.24965615       3.71206712       6.17842255      -0.00810203      -0.00573422       0.00000111
S        4.40838519       1.33259366       4.72129740      -0.00405546       0.00573640       0.00702365
S        2.72584326       3.71206711       7.63554698       0.00405487      -0.00573379      -0.00701697
S        2.72584213       3.71206750       4.72129805       0.00405084      -0.00573290       0.00702327
S        4.40838543       1.33259412       7.63554762      -0.00405502       0.00574134      -0.00702167
