9
Lattice="5.450416053335831 4.11102540532642e-08 3.146798822590208 1.8168053006827727 5.1387014880372295 3.146798977068935 -1.6304222558953422e-07 7.390870258107548e-08 6.293597927578015" Properties=species:S:1:pos:R:3:forces:R:3 energy=-26.935646057128906 free_energy=-26.935646057128906 stress="1.4440837730944622e-05 -8.112937877058357e-09 -2.2469122118451423e-09 -8.112937877058357e-09 1.4510621440422256e-05 2.3995056608328014e-08 -2.2469122118451423e-09 2.3995056608328014e-08 1.4572701729775872e-05" pbc="T T T"
Ni       1.81680385       1.28467613       3.14680310      -0.00001062       0.00000278       0.00002617
Ni       5.45041601       3.85402734       9.44039956       0.00000135       0.00000770       0.00001738
Zn       0.00000018       0.00000041      -0.00000042       0.00000137      -0.00000516      -0.00000105
Se       2.05863832       1.45567697       6.29359742       0.00471665       0.00333273      -0.00000678
Se       5.20858328       3.68302289       6.29359718      -0.00470778      -0.00333728      -0.00000398
Se       4.42109613       1.45567754       4.92963158      -0.00235924       0.00333191       0.00407763
Se       2.84612470       3.68302542       7.65756115       0.00235462      -0.00332549      -0.00409098
Se       2.84612502       3.68302339       4.92963161       0.00235656      -0.00333622       0.00407472
Se       4.42109729       1.45567639       7.65756171      -0.00235295       0.00332905      -0.00409307
