9
Lattice="4.33350767140971 1.280417571467393e-07 2.5019519403107036 1.4445026547512079 4.085670246762085 2.5019519803285033 4.5586036497288974e-08 8.124579375338075e-08 5.003903801664067" Properties=species:S:1:pos:R:3:forces:R:3 energy=-65.4636459350586 free_energy=-65.4636459350586 stress="-0.0008122400613501668 -8.386470540244773e-07 1.4392010427854984e-07 -8.386470540244773e-07 -0.000812776735983789 4.2013328993562027e-07 1.4392010427854984e-07 4.2013328993562027e-07 -0.0008130425121635199" pbc="T T T"
Os       1.44450263       1.02141736       2.50195149      -0.00000355       0.00000922       0.00000617
Os       4.33350793       3.06425282       7.50585515       0.00000242       0.00002434      -0.00000291
Cr      -0.00000214       0.00000318       0.00000217       0.00050568      -0.00078210      -0.00049288
N        1.51100011       1.06843855       5.00390417       0.00159764       0.00113249       0.00000938
N        4.26701033       3.01723212       5.00390432      -0.00159740      -0.00111544       0.00001233
N        3.57800843       1.06843764       3.81051500      -0.00098771       0.00140035       0.00171793
N        2.20000346       3.01723062       6.19729000       0.00060946      -0.00085437      -0.00104678
N        2.20000282       3.01723145       3.81051696       0.00073397      -0.00103331       0.00128818
N        3.57800790       1.06843816       6.19729177      -0.00085986       0.00121820      -0.00149083
