9
Lattice="4.1369086883848025 5.2639242347650105e-08 2.3884452284517472 1.3789695875191095 3.9003150964236823 2.3884452715877518 -9.188857172354743e-08 -1.2144429902267288e-08 4.776890616059185" Properties=species:S:1:pos:R:3:forces:R:3 energy=-57.87037658691406 free_energy=-57.87037658691406 stress="-7.827452645869926e-05 3.4293982764666e-08 4.045807315833372e-07 3.4293982764666e-08 -7.897707109805197e-05 1.6527900470464374e-07 4.045807315833372e-07 1.6527900470464374e-07 -7.732747326372191e-05" pbc="T T T"
Os       1.37897599       0.97508162       2.38843871       0.00021886       0.00009444      -0.00031528
Os       4.13690875       2.92523225       7.16532164       0.00002177      -0.00012760      -0.00055217
C        0.00000250       0.00000312      -0.00003138       0.00011392       0.00012063      -0.00135606
N        1.29931463       0.91875620       4.77689243       0.00255895       0.00188112       0.00011687
N        4.21655870       2.98155807       4.77689635      -0.00275922      -0.00192177       0.00022739
N        3.48724382       0.91876127       3.51369587      -0.00158721       0.00212801       0.00270963
N        2.02862385       2.98156423       6.04010585       0.00116378      -0.00167680      -0.00183058
N        2.02863104       2.98155154       3.51369662       0.00146192      -0.00219786       0.00275445
N        3.48725349       0.91875232       6.04010844      -0.00119263       0.00169969      -0.00175416
