9
Lattice="4.213284241986149 -1.9676252334940222e-07 2.432539707473493 1.404428011214907 3.972322540396955 2.4325395064475726 -4.889934990982112e-07 -5.919760628919399e-07 4.865080261908593" Properties=species:S:1:pos:R:3:forces:R:3 energy=-94.9671401977539 free_energy=-94.9671401977539 stress="0.00019371588132344186 2.1643672880600207e-06 -1.0459367331350222e-05 2.1643672880600207e-06 0.0001950817386386916 -9.858416888164356e-06 -1.0459367331350222e-05 -9.858416888164356e-06 0.00017147693142760545" pbc="T T T"
Os       1.40442750       0.99308049       2.43254014       0.00022715       0.00007062       0.00005984
Os       4.21328216       2.97924113       7.29761941       0.00043088       0.00008514       0.00022043
Fe       0.00000305       0.00000105       0.00000150      -0.00077051      -0.00025711      -0.00027462
N        1.55558078       1.09996156       4.86507987      -0.00339222      -0.00248814      -0.00002822
N        4.06213509       2.87236342       4.86507713       0.00213146       0.00138569       0.00059254
N        3.43549445       1.09995888       3.77970913       0.00152493      -0.00171375      -0.00221634
N        2.18221338       2.87236311       5.95044981      -0.00033998       0.00159359       0.00226593
N        2.18221654       2.87236205       3.77971048      -0.00122976       0.00210857      -0.00259781
N        3.43549420       1.09995551       5.95045073       0.00141621      -0.00078011       0.00197506
