9
Lattice="4.419291052440925 9.638276405423125e-08 2.551478882329989 1.4730970684654876 4.166547436536064 2.551478951413431 1.2559008251869199e-08 9.349015898502916e-08 5.102957742907138" Properties=species:S:1:pos:R:3:forces:R:3 energy=-57.7139892578125 free_energy=-57.7139892578125 stress="-6.851529633422615e-06 -2.0013581547573267e-07 -4.647120306344732e-07 -2.0013581547573267e-07 -5.24504730492481e-06 -3.3102807606155693e-07 -4.647120306344732e-07 -3.3102807606155693e-07 -7.609073236380937e-06" pbc="T T T"
Os       1.47309531       1.04162161       2.55146855      -0.00007210      -0.00061831      -0.00041354
Os       4.41929411       3.12490849       7.65443069       0.00011214      -0.00008863      -0.00023954
Ir      -0.00000015       0.00000027       0.00000008      -0.00000461       0.00000492       0.00001816
N        1.56868465       1.10923173       5.10296210      -0.00379139      -0.00256473       0.00018571
N        4.32369707       3.05732387       5.10296370       0.00359613       0.00284839       0.00017217
N        3.63495191       1.10922890       3.91000359       0.00200096      -0.00266415      -0.00314909
N        2.25744178       3.05732092       6.29591210      -0.00181961       0.00275743       0.00316197
N        2.25744224       3.05732606       3.91000686      -0.00182787       0.00294453      -0.00301504
N        3.63494558       1.10922854       6.29591456       0.00180641      -0.00261915       0.00328004
