9
Lattice="4.246725950145186 -3.151580539430836e-07 2.4518487047914337 1.4155750104490963 4.003851884154467 2.4518487206087225 -3.258896757990044e-09 1.7067751309653052e-08 4.903697415227466" Properties=species:S:1:pos:R:3:forces:R:3 energy=-99.82225036621094 free_energy=-99.82225036621094 stress="-1.368348330288427e-05 -1.4424408618651796e-05 -4.6861507030371286e-07 -1.4424408618651796e-05 -2.3490122202929342e-06 7.321141879401694e-07 -4.6861507030371286e-07 7.321141879401694e-07 8.347805305675138e-06" pbc="T T T"
Os       1.41557488       1.00096294       2.45184847       0.00002291      -0.00000425       0.00002005
Os       4.24672578       3.00288864       7.35554590      -0.00000442      -0.00000764       0.00002733
Mn      -0.00000024      -0.00000011       0.00000079       0.00012850       0.00012020      -0.00007943
N        1.48409157       1.04941112       4.90369677      -0.00028229      -0.00018024       0.00007543
N        4.17821015       2.95444067       4.90369704       0.00009155       0.00008821       0.00004538
N        3.50467800       1.04941381       3.73711302       0.00042295      -0.00056982      -0.00065184
N        2.15762216       2.95443880       6.07028262      -0.00029707       0.00042534       0.00055790
N        2.15762271       2.95443790       3.73711233      -0.00036430       0.00052500      -0.00055027
N        3.50467899       1.04941257       6.07028259       0.00028133      -0.00039911       0.00055742
