9
Lattice="4.226713850270515 7.369187357825911e-08 2.4402944737075853 1.408904716297636 3.9849841574991425 2.4402944216361946 1.0016527251065146e-07 7.053374067078399e-09 4.880588773923832" Properties=species:S:1:pos:R:3:forces:R:3 energy=-58.46759033203125 free_energy=-58.46759033203125 stress="-0.00016039361071307212 -8.487334639539768e-07 -1.4604883347146824e-07 -8.487334639539768e-07 -0.00016029634571168572 -9.296292660110339e-07 -1.4604883347146824e-07 -9.296292660110339e-07 -0.00015954948321450502" pbc="T T T"
Os       1.40890230       0.99624708       2.44029393      -0.00008838       0.00002256       0.00000772
Os       4.22671388       2.98873713       7.32088671      -0.00002704      -0.00002779       0.00010053
Ni      -0.00000023       0.00000006       0.00000027       0.00002682      -0.00000983      -0.00005953
N        1.53816653       1.08764852       4.88058906      -0.00405574      -0.00285482       0.00000568
N        4.09745244       2.89733481       4.88058687       0.00407195       0.00282359      -0.00006225
N        3.45763243       1.08764937       3.77238595       0.00206745      -0.00280666      -0.00349116
N        2.17798708       2.89733553       5.98879147      -0.00206673       0.00287557       0.00352216
N        2.17798889       2.89733627       3.77238551      -0.00198603       0.00286126      -0.00351739
N        3.45763140       1.08764812       5.98879096       0.00205851      -0.00288296       0.00349498
