9
Lattice="4.296962051018444 2.6464353706274935e-07 2.480852601280217 1.4323209275789208 4.051215546047084 2.4808526109835483 7.578791961568415e-07 5.477856181152105e-07 4.96170388987515" Properties=species:S:1:pos:R:3:forces:R:3 energy=-53.189903259277344 free_energy=-53.189903259277344 stress="0.0002365408290643245 6.088774284762621e-07 -5.3387907428259496e-06 6.088774284762621e-07 0.00022859039017930627 -3.702877620526124e-06 -5.3387907428259496e-06 -3.702877620526124e-06 0.00023705964849796146" pbc="T T T"
Os       1.43231789       1.01282040       2.48084260      -0.00010788       0.00057472      -0.00033813
Os       4.29695546       3.03839421       7.44259430      -0.00026566      -0.00063635       0.00133686
Pd      -0.00000013       0.00000007       0.00000028      -0.00001481      -0.00000474       0.00001630
N        1.60106891       1.13213188       4.96170711      -0.00149345      -0.00085843       0.00012746
N        4.12821738       2.91908128       4.96168526       0.00156838       0.00077814      -0.00067314
N        3.49643562       1.13214172       3.86741398       0.00099677      -0.00050277      -0.00145209
N        2.23284966       2.91908155       6.05599011      -0.00095820       0.00075531       0.00124699
N        2.23286503       2.91908546       3.86741274      -0.00037107       0.00089586      -0.00149035
N        3.49642516       1.13212887       6.05599000       0.00064635      -0.00100231       0.00122690
