9
Lattice="4.314982532346065 1.6531927877543378e-07 2.491256458436989 1.438327571799408 4.068205020447273 2.4912566227170103 -7.552638010993277e-08 1.4779590781573377e-07 4.982513047689512" Properties=species:S:1:pos:R:3:forces:R:3 energy=-60.53647994995117 free_energy=-60.53647994995117 stress="-0.0005295521696098149 1.8457693329310132e-07 -1.7434014409900556e-07 1.8457693329310132e-07 -0.0005292831920087337 2.1335912947506586e-07 -1.7434014409900556e-07 2.1335912947506586e-07 -0.000529710145201534" pbc="T T T"
Os       1.43832525       1.01705228       2.49125590      -0.00005508       0.00001598      -0.00001424
Os       4.31498502       3.05115501       7.47377013       0.00006256       0.00002879       0.00001344
P        0.00000002       0.00000008       0.00000012       0.00000137      -0.00000385      -0.00000510
N        1.42576212       1.00816641       4.98251324       0.00013745       0.00009763       0.00000641
N        4.32754814       3.06003864       4.98251275      -0.00013208      -0.00011575      -0.00000676
N        3.60210175       1.00816569       3.72600349      -0.00005978       0.00009692       0.00014305
N        2.15120773       3.06003840       6.23902284       0.00004554      -0.00010264      -0.00012898
N        2.15120767       3.06003920       3.72600365       0.00006008      -0.00010669       0.00014496
N        3.60210221       1.00816564       6.23902219      -0.00005931       0.00008941      -0.00015378
