9
Lattice="4.846066818778667 -0.269590779070234 2.5919345627158172 1.2222553667865974 4.7296102566192175 2.810914526289152 -0.19182072925744822 0.1384907221135865 5.496683213686298" Properties=species:S:1:pos:R:3:forces:R:3 energy=-75.452392578125 free_energy=-75.452392578125 stress="-0.0001068510755430907 0.00022654693748336285 -7.026855746516958e-05 0.00022654693748336285 -7.375452696578577e-05 0.00021245205425657332 -7.026855746516958e-05 0.00021245205425657332 -0.0001410379627486691" pbc="T T T"
Os       2.57115006       0.00381276       2.78624316      -0.00505345      -0.00359188      -0.00151050
Os       5.54357665       3.86515333       7.06709520       0.00032157       0.00075650      -0.00009203
Rh       0.18454802       0.18181271      -0.66645102       0.00178257      -0.00013644       0.00427878
N        1.58796784       2.07133179       6.24347291      -0.00559726      -0.00060758      -0.00315309
N        5.04457194       3.22873501       5.34263443       0.00246158       0.00303501      -0.00073323
N        3.38076475       0.71081770       4.29740896       0.00205536       0.00042319      -0.00378095
N        2.05147902       4.24782152       6.05770139       0.00329387       0.00180620       0.00050466
N        0.78619965       2.21834632       5.35631759      -0.00046182       0.00089571      -0.00183773
N        2.35554565       1.86615662       7.11466122       0.00119805      -0.00258040       0.00632358
