9
Lattice="4.362491137842571 -1.0711545891252556e-08 2.5186854022881096 1.4541637003109706 4.112996011506736 2.5186854061060293 2.3261442304863087e-08 2.112429726705069e-08 5.037370764286221" Properties=species:S:1:pos:R:3:forces:R:3 energy=-55.8214111328125 free_energy=-55.8214111328125 stress="5.00724527228158e-05 5.879808782083273e-07 -1.0092701785424651e-07 5.879808782083273e-07 5.1126113248756155e-05 -6.9879675379525e-08 -1.0092701785424651e-07 -6.9879675379525e-08 5.114104351378046e-05" pbc="T T T"
Os       1.45414726       1.02825515       2.51868920      -0.00052751       0.00019149       0.00012151
Os       4.36250216       3.08474740       7.55605372       0.00035997       0.00000435      -0.00008015
S        0.00000026      -0.00000068      -0.00000009       0.00001356      -0.00001781      -0.00000462
N        1.41595983       1.00123704       5.03736941       0.00027549       0.00028586      -0.00004857
N        4.40069720       3.11175611       5.03737223      -0.00021565      -0.00037050       0.00003580
N        3.65451452       1.00123412       3.74494627      -0.00003672       0.00017810       0.00037682
N        2.16214140       3.11176079       6.32979611       0.00007868      -0.00022054      -0.00034964
N        2.16214051       3.11175973       3.74494509       0.00003880      -0.00025105       0.00033867
N        3.65451608       1.00123441       6.32979458       0.00001210       0.00020003      -0.00038886
