9
Lattice="4.189023188690714 3.479267838282105e-08 2.4185338496892728 1.3963410571852548 3.9494487766167747 2.418533916398349 -1.5424675568356763e-07 -2.736736093826183e-08 4.83706796654179" Properties=species:S:1:pos:R:3:forces:R:3 energy=-60.445316314697266 free_energy=-60.445316314697266 stress="-9.07837602426298e-05 -7.73726256397822e-08 2.9249744670778455e-07 -7.73726256397822e-08 -8.851585880620405e-05 3.208502050711104e-07 2.9249744670778455e-07 3.208502050711104e-07 -8.9228167780675e-05" pbc="T T T"
Os       1.39634190       0.98735857       2.41853471       0.00000853      -0.00005572       0.00001007
Os       4.18902221       2.96209078       7.25559915      -0.00000520       0.00006603      -0.00004967
Si       0.00000014      -0.00000010      -0.00000006      -0.00000327      -0.00000051      -0.00000196
N        1.49172266       1.05480547       4.83706742      -0.00199175      -0.00144744      -0.00000826
N        4.09364108       2.89464336       4.83706956       0.00199378       0.00143927       0.00002171
N        3.44316184       1.05480598       3.71040409       0.00099349      -0.00144440      -0.00173426
N        2.14220266       2.89464223       5.96373199      -0.00099635       0.00144517       0.00175798
N        2.14220194       2.89464239       3.71040444      -0.00100464       0.00143480      -0.00174093
N        3.44316184       1.05480612       5.96373166       0.00100499      -0.00143737       0.00174546
