9
Lattice="4.325463076462725 -2.75205627355602e-07 2.497307054935474 1.441820772381992 4.078085003952838 2.497307043918266 1.4347631662409807e-08 -3.347919880863751e-09 4.994614085020048" Properties=species:S:1:pos:R:3:forces:R:3 energy=-62.253761291503906 free_energy=-62.253761291503906 stress="2.250948455184698e-06 9.361921229356085e-07 -5.888080636395898e-07 9.361921229356085e-07 5.469297320814803e-06 -3.21196466757101e-07 -5.888080636395898e-07 -3.21196466757101e-07 5.237938694335753e-06" pbc="T T T"
Os       1.44181134       1.01952474       2.49729198      -0.00046024       0.00018262      -0.00061304
Os       4.32540577       3.05859723       7.49192803      -0.00238688       0.00140707       0.00026512
V       -0.00000151       0.00000130      -0.00000014      -0.00005673       0.00003009      -0.00000811
N        1.53929280       1.08840469       4.99461793       0.00031817      -0.00138760       0.00024062
N        4.22801233       2.98965244       4.99460918       0.00057983       0.00023395      -0.00017597
N        3.55583413       1.08842715       3.83036283       0.00052989      -0.00047749      -0.00018281
N        2.21147685       2.98964941       6.15888450       0.00056916       0.00015694       0.00096220
N        2.21148160       2.98965789       3.83034791       0.00078666       0.00045800      -0.00081819
N        3.55582219       1.08842415       6.15887057       0.00012064      -0.00060368       0.00032991
