9
Lattice="3.523067871122515 0.9530273216271788 0.47969944083332217 0.6681764696524286 2.5082146583249947 1.1054305541277263 0.8899426486147213 -0.19535477150505906 1.5912887949320003" Properties=species:S:1:pos:R:3:forces:R:3 energy=-20870975488.0 free_energy=-20870975488.0 stress="0.0 939837824.0 1710859904.0 939837824.0 0.0 -298623264.0 1710859904.0 -298623264.0 0.0" pbc="T T T"
P        4.55873235      -1.17893595       1.32154152 18522157056.00000000 161066172416.00000000 12001805312.00000000
P        6.06931709       1.66803003       3.31814370 -14456196096.00000000 -29184374784.00000000 10322765824.00000000
C        0.97711738       0.74775185       0.58729600 -881614848.00000000 -45945683968.00000000 17885200384.00000000
N        4.09585397      -1.24069952       1.14578070 37735460864.00000000 21595934720.00000000 -20802502656.00000000
N        5.62849717       2.89044951       3.22263068 -3763641856.00000000 -115735552.00000000 236333824.00000000
N        7.40657605      -0.22195143       1.19571187 21318748160.00000000 12279662592.00000000 10980340736.00000000
N        5.37567352      -1.21040761       2.75014813 -52492509184.00000000 -101207457792.00000000 815495168.00000000
N        5.31689566       1.23396077       1.57939001 -5855100928.00000000 6980614144.00000000 5331187712.00000000
N        4.45739468       1.87943255       1.22060593 -127285248.00000000 -25469128704.00000000 -36770643968.00000000
