9
Lattice="5.666624739335247 -6.591403214254494e-08 3.2716274377872625 1.8888749084129273 5.34254479782131 3.2716273382886327 7.33592872303898e-08 -6.99876789392316e-08 6.543254748512401" Properties=species:S:1:pos:R:3:forces:R:3 energy=-32.06093215942383 free_energy=-32.06093215942383 stress="-0.0004299863358028233 4.016204258050493e-08 6.132888419330129e-09 4.016204258050493e-08 -0.000430048763519153 6.907460381455621e-09 6.132888419330129e-09 6.907460381455621e-09 -0.00043006453779526055" pbc="T T T"
Pb       1.88887484       1.33563545       3.27162745      -0.00000087      -0.00000212       0.00000069
Pb       5.66662562       4.00690921       9.81488226       0.00000200       0.00000158      -0.00000002
Ag      -0.00000012      -0.00000119       0.00000095       0.00000284       0.00001506      -0.00001326
S        2.00986066       1.42118575       6.54325455      -0.00575474      -0.00407031       0.00000111
S        5.54563971       3.92135953       6.54325484       0.00574809       0.00406593       0.00000051
S        4.66169479       1.42118468       5.01221751       0.00287633      -0.00406903      -0.00498015
S        2.89380468       3.92136020       8.07429195      -0.00287545       0.00406745       0.00498164
S        2.89380427       3.92136013       5.01221692      -0.00287437       0.00406268      -0.00497532
S        4.66169454       1.42118482       8.07429183       0.00287603      -0.00407115       0.00498506
