9
Lattice="5.944146434100654 -2.2363062218220744e-09 3.4318545882763885 1.9813821270967382 5.604194836569697 3.4318546151146885 3.847876894211834e-08 6.00786556312455e-08 6.863709109905575" Properties=species:S:1:pos:R:3:forces:R:3 energy=-30.912824630737305 free_energy=-30.912824630737305 stress="0.0002478255482856184 9.810892542816418e-09 -2.7777931066452766e-08 9.810892542816418e-09 0.00024788363953121006 -1.6327089014112062e-08 -2.7777931066452766e-08 -1.6327089014112062e-08 0.0002478964743204415" pbc="T T T"
Pb       1.98138238       1.40104850       3.43185466       0.00000238      -0.00000009       0.00000165
Pb       5.94414612       4.20314648      10.29556341      -0.00000065       0.00000314       0.00000202
Ag       0.00000003       0.00000007      -0.00000066      -0.00000225       0.00000175       0.00000508
Se       2.14109980       1.51398592       6.86370910       0.00164808       0.00116465      -0.00000089
Se       5.78442871       4.09020884       6.86370946      -0.00164841      -0.00116608      -0.00000014
Se       4.87359636       1.51398622       5.28610171      -0.00082370       0.00116379       0.00142571
Se       3.05193217       4.09020884       8.44131696       0.00082494      -0.00116642      -0.00143041
Se       3.05193218       4.09020855       5.28610158       0.00082366      -0.00116645       0.00142574
Se       4.87359671       1.51398617       8.44131693      -0.00082416       0.00116570      -0.00142883
