9
Lattice="5.630190410297214 -1.0372107769004371e-07 3.2505918358234833 1.876730027770576 5.308194485609667 3.250591855232872 -1.4127671573831322e-07 -7.61261765131701e-08 6.501183916345505" Properties=species:S:1:pos:R:3:forces:R:3 energy=-33.25224304199219 free_energy=-33.25224304199219 stress="5.029325984651223e-05 -2.183446845549497e-08 2.161710810355544e-09 -2.183446845549497e-08 5.029132807976566e-05 -8.511157112423007e-09 2.161710810355544e-09 -8.511157112423007e-09 5.034081550547853e-05" pbc="T T T"
Pb       1.87672979       1.32704874       3.25059229      -0.00000240       0.00000108       0.00000013
Pb       5.63018983       3.98114608       9.75177528      -0.00000229       0.00000036      -0.00000046
Au      -0.00000064      -0.00000002      -0.00000022       0.00000403      -0.00000138      -0.00000035
S        1.97467802       1.39630776       6.50118378       0.00144851       0.00102380      -0.00000026
S        5.53224251       3.91188615       6.50118414      -0.00144619      -0.00102356       0.00000089
S        4.64285132       1.39630846       4.96071371      -0.00072488       0.00102317       0.00125277
S        2.86406963       3.91188593       8.04165437       0.00072289      -0.00102362      -0.00125259
S        2.86406933       3.91188551       4.96071342       0.00072369      -0.00102401       0.00125319
S        4.64285132       1.39630853       8.04165370      -0.00072330       0.00102407      -0.00125304
