9
Lattice="5.974730129444565 -9.28032215429653e-08 3.4495120317677843 1.9915766207356387 5.633029507426497 3.449512034510519 -4.7613108473427816e-08 -3.030838901925523e-08 6.899024146003903" Properties=species:S:1:pos:R:3:forces:R:3 energy=-31.670656204223633 free_energy=-31.670656204223633 stress="5.806404078612104e-05 -1.191513665510513e-09 6.184291745370274e-09 -1.191513665510513e-09 5.805100954603404e-05 -7.258290857237171e-09 6.184291745370274e-09 -7.258290857237171e-09 5.801622319268063e-05" pbc="T T T"
Pb       1.99157680       1.40825704       3.44951192       0.00000010       0.00000043      -0.00000073
Pb       5.97472994       4.22477182      10.34853566       0.00000047      -0.00000071      -0.00000137
Au      -0.00000003       0.00000005      -0.00000018       0.00000017       0.00000027       0.00000196
Se       2.12554488       1.50298729       6.89902436       0.00337625       0.00238772       0.00000044
Se       5.84076196       4.13004231       6.89902425      -0.00337610      -0.00238833       0.00000071
Se       4.91195783       1.50298686       5.29028761      -0.00168861       0.00238675       0.00292236
Se       3.05434882       4.13004239       8.50776066       0.00168714      -0.00238803      -0.00292346
Se       3.05434910       4.13004239       5.29028795       0.00168902      -0.00238682       0.00292401
Se       4.91195752       1.50298734       8.50776059      -0.00168845       0.00238863      -0.00292377
