9
Lattice="6.344734708011711 2.716231415777431e-08 3.6631339245583545 2.114911652669456 5.981873162012608 3.6631338245785265 8.048699683483579e-08 -6.553680017349466e-08 7.326267709709187" Properties=species:S:1:pos:R:3:forces:R:3 energy=-28.435781478881836 free_energy=-28.435781478881836 stress="-0.0003208117268513888 8.894457614871953e-09 -4.81869077972874e-09 8.894457614871953e-09 -0.00032080317032523453 7.773675925193402e-09 -4.81869077972874e-09 7.773675925193402e-09 -0.000320856343023479" pbc="T T T"
Pb       2.11491215       1.49546943       3.66313356       0.00000208       0.00000403      -0.00000088
Pb       6.34473414       4.48640445      10.98940137      -0.00000202      -0.00000172       0.00000028
Ag      -0.00000004       0.00000050      -0.00000080       0.00000119      -0.00000385       0.00000592
Te       2.29610161       1.62358897       7.32626757       0.00803132       0.00567915      -0.00000028
Te       6.16354457       4.35828400       7.32626729      -0.00803064      -0.00567953      -0.00000099
Te       5.19668418       1.62358874       5.65161498      -0.00401618       0.00568039       0.00695525
Te       3.26296231       4.35828366       9.00092168       0.00401653      -0.00568247      -0.00695434
Te       3.26296268       4.35828358       5.65161503       0.00401558      -0.00567974       0.00695229
Te       5.19668413       1.62358915       9.00092118      -0.00401790       0.00568371      -0.00695726
