9
Lattice="4.9017815741267485 2.35558029623094e-08 2.8300450348616835 1.6339272062011305 4.621444168641779 2.8300450476495933 -2.0732959091953858e-08 1.0014645341388336e-09 5.660090105633945" Properties=species:S:1:pos:R:3:forces:R:3 energy=-38.875450134277344 free_energy=-38.875450134277344 stress="-9.431619400857016e-05 4.03303657137144e-09 -2.8598543977409463e-08 4.03303657137144e-09 -9.428320481674746e-05 -1.8358875308877032e-08 -2.8598543977409463e-08 -1.8358875308877032e-08 -9.42997430684045e-05" pbc="T T T"
Pb       1.63392658       1.15536063       2.83004518      -0.00000148      -0.00000119       0.00000083
Pb       4.90178177       3.46608400       8.49013528       0.00000058       0.00000132       0.00000057
Ag      -0.00000004       0.00000012       0.00000005      -0.00000420      -0.00001785       0.00000173
O        1.59229657       1.12592368       5.66009003       0.00069600       0.00049055      -0.00000003
O        4.94341205       3.49552034       5.66008997      -0.00068414      -0.00048351      -0.00000062
O        4.10563326       1.12592335       4.20901455      -0.00034714       0.00049022       0.00060213
O        2.43007564       3.49552074       7.11116543       0.00034454      -0.00048557      -0.00059599
O        2.43007544       3.49552056       4.20901482       0.00034314      -0.00048462       0.00059426
O        4.10563367       1.12592342       7.11116532      -0.00034711       0.00049052      -0.00060332
