9
Lattice="4.866407709744787 9.221326911341331e-08 2.809621548974203 1.622136004458686 4.5880930869686 2.809621524256195 3.801843162854708e-08 -3.390148802419953e-09 5.61924303209853" Properties=species:S:1:pos:R:3:forces:R:3 energy=-40.91603469848633 free_energy=-40.91603469848633 stress="-0.00022921217896509916 3.3546672284501255e-07 2.1819449358417842e-08 3.3546672284501255e-07 -0.0002293826109962538 -7.677822821960945e-08 2.1819449358417842e-08 -7.677822821960945e-08 -0.00022967775294091552" pbc="T T T"
Pb       1.62213604       1.14702329       2.80962166       0.00000229       0.00000040      -0.00000060
Pb       4.86640784       3.44107002       8.42886528      -0.00000087       0.00000061       0.00000431
Au       0.00000011       0.00000030      -0.00000040      -0.00000655      -0.00002374       0.00003312
O        1.61791194       1.14403599       5.61924295       0.00307444       0.00217298      -0.00000112
O        4.87063185       3.44405694       5.61924266      -0.00306189      -0.00216344      -0.00000209
O        4.05745242       1.14403631       4.21077313      -0.00154175       0.00218293       0.00266975
O        2.43109095       3.44405732       7.02771271       0.00154522      -0.00218675      -0.00267971
O        2.43109193       3.44405703       4.21077347       0.00153667      -0.00217220       0.00265944
O        4.05745204       1.14403546       7.02771276      -0.00154772       0.00218910      -0.00268278
