9
Lattice="4.624684968299714 -9.621367597183705e-08 2.670063111255617 1.541561618964216 4.360194280348142 2.6700630184603322 1.0432936366826065e-07 -3.987861954656235e-08 5.340126041807524" Properties=species:S:1:pos:R:3:forces:R:3 energy=-45.19465255737305 free_energy=-45.19465255737305 stress="-4.1222967411158606e-05 5.0918337990424334e-08 1.1656649867575197e-08 5.0918337990424334e-08 -4.119329241802916e-05 2.2759614637379855e-08 1.1656649867575197e-08 2.2759614637379855e-08 -4.1254003008361906e-05" pbc="T T T"
Pb       1.54156089       1.09004846       2.67006331       0.00000050      -0.00000021       0.00000056
Pb       4.62468480       3.27014525       8.01018991      -0.00000009      -0.00000066      -0.00000055
Be       0.00000025      -0.00000025      -0.00000035      -0.00000202       0.00000365       0.00000346
O        1.35332296       0.95694394       5.34012618       0.00088316       0.00062358      -0.00000042
O        4.81292387       3.40325072       5.34012606      -0.00088155      -0.00062236       0.00000025
O        3.94802402       0.95694378       3.84207471      -0.00044113       0.00062409       0.00076491
O        2.21822328       3.40325052       6.83817703       0.00044310      -0.00062722      -0.00076771
O        2.21822318       3.40325044       3.84207477       0.00044075      -0.00062379       0.00076422
O        3.94802351       0.95694347       6.83817690      -0.00044250       0.00062230      -0.00076419
