9
Lattice="6.222296389507132 2.543199682430393e-09 3.592444292878425 2.0740988621160863 5.866438103846809 3.5924441833853695 1.3694957364796605e-07 -3.726313340058191e-08 7.184888348553409" Properties=species:S:1:pos:R:3:forces:R:3 energy=-29.80728530883789 free_energy=-29.80728530883789 stress="-0.0001204631116706878 -2.1504238389979946e-08 1.6935262081574365e-08 -2.1504238389979946e-08 -0.00012064354814356193 1.1564614155190611e-08 1.6935262081574365e-08 1.1564614155190611e-08 -0.00012050757504766807" pbc="T T T"
Pb       2.07409798       1.46661035       3.59244464      -0.00000264       0.00000542       0.00000182
Pb       6.22229836       4.39982549      10.77733210       0.00000455      -0.00000962      -0.00000098
Be       0.00000017      -0.00000047      -0.00000013      -0.00000096       0.00000377       0.00000177
Te       1.98175763       1.40131832       7.18488810       0.00405012       0.00287502      -0.00000135
Te       6.31463667       4.46512120       7.18488883      -0.00405420      -0.00287233       0.00000103
Te       5.23141757       1.40131742       5.30869779      -0.00202411       0.00287078       0.00350958
Te       3.06497791       4.46512166       9.06107913       0.00202627      -0.00287171      -0.00351322
Te       3.06497726       4.46512094       5.30869774       0.00202426      -0.00287304       0.00351223
Te       5.23141804       1.40131734       9.06107911      -0.00202326       0.00287170      -0.00351085
