9
Lattice="5.049161340177534 -4.238596871555085e-09 2.915134630077871 1.683053819284378 4.760394796048985 2.9151345552162073 8.255553922951574e-08 -3.331080200354531e-08 5.8302691171653" Properties=species:S:1:pos:R:3:forces:R:3 energy=-38.998435974121094 free_energy=-38.998435974121094 stress="3.996649320470169e-05 1.0788060933464294e-07 -8.381249472222407e-09 1.0788060933464294e-07 4.0241473470814526e-05 -2.2244275754701448e-08 -8.381249472222407e-09 -2.2244275754701448e-08 4.0138675103662536e-05" pbc="T T T"
Pb       1.68305618       1.19009718       2.91513438       0.00000746      -0.00000761      -0.00000068
Pb       5.04916071       3.57029625       8.74540430      -0.00000293       0.00000200       0.00000149
Ba       0.00000046      -0.00000050       0.00000003      -0.00000475       0.00000351      -0.00000164
O        2.01108439       1.42205051       5.83026932      -0.00046721      -0.00033614       0.00000090
O        4.72112993       3.33834519       5.83026875       0.00046742       0.00034057      -0.00000152
O        4.04361863       1.42205108       4.65678350       0.00023057      -0.00033262      -0.00041071
O        2.68859674       3.33834442       7.00375426      -0.00023018       0.00033358       0.00040761
O        2.68859632       3.33834425       4.65678384      -0.00022966       0.00033230      -0.00040612
O        4.04361755       1.42205058       7.00375484       0.00022915      -0.00033556       0.00041077
