9
Lattice="6.497639798342331 -7.368346164949506e-08 3.751414097817082 2.16587992243756 6.12603324171422 3.751413995407533 4.080873377020303e-08 -9.656944338330716e-08 7.502828124951308" Properties=species:S:1:pos:R:3:forces:R:3 energy=-30.746965408325195 free_energy=-30.746965408325195 stress="-3.793869473156519e-05 3.616294819153154e-08 -1.445876929295764e-08 3.616294819153154e-08 -3.7926132790744305e-05 7.813878433182708e-09 -1.445876929295764e-08 7.813878433182708e-09 -3.795050361077301e-05" pbc="T T T"
Pb       2.16587961       1.53150937       3.75141410      -0.00000112       0.00000355      -0.00000033
Pb       6.49764053       4.59452488      11.25424175       0.00000406      -0.00000029      -0.00000185
Ba       0.00000052      -0.00000007      -0.00000098      -0.00000386      -0.00000161       0.00000629
Se       2.53166786       1.79015968       7.50282838       0.00137290       0.00097301      -0.00000026
Se       6.13185236       4.33587300       7.50282872      -0.00136825      -0.00097337       0.00000085
Se       5.23180604       1.79015926       5.94390298      -0.00068505       0.00097033       0.00118770
Se       3.43171369       4.33587325       9.06175366       0.00068584      -0.00097196      -0.00118987
Se       3.43171263       4.33587342       5.94390277       0.00068162      -0.00097169       0.00118970
Se       5.23180581       1.79015947       9.06175351      -0.00068615       0.00097215      -0.00119214
