9
Lattice="6.2500606941386545 -7.393336700743185e-08 3.6084743713930965 2.0833535028338783 5.892613831625699 3.6084743578380736 1.9179595577985452e-08 -3.0394853160711213e-09 7.216948709566114" Properties=species:S:1:pos:R:3:forces:R:3 energy=-31.849964141845703 free_energy=-31.849964141845703 stress="-2.434368616377469e-05 -7.422481740348985e-09 9.769130393522119e-09 -7.422481740348985e-09 -2.4336573915206827e-05 -1.1982308478764025e-08 9.769130393522119e-09 -1.1982308478764025e-08 -2.433562076475937e-05" pbc="T T T"
Pb       2.08335350       1.47315380       3.60847440      -0.00000202       0.00000188       0.00000019
Pb       6.25006071       4.41946033      10.82542271      -0.00000011      -0.00000047      -0.00000247
Ba      -0.00000055       0.00000008      -0.00000031       0.00000545      -0.00000137       0.00000319
S        2.43932975       1.72486699       7.21694892      -0.00614485      -0.00434465       0.00000067
S        5.89408477       4.16774656       7.21694876       0.00614359       0.00434054       0.00000227
S        5.03039576       1.72486656       5.72099608       0.00307150      -0.00434419      -0.00532039
S        3.30301874       4.16774693       8.71290145      -0.00306991       0.00434367       0.00532039
S        3.30301836       4.16774685       5.72099630      -0.00307469       0.00434575      -0.00532230
S        5.03039579       1.72486696       8.71290151       0.00307102      -0.00434114       0.00531856
