9
Lattice="5.426379233888494 4.164011684383533e-07 3.1329214252235014 1.8087934584482415 5.116039311031907 3.132921446183668 6.289301175776241e-07 4.7039162220346306e-07 6.265841761108067" Properties=species:S:1:pos:R:3:forces:R:3 energy=-36.31336212158203 free_energy=-36.31336212158203 stress="-5.4777468903921545e-05 -4.084676774596119e-08 -5.7156746890996146e-08 -4.084676774596119e-08 -5.485618021339178e-05 -2.090862949444272e-08 -5.7156746890996146e-08 -2.090862949444272e-08 -5.5022519518388435e-05" pbc="T T T"
Pb       1.80879449       1.27900924       3.13292191       0.00000693      -0.00002402       0.00002156
Pb       5.42638033       3.83702944       9.39876534       0.00000500      -0.00002330       0.00001943
C       -0.00000487       0.00002005      -0.00001747      -0.00013354       0.00049768      -0.00041914
S        1.61358469       1.14097980       6.26584068       0.00059354       0.00047791      -0.00004049
S        5.62158038       3.97505801       6.26584067      -0.00083572      -0.00054270      -0.00004331
S        4.61958591       1.14098038       4.53032864      -0.00035039       0.00053430       0.00056070
S        2.61558688       3.97506046       8.00135123       0.00035483      -0.00047582      -0.00068361
S        2.61559378       3.97505185       4.53034261       0.00053284      -0.00072581       0.00091487
S        4.61959180       1.14097209       8.00136503      -0.00017342       0.00028175      -0.00032938
