9
Lattice="6.688166955725046 2.4497853377370378e-08 3.861414944760815 2.2293890190014323 6.305664609837191 3.8614149262920128 -5.3006914150577807e-08 -6.010113690880487e-08 7.72282998133226" Properties=species:S:1:pos:R:3:forces:R:3 energy=-29.369340896606445 free_energy=-29.369340896606445 stress="-0.00014848483260720968 -7.55921547579419e-09 4.929550545540451e-09 -7.55921547579419e-09 -0.00014849069702904671 1.0446952636300466e-08 4.929550545540451e-09 1.0446952636300466e-08 -0.0001484776585130021" pbc="T T T"
Pb       2.22938876       1.57641598       3.86141462      -0.00000049      -0.00000143      -0.00000208
Pb       6.68816666       4.72924835      11.58424603      -0.00000160       0.00000033       0.00000336
Ca      -0.00000038       0.00000006      -0.00000095       0.00000185      -0.00000006       0.00000444
Te       2.51921608       1.78135442       7.72283012      -0.00588192      -0.00415958       0.00000051
Te       6.39833978       4.52431016       7.72282913       0.00588158       0.00415980      -0.00000186
Te       5.42855924       1.78135487       6.04312032       0.00294193      -0.00415910      -0.00509506
Te       3.48899705       4.52430987       9.40253985      -0.00294109       0.00415800       0.00509312
Te       3.48899756       4.52431020       6.04312023      -0.00294012       0.00416094      -0.00509487
Te       5.42855897       1.78135435       9.40254009       0.00293987      -0.00415890       0.00509246
