9
Lattice="5.498388464761539 -5.053476197627313e-09 3.1744960806618594 1.8327962081959601 5.183930357760946 3.1744959801338197 2.056417919465367e-07 2.2289380738919615e-08 6.34899180514177" Properties=species:S:1:pos:R:3:forces:R:3 energy=-39.92462921142578 free_energy=-39.92462921142578 stress="-0.00012725514534395188 1.7887028525009896e-09 -1.4641968748563272e-09 1.7887028525009896e-09 -0.00012727810826618224 -4.412846532630965e-09 -1.4641968748563272e-09 -4.412846532630965e-09 -0.00012725072156172246" pbc="T T T"
Pb       1.83279581       1.29598305       3.17449590      -0.00000023       0.00000005       0.00000025
Pb       5.49838871       3.88794733       9.52348801      -0.00000014       0.00000013      -0.00000000
Co      -0.00000007       0.00000022       0.00000038       0.00000153      -0.00000233      -0.00000415
S        1.78679128       1.26345228       6.34899193       0.00171044       0.00121014       0.00000054
S        5.54439378       3.92047797       6.34899177      -0.00171074      -0.00120963       0.00000033
S        4.60499297       1.26345237       4.72190228      -0.00085586       0.00121024       0.00148287
S        2.72619226       3.92047808       7.97608145       0.00085488      -0.00120853      -0.00148031
S        2.72619213       3.92047813       4.72190248       0.00085583      -0.00120936       0.00148222
S        4.60499289       1.26345195       7.97608149      -0.00085567       0.00120914      -0.00148153
