9
Lattice="4.884827228547347 8.710573259476785e-07 2.8202557728935598 1.6282763321616793 4.605459488857206 2.8202561746051074 -2.255896044253894e-07 3.324780938619302e-07 5.640511936520004" Properties=species:S:1:pos:R:3:forces:R:3 energy=-48.05784606933594 free_energy=-48.05784606933594 stress="-1.1859295227623079e-05 -3.477720156297437e-08 2.5640472856025553e-08 -3.477720156297437e-08 -1.173749114968814e-05 6.473197089462701e-08 2.5640472856025553e-08 6.473197089462701e-08 -1.1623867067100946e-05" pbc="T T T"
Pb       1.62827999       1.15138515       2.82025066       0.00002143       0.00010938      -0.00001657
Pb       4.88483163       3.45411573       8.46076456       0.00002035       0.00010768      -0.00001779
C        0.00001907       0.00010460      -0.00001232      -0.00016677      -0.00090533       0.00009232
N        1.25569094       0.88786802       5.64051963       0.00071430       0.00031865       0.00003644
N        5.25747696       3.71755809       5.64051890       0.00040591       0.00009859       0.00003383
N        4.25697557       0.88785272       3.90771326      -0.00030702       0.00012791       0.00046980
N        2.25608337       3.71754371       7.37336364      -0.00014639      -0.00009882       0.00019538
N        2.25608068       3.71755234       3.90766302      -0.00019246       0.00000739      -0.00025928
N        4.25697518       0.88786279       7.37331195      -0.00034910       0.00023472      -0.00053430
