9
Lattice="5.714458840976631 -1.2003388326138092e-07 3.2992440068687077 1.9048194655438486 5.387643462422001 3.299244067396932 -2.5808852033911423e-07 -1.0836448835424284e-07 6.598488460759805" Properties=species:S:1:pos:R:3:forces:R:3 energy=-29.986942291259766 free_energy=-29.986942291259766 stress="-3.0149325539241545e-05 3.1513984311004606e-08 -3.070757514933575e-08 3.1513984311004606e-08 -3.012330853380263e-05 9.078394036521331e-09 -3.070757514933575e-08 9.078394036521331e-09 -3.0083338060649112e-05" pbc="T T T"
Pb       1.90481905       1.34691073       3.29924370      -0.00000146       0.00000015      -0.00000120
Pb       5.71445938       4.04073355       9.89773223       0.00000245       0.00000224       0.00000005
Cd       0.00000000       0.00000011       0.00000104      -0.00000040      -0.00000120      -0.00000377
S        2.08922536       1.47730523       6.59848868      -0.00420377      -0.00297222      -0.00000053
S        5.53005239       3.91033757       6.59848767       0.00420398       0.00297242      -0.00000006
S        4.66984620       1.47730505       5.10856715       0.00210153      -0.00297201      -0.00363621
S        2.94943237       3.91033764       8.08840916      -0.00210164       0.00297347       0.00364146
S        2.94943186       3.91033783       5.10856719      -0.00210217       0.00297090      -0.00363773
S        4.66984558       1.47730527       8.08840934       0.00210139      -0.00297377       0.00363776
