9
Lattice="5.815277293727569 -3.4018821392920255e-08 3.3574519614906144 1.9384257446140374 5.482695733747586 3.357451940513016 1.0603928449967641e-07 4.92888843698592e-08 6.7149037393157816" Properties=species:S:1:pos:R:3:forces:R:3 energy=-32.59800338745117 free_energy=-32.59800338745117 stress="-4.749425443151267e-06 5.3737906569040206e-08 -1.7578601685386275e-08 5.3737906569040206e-08 -4.788543265021872e-06 5.33156274684643e-09 -1.7578601685386275e-08 5.33156274684643e-09 -4.750824246002594e-06" pbc="T T T"
Pb       1.93842562       1.37067366       3.35745201      -0.00000005       0.00000180       0.00000110
Pb       5.81527738       4.11202212      10.07235607      -0.00000218      -0.00000054      -0.00000306
Cu       0.00000012       0.00000007      -0.00000035      -0.00000111       0.00000004       0.00000183
Se       2.01560659       1.42524911       6.71490382       0.00100815       0.00071295       0.00000143
Se       5.73809648       4.05744662       6.71490374      -0.00100721      -0.00071177      -0.00000017
Se       4.80747411       1.42524900       5.10301856      -0.00050286       0.00071163       0.00087130
Se       2.94622892       4.05744697       8.32678915       0.00050522      -0.00071307      -0.00087339
Se       2.94622903       4.05744676       5.10301848       0.00050456      -0.00071424       0.00087370
Se       4.80747439       1.42524870       8.32678907      -0.00050448       0.00071312      -0.00087284
