9
Lattice="4.793772065083545 -2.479653200178943e-07 2.767685772976456 1.5979236985599643 4.519611580392396 2.7676859277362253 -4.0390064631774956e-08 1.609810695748416e-07 5.535371615910536" Properties=species:S:1:pos:R:3:forces:R:3 energy=-37.38737106323242 free_energy=-37.38737106323242 stress="0.0001681886351434514 -2.556472509240848e-07 -9.702441872150303e-08 -2.556472509240848e-07 0.00016847418737597764 1.2667645421515772e-07 -9.702441872150303e-08 1.2667645421515772e-07 0.0001686932664597407" pbc="T T T"
Pb       1.59792412       1.12990299       2.76768559      -0.00000400       0.00000321       0.00000128
Pb       4.79377088       3.38970948       8.30305801      -0.00000355       0.00000372       0.00000152
Cd      -0.00000188       0.00000175       0.00000106       0.00003143      -0.00002285      -0.00001865
O        1.78616505       1.26300900       5.53537169      -0.00426084      -0.00301659      -0.00000005
O        4.60553207       3.25660243       5.53537144       0.00425237       0.00300580      -0.00000205
O        3.90068937       1.26300966       4.31455073       0.00212654      -0.00300723      -0.00368261
O        2.49100801       3.25659995       6.75619134      -0.00213948       0.00302899       0.00371039
O        2.49100629       3.25660139       4.31455123      -0.00213310       0.00301769      -0.00369775
O        3.90068931       1.26300952       6.75619259       0.00213099      -0.00301313       0.00368774
