9
Lattice="4.756374300044911 4.4810956463825894e-08 2.7460939357043888 1.5854581686089413 4.48435257019859 2.746093890072075 8.182102694279946e-08 1.9683119765697514e-09 5.492187729690595" Properties=species:S:1:pos:R:3:forces:R:3 energy=-42.57254409790039 free_energy=-42.57254409790039 stress="-0.0005082002026028931 1.8556264302915793e-09 1.3439986012997451e-08 1.8556264302915793e-09 -0.0005082456627860665 -3.2575773190046675e-08 1.3439986012997451e-08 -3.2575773190046675e-08 -0.0005082287825644016" pbc="T T T"
Pb       1.58545848       1.12108730       2.74609442       0.00000148      -0.00000144       0.00000045
Pb       4.75637450       3.36326458       8.23828231       0.00000018      -0.00000145       0.00000212
Cu       0.00000015      -0.00000009      -0.00000000      -0.00000720      -0.00000177       0.00000324
O        1.52442065       1.07792871       5.49218774       0.00592393       0.00418836      -0.00000014
O        4.81741099       3.40642456       5.49218751      -0.00591847      -0.00418267      -0.00000096
O        3.99416394       1.07792892       4.06628083      -0.00296101       0.00418609       0.00512657
O        2.34766887       3.40642425       6.91809398       0.00296143      -0.00418735      -0.00512999
O        2.34766887       3.40642397       4.06628140       0.00296018      -0.00418624       0.00512767
O        3.99416401       1.07792848       6.91809397      -0.00296068       0.00418681      -0.00512874
