9
Lattice="6.197042465680837 -2.724132744640773e-07 3.57786435708139 2.065680762655521 5.8426266587219216 3.577864014835881 5.5217472223907166e-08 -3.801187326053617e-07 7.155728618523389" Properties=species:S:1:pos:R:3:forces:R:3 energy=-33.967838287353516 free_energy=-33.967838287353516 stress="-4.0045269997790456e-05 -3.330443121285498e-08 2.9218536923281135e-08 -3.330443121285498e-08 -4.002908826805651e-05 -1.162077456484667e-08 2.9218536923281135e-08 -1.162077456484667e-08 -4.007726238342002e-05" pbc="T T T"
Pb       2.06567921       1.46065608       3.57786435      -0.00000345      -0.00000101       0.00000122
Pb       6.19704285       4.38197006      10.73358981       0.00000101       0.00000199      -0.00000516
Co      -0.00000036       0.00000108      -0.00000019       0.00000407      -0.00000591      -0.00000114
Te       2.02131273       1.42928281       7.15572838       0.00088295       0.00062365      -0.00000097
Te       6.24141134       4.41334276       7.15573067      -0.00088178      -0.00062298       0.00000264
Te       5.18638643       1.42928148       5.32837341      -0.00044126       0.00062271       0.00076657
Te       3.07633785       4.41334319       8.98308426       0.00044049      -0.00062055      -0.00076123
Te       3.07633630       4.41334278       5.32837309       0.00043646      -0.00062049       0.00075990
Te       5.18638700       1.42928387       8.98308407      -0.00043849       0.00062257      -0.00076182
