9
Lattice="5.965534474656316 -9.941551128791969e-08 3.444203120440735 1.988511431394892 5.624360073650511 3.444203062291204 2.542444599769271e-08 -5.3240479959587337e-08 6.888406196845067" Properties=species:S:1:pos:R:3:forces:R:3 energy=-33.096092224121094 free_energy=-33.096092224121094 stress="-4.961500962963328e-05 -1.7254082607109922e-08 4.71248018385495e-09 -1.7254082607109922e-08 -4.962036473443732e-05 -5.506091138585134e-10 4.71248018385495e-09 -5.506091138585134e-10 -4.959122452419251e-05" pbc="T T T"
Pb       1.98851155       1.40608960       3.44420317      -0.00000042      -0.00000165       0.00000107
Pb       5.96553439       4.21827022      10.33260903      -0.00000092       0.00000137       0.00000051
Ca       0.00000016      -0.00000015       0.00000148      -0.00000083       0.00000045      -0.00001166
S        2.21376483       1.56536786       6.88840587      -0.00167338      -0.00118591      -0.00000040
S        5.74028103       4.05899212       6.88840600       0.00167523       0.00118525      -0.00000014
S        4.85865191       1.56536792       5.36137977       0.00083733      -0.00118450      -0.00144952
S        3.09539429       4.05899192       8.41543231      -0.00083802       0.00118886       0.00145392
S        3.09539371       4.05899193       5.36137975      -0.00083769       0.00118408      -0.00144879
S        4.85865182       1.56536827       8.41543209       0.00083879      -0.00118790       0.00145502
