9
Lattice="6.491431880151745 3.553373838726466e-07 3.747829246464033 2.1638107330798992 6.120179802129391 3.7478296425019595 -4.6247882733602245e-07 1.580236229196218e-07 7.495659293964785" Properties=species:S:1:pos:R:3:forces:R:3 energy=-26.50507164001465 free_energy=-26.50507164001465 stress="1.7456650311942212e-05 -3.649159552310266e-08 3.7857404322494403e-08 -3.649159552310266e-08 1.7647720596869476e-05 1.0009672202215825e-08 3.7857404322494403e-08 1.0009672202215825e-08 1.7425065379939042e-05" pbc="T T T"
Pb       2.16381178       1.53004787       3.74782793       0.00000499       0.00001778      -0.00000772
Pb       6.49142910       4.59013232      11.24348926      -0.00000956      -0.00001794       0.00000368
Cd      -0.00000010      -0.00000065       0.00000522      -0.00000001       0.00000288      -0.00003211
Te       2.38456701       1.68614535       7.49565965      -0.00003402      -0.00002067       0.00000041
Te       6.27067527       4.43403504       7.49565711       0.00003470       0.00002077      -0.00000606
Te       5.29915075       1.68614719       5.81292300       0.00001463      -0.00000632      -0.00002426
Te       3.35609431       4.43402894       9.17839469      -0.00002448       0.00002028       0.00004339
Te       3.35609440       4.43403409       5.81292247      -0.00000796       0.00000706      -0.00002322
Te       5.29914601       1.68615110       9.17839340       0.00002176      -0.00002387       0.00004591
