9
Lattice="5.837343242501969 -9.193455982663844e-09 3.3701916600759776 1.9457810543327987 5.503500019694674 3.3701916909646057 -1.6907828578167805e-08 2.5875017654067857e-08 6.7403833494373835" Properties=species:S:1:pos:R:3:forces:R:3 energy=-39.98607635498047 free_energy=-39.98607635498047 stress="-1.6334748806912103e-06 4.502740846845654e-09 1.0073734735271955e-08 4.502740846845654e-09 -1.6358641232727678e-06 1.333034216344231e-08 1.0073734735271955e-08 1.333034216344231e-08 -1.6385860135414987e-06" pbc="T T T"
Pb       1.94578113       1.37587501       3.37019164      -0.00000116      -0.00000086       0.00000035
Pb       5.83734326       4.12762485      10.11057539      -0.00000076       0.00000031      -0.00000036
Cr       0.00000005       0.00000002      -0.00000020      -0.00000082      -0.00000023       0.00000046
Se       1.98564367       1.40406218       6.74038349       0.00017411       0.00012289       0.00000043
Se       5.79748051       4.09943788       6.74038304      -0.00017320      -0.00012203      -0.00000045
Se       4.84452125       1.40406231       5.08980962      -0.00008677       0.00012245       0.00015013
Se       2.93860288       4.09943792       8.39095700       0.00008709      -0.00012217      -0.00015056
Se       2.93860301       4.09943781       5.08980961       0.00008769      -0.00012331       0.00015088
Se       4.84452135       1.40406218       8.39095724      -0.00008627       0.00012295      -0.00015084
