9
Lattice="4.808962888010741 1.670817103860603e-08 2.7764556843972468 1.6029876468783115 4.5339335265109595 2.776455681298947 -2.259698219225138e-09 -5.392464014876432e-09 5.552911372708379" Properties=species:S:1:pos:R:3:forces:R:3 energy=-48.274932861328125 free_energy=-48.274932861328125 stress="-4.459205683815526e-06 -8.779508675615944e-09 -1.4091812161609596e-08 -8.779508675615944e-09 -4.4191979213792365e-06 -2.848374869302006e-08 -1.4091812161609596e-08 -2.848374869302006e-08 -4.481359610508662e-06" pbc="T T T"
Pb       1.60298761       1.13348332       2.77645510      -0.00000064       0.00000106       0.00000096
Pb       4.80896284       3.40045049       8.32936758      -0.00000083       0.00000025       0.00000030
Co      -0.00000037       0.00000001      -0.00000054      -0.00000124       0.00000080      -0.00000368
N        1.55171940       1.09723076       5.55291086       0.00005877       0.00003934      -0.00000062
N        4.86023185       3.43670218       5.55291157      -0.00005645      -0.00004154      -0.00000012
N        4.03310294       1.09723149       4.12028387      -0.00002840       0.00004196       0.00004941
N        2.37884707       3.43670248       6.98553926       0.00002801      -0.00004095      -0.00004822
N        2.37884758       3.43670255       4.12028433       0.00002995      -0.00003958       0.00005114
N        4.03310346       1.09723069       6.98553879      -0.00002903       0.00003833      -0.00004917
