9
Lattice="4.831380280501345 2.2134209013390247e-07 2.789398694661663 1.610460242185805 4.5550695804136465 2.7893987985812476 5.563273445777044e-08 1.6661318614760412e-07 5.578797292964597" Properties=species:S:1:pos:R:3:forces:R:3 energy=-41.723236083984375 free_energy=-41.723236083984375 stress="-4.409019766171696e-06 1.4591643449080038e-08 -3.6532604497097054e-08 1.4591643449080038e-08 -4.449201242096024e-06 -2.9419405578323676e-08 -3.6532604497097054e-08 -2.9419405578323676e-08 -4.407343567436328e-06" pbc="T T T"
Pb       1.61046010       1.13876908       2.78939838      -0.00000109       0.00000367       0.00000050
Pb       4.83138059       3.41630265       8.36819827      -0.00000150       0.00000064       0.00000802
Ca      -0.00000082       0.00000012       0.00000130       0.00000702       0.00000142      -0.00001362
O        1.82600908       1.29118348       5.57879734      -0.00219458      -0.00155210       0.00000100
O        4.61583202       3.26388580       5.57879591       0.00219190       0.00154807      -0.00000365
O        3.91837676       1.29118402       4.37076849       0.00109653      -0.00154707      -0.00189677
O        2.52346391       3.26388574       6.78682585      -0.00110054       0.00155146       0.00190154
O        2.52346520       3.26388576       4.37076804      -0.00109386       0.00154723      -0.00189865
O        3.91837544       1.29118333       6.78682567       0.00109635      -0.00155337       0.00190145
