9
Lattice="5.497377111436109 -1.9636847001210462e-07 3.173912412424094 1.8324588840288603 5.182976634630535 3.1739123569612855 2.4924286463711386e-09 -6.616537759632427e-08 6.3478248205310654" Properties=species:S:1:pos:R:3:forces:R:3 energy=-42.779754638671875 free_energy=-42.779754638671875 stress="2.494395994290244e-05 1.0698206764914175e-08 -5.398997249272952e-09 1.0698206764914175e-08 2.4984903575386852e-05 -1.078789169106642e-09 -5.398997249272952e-09 -1.078789169106642e-09 2.492174826329574e-05" pbc="T T T"
Pb       1.83245917       1.29574398       3.17391232      -0.00000033      -0.00000046       0.00000091
Pb       5.49737708       3.88723205       9.52173751      -0.00000051      -0.00000031      -0.00000011
Cr      -0.00000030      -0.00000064      -0.00000013       0.00000201       0.00000281       0.00000318
S        1.84578734       1.30516873       6.34782495      -0.00042161      -0.00029820       0.00000057
S        5.48404873       3.87780867       6.34782441       0.00041565       0.00029495       0.00000051
S        4.57448349       1.30516907       4.77241085       0.00021118      -0.00029680      -0.00036353
S        2.75535204       3.87780796       7.92323895      -0.00020783       0.00029540       0.00036055
S        2.75535264       3.87780738       4.77241093      -0.00020945       0.00029820      -0.00036454
S        4.57448378       1.30516824       7.92323873       0.00021110      -0.00029588       0.00036234
