9
Lattice="6.19987498148905 -1.5630733934331236e-07 3.57949952807993 2.0666249276096824 5.84529828521513 3.5794993875276346 5.3211133439213243e-08 -1.3451479329710438e-07 7.158998963995505" Properties=species:S:1:pos:R:3:forces:R:3 energy=-31.749927520751953 free_energy=-31.749927520751953 stress="-8.532585343346e-05 -2.212019900582618e-09 6.987864065166605e-09 -2.212019900582618e-09 -8.53263190947473e-05 1.5804910713512754e-09 6.987864065166605e-09 1.5804910713512754e-09 -8.529131446266547e-05" pbc="T T T"
Pb       2.06662463       1.46132501       3.57949964      -0.00000121       0.00000308       0.00000114
Pb       6.19987456       4.38397290      10.73849906      -0.00000295      -0.00000246       0.00000120
Ca      -0.00000067      -0.00000024      -0.00000044       0.00000599       0.00000031       0.00000030
Se       2.29250400       1.62104491       7.15899910      -0.00129727      -0.00091719      -0.00000004
Se       5.97399604       4.22425265       7.15899854       0.00129485       0.00091390      -0.00000178
Se       5.05362351       1.62104547       5.56486598       0.00064968      -0.00091457      -0.00112313
Se       3.21287731       4.22425299       8.75313184      -0.00064842       0.00091700       0.00112318
Se       3.21287713       4.22425293       5.56486625      -0.00064889       0.00091586      -0.00112379
Se       5.05362335       1.62104534       8.75313150       0.00064815      -0.00091597       0.00112288
