9
Lattice="6.26371576985783 -1.5831012233413426e-07 3.616358298900635 2.0879051226679852 5.905488340698131 3.6163582723917034 2.3450985422226862e-07 1.3335679690663537e-07 7.232716191618227" Properties=species:S:1:pos:R:3:forces:R:3 energy=-36.06706619262695 free_energy=-36.06706619262695 stress="-5.5903641623444855e-05 -5.685477688643914e-08 3.6323967833595816e-08 -5.685477688643914e-08 -5.5876422266010195e-05 -4.7024862226408004e-08 3.6323967833595816e-08 -4.7024862226408004e-08 -5.582476296694949e-05" pbc="T T T"
Pb       2.08790572       1.47637281       3.61635720       0.00000132       0.00000245      -0.00000256
Pb       6.26371566       4.42911551      10.84907644      -0.00000051      -0.00000287       0.00000563
Cr       0.00000004      -0.00000057       0.00000039      -0.00000108       0.00000583       0.00000055
Te       2.15504606       1.52384803       7.23271572       0.00052730       0.00037349       0.00000035
Te       6.19657536       4.38164041       7.23271480      -0.00053021      -0.00037404      -0.00000234
Te       5.18619287       1.52384896       5.48268357      -0.00026045       0.00037147       0.00045325
Te       3.16542771       4.38163975       8.98274993       0.00026355      -0.00037549      -0.00045781
Te       3.16542947       4.38163956       5.48268373       0.00026181      -0.00036886       0.00045207
Te       5.18619155       1.52384885       8.98274935      -0.00026175       0.00036806      -0.00044914
