9
Lattice="5.795814815992228 -1.3581447136193328e-07 3.3462152910481593 1.9319380810978595 5.4643465820116965 3.3462153999118134 6.167366869128944e-08 1.7694003591054852e-07 6.6924304752744606" Properties=species:S:1:pos:R:3:forces:R:3 energy=-36.99397659301758 free_energy=-36.99397659301758 stress="-8.418341894866899e-05 -5.3074131756147835e-09 -1.0598861344135457e-08 -5.3074131756147835e-09 -8.41840956127271e-05 1.1155800727635778e-08 -1.0598861344135457e-08 1.1155800727635778e-08 -8.413375326199457e-05" pbc="T T T"
Pb       1.93193760       1.36608479       3.34621527      -0.00000188      -0.00000192      -0.00000040
Pb       5.79581540       4.09826102      10.03864495       0.00000110      -0.00000064      -0.00000115
Co      -0.00000063      -0.00000153      -0.00000044       0.00000282       0.00001111       0.00000101
Se       1.91268316       1.35247080       6.69243113       0.00196332       0.00138751      -0.00000090
Se       5.81506973       4.11187607       6.69243189      -0.00196628      -0.00139091      -0.00000085
Se       4.83947386       1.35247044       5.00264792      -0.00098266       0.00138969       0.00169997
Se       2.88827997       4.11187672       8.38221274       0.00098160      -0.00138976      -0.00170031
Se       2.88827889       4.11187736       5.00264886       0.00098345      -0.00139204       0.00170225
Se       4.83947381       1.35247110       8.38221278      -0.00098138       0.00138694      -0.00169979
