9
Lattice="4.822751525339016 -1.966070928672872e-08 2.7844168639307534 1.6075838269570122 4.546933329788152 2.7844168574985626 -3.770813556307891e-08 -3.45414893788497e-08 5.568833793173916" Properties=species:S:1:pos:R:3:forces:R:3 energy=-50.60511779785156 free_energy=-50.60511779785156 stress="2.587514063634444e-05 5.179357742690627e-08 3.1085527041341265e-08 5.179357742690627e-08 2.5849309167824686e-05 2.497033868564813e-08 3.1085527041341265e-08 2.497033868564813e-08 2.5830480808508582e-05" pbc="T T T"
Pb       1.60758454       1.13673355       2.78441717       0.00000086       0.00000075       0.00000279
Pb       4.82275047       3.41019980       8.35325166      -0.00000210       0.00000024       0.00000365
Cr      -0.00000031      -0.00000014      -0.00000009       0.00000549       0.00000265       0.00000351
O        1.50715946       1.06572242       5.56883340      -0.00092232      -0.00065157       0.00000124
O        4.92317627       3.48121079       5.56883322       0.00091660       0.00064707       0.00000183
O        4.06917151       1.06572296       4.08965488       0.00046307      -0.00065356      -0.00079945
O        2.36116341       3.48121069       7.04801246      -0.00045700       0.00064656       0.00079644
O        2.36116408       3.48121063       4.08965492      -0.00046082       0.00065219      -0.00080070
O        4.06917183       1.06572218       7.04801253       0.00045548      -0.00064448       0.00079137
