9
Lattice="4.460921255268027 -1.057201192547174e-07 2.5755143090034824 1.4869736502369117 4.205796809408423 2.5755143121995165 -3.951508294463636e-08 -2.4027052150484817e-08 5.15102868644913" Properties=species:S:1:pos:R:3:forces:R:3 energy=-47.758628845214844 free_energy=-47.758628845214844 stress="0.00014583015581592917 -4.9181277717025296e-08 -1.4833545947112725e-08 -4.9181277717025296e-08 0.00014563875447493047 -4.406009068702588e-08 -1.4833545947112725e-08 -4.406009068702588e-08 0.0001454905141144991" pbc="T T T"
Pb       1.48697394       1.05144919       2.57551428       0.00000026       0.00000071       0.00000094
Pb       4.46092120       3.15434730       7.72654274       0.00000001      -0.00000058       0.00000085
C        0.00000068       0.00000020      -0.00000658       0.00000614       0.00000171      -0.00010300
O        1.31906014       0.93271629       5.15102869       0.00187075       0.00132251      -0.00000163
O        4.62883413       3.27308023       5.15102871      -0.00187862      -0.00133133      -0.00000093
O        3.80138994       0.93271769       3.71785548      -0.00095242       0.00135136       0.00165296
O        2.14650275       3.27308169       6.58420518       0.00092226      -0.00130343      -0.00159681
O        2.14650462       3.27307927       3.71785563       0.00095254      -0.00134706       0.00164902
O        3.80139185       0.93271474       6.58420517      -0.00091928       0.00130677      -0.00160015
