9
Lattice="4.8047019145920515 2.8386411607431158e-08 2.7739956090991815 1.6015673630822238 4.529916338050656 2.773995554617208 1.2805475944171436e-07 2.3821822288278445e-08 5.547990996401146" Properties=species:S:1:pos:R:3:forces:R:3 energy=-45.80925750732422 free_energy=-45.80925750732422 stress="-0.0004368988156784326 -2.6233581973400533e-09 4.455257496260856e-08 -2.6233581973400533e-09 -0.0004368546069599688 3.751909005700327e-08 4.455257496260856e-08 3.751909005700327e-08 -0.00043694465421140194" pbc="T T T"
Pb       1.60156677       1.13247886       2.77399564      -0.00000119      -0.00000105       0.00000153
Pb       4.80470215       3.39743722       8.32198727       0.00000001      -0.00000081       0.00000305
Co      -0.00000082      -0.00000019       0.00000125      -0.00000467      -0.00000113       0.00000575
O        1.48025809       1.04670056       5.54799099       0.00514334       0.00363630      -0.00000076
O        4.92601167       3.48321579       5.54799054      -0.00513881      -0.00363520      -0.00000221
O        4.06457338       1.04670016       4.05593579      -0.00257000       0.00363511       0.00445205
O        2.34169653       3.48321631       7.04004549       0.00257134      -0.00363481      -0.00445449
O        2.34169651       3.48321654       4.05593617       0.00257099      -0.00363448       0.00445098
O        4.06457330       1.04670027       7.04004561      -0.00257105       0.00363591      -0.00445515
