9
Lattice="5.98665701495866 -1.2310215982253436e-08 3.4563979236079048 1.9955522754533614 5.644274168555683 3.456398012392846 -1.8562581667362846e-07 -2.2518391750524527e-08 6.912796168729104" Properties=species:S:1:pos:R:3:forces:R:3 energy=-28.943023681640625 free_energy=-28.943023681640625 stress="0.00016909420082811266 -3.0854687693704363e-09 1.1460047133482476e-08 -3.0854687693704363e-09 0.0001691696234047413 1.1322506487942974e-08 1.1460047133482476e-08 1.1322506487942974e-08 0.00016911962302401662" pbc="T T T"
Pb       1.99555287       1.41106961       3.45639815       0.00000149       0.00000459       0.00000016
Pb       5.98665687       4.23320464      10.36919415      -0.00000031      -0.00000254       0.00000025
Cd      -0.00000025       0.00000062       0.00000058       0.00000256      -0.00000101      -0.00000559
Se       2.22259879       1.57161529       6.91279630       0.00856334       0.00605674       0.00000030
Se       5.75961072       4.07265865       6.91279629      -0.00856268      -0.00605707       0.00000090
Se       4.87535759       1.57161508       5.38122490      -0.00428319       0.00605808       0.00741705
Se       3.10685153       4.07265842       8.44436659       0.00427965      -0.00605558      -0.00741442
Se       3.10685148       4.07265897       5.38122467       0.00428168      -0.00605866       0.00741673
Se       4.87535684       1.57161526       8.44436677      -0.00428255       0.00605540      -0.00741526
