9
Lattice="4.893437812271476 -2.936034883078395e-09 2.825227606384332 1.6311459751101853 4.61357730464185 2.825227536315048 -1.6606162620896014e-08 -9.755929351491583e-08 5.650455241531375" Properties=species:S:1:pos:R:3:forces:R:3 energy=-53.26255798339844 free_energy=-53.26255798339844 stress="0.00038530732854269445 -3.798443870550727e-08 -9.709174797478681e-09 -3.798443870550727e-08 0.0003853818925563246 1.731649668101909e-08 -9.709174797478681e-09 1.731649668101909e-08 0.000385492283385247" pbc="T T T"
Pb       1.63114624       1.15339439       2.82522748       0.00000076       0.00000089       0.00000091
Pb       4.89343769       3.46018296       8.47568299      -0.00000099      -0.00000044       0.00000089
Cr       0.00000001       0.00000000      -0.00000020       0.00000056       0.00000211       0.00000111
N        1.53532672       1.08563996       5.65045517       0.00308073       0.00217801       0.00000047
N        4.98925716       3.52793706       5.65045494      -0.00308263      -0.00218087       0.00000017
N        4.12577441       1.08564004       4.15485948      -0.00153863       0.00217742       0.00266659
N        2.39880909       3.52793743       7.14605079       0.00153995      -0.00217795      -0.00266981
N        2.39880958       3.52793693       4.15485927       0.00154132      -0.00217712       0.00266731
N        4.12577397       1.08563993       7.14605121      -0.00154108       0.00217766      -0.00266790
