9
Lattice="6.220567238120132 4.372721282669547e-08 3.5914460712388214 2.073522433869595 5.864806747241988 3.591446105990013 1.0113177567856635e-07 1.1407222698822013e-07 7.182891967312288" Properties=species:S:1:pos:R:3:forces:R:3 energy=-29.92978858947754 free_energy=-29.92978858947754 stress="0.00021051346266176552 -5.43111022821563e-09 -6.562931531561844e-09 -5.43111022821563e-09 0.00021047182963229716 -8.365845793889548e-10 -6.562931531561844e-09 -8.365845793889548e-10 0.00021050449868198484" pbc="T T T"
Pb       2.07352285       1.46620098       3.59144576       0.00000112      -0.00000352      -0.00000031
Pb       6.22056685       4.39860653      10.77433752      -0.00000148       0.00000448      -0.00000080
Cu      -0.00000030       0.00000038       0.00000085       0.00000206      -0.00000052      -0.00000402
Te       2.18023291       1.54165553       7.18289188       0.00828862       0.00585815      -0.00000065
Te       6.11385745       4.32315105       7.18289229      -0.00829028      -0.00585923       0.00000002
Te       5.13045091       1.54165549       5.47958291      -0.00414575       0.00585976       0.00717983
Te       3.16363946       4.32315070       8.88620152       0.00414496      -0.00585771      -0.00717649
Te       3.16363862       4.32315095       5.47958232       0.00414558      -0.00585987       0.00717946
Te       5.13045037       1.54165610       8.88620151      -0.00414482       0.00585840      -0.00717703
