9
Lattice="4.765363461949967 9.0816981143564e-08 2.7512837930300016 1.5884545334819091 4.492827712710552 2.7512838613729773 3.129391128825969e-08 1.0583084881807777e-07 5.502567531857376" Properties=species:S:1:pos:R:3:forces:R:3 energy=-47.27619171142578 free_energy=-47.27619171142578 stress="-0.0001234363007824868 4.715273860256275e-08 3.66206123203483e-08 4.715273860256275e-08 -0.00012343411799520254 -1.723172182721555e-08 3.66206123203483e-08 -1.723172182721555e-08 -0.0001234549708897248" pbc="T T T"
Pb       1.58845453       1.12320673       2.75128386      -0.00000076       0.00000049       0.00000126
Pb       4.76536366       3.36962097       8.25385179       0.00000012       0.00000010       0.00000297
Fe       0.00000015       0.00000062       0.00000076      -0.00000150      -0.00000970      -0.00001298
O        1.46336930       1.03475837       5.50256758      -0.00139599      -0.00098616       0.00000202
O        4.89044861       3.45806895       5.50256701       0.00139898       0.00099076       0.00000082
O        4.03367917       1.03475831       4.01859843       0.00069591      -0.00098468      -0.00120503
O        2.32013871       3.45806979       6.98653666      -0.00069584       0.00098680       0.00120746
O        2.32013917       3.45806958       4.01859855      -0.00069871       0.00098777      -0.00120761
O        4.03367906       1.03475827       6.98653612       0.00069782      -0.00098555       0.00121105
