9
Lattice="4.836834302303597 -4.494756413184768e-08 2.792547580961205 1.6122781074744725 4.560210836690105 2.792547495945961 6.484601983298172e-08 -5.8268924165279394e-08 5.5850950496058855" Properties=species:S:1:pos:R:3:forces:R:3 energy=-51.02399826049805 free_energy=-51.02399826049805 stress="-0.00022963107039686292 -4.0330558448431475e-08 -4.2993988813577744e-08 -4.0330558448431475e-08 -0.00022960148635320365 -1.4914869339577308e-08 -4.2993988813577744e-08 -1.4914869339577308e-08 -0.0002295018348377198" pbc="T T T"
Pb       1.61227854       1.14005243       2.79254738      -0.00000015      -0.00000049       0.00000022
Pb       4.83683454       3.42015806       8.37764250       0.00000101       0.00000028      -0.00000065
Fe      -0.00000029       0.00000043      -0.00000011      -0.00000319       0.00000385      -0.00000067
N        1.52820534       1.08060410       5.58509529      -0.00154245      -0.00109202       0.00000103
N        4.92090697       3.47960673       5.58509534       0.00154281       0.00109118      -0.00000000
N        4.07273148       1.08060420       4.11601198       0.00077277      -0.00109273      -0.00133842
N        2.37638080       3.47960639       7.05417778      -0.00077158       0.00109172       0.00133705
N        2.37638050       3.47960661       4.11601244      -0.00077078       0.00109005      -0.00133538
N        4.07273198       1.08060399       7.05417804       0.00077149      -0.00109142       0.00133657
