9
Lattice="5.5523260795411655 1.446729932557919e-07 3.2056366370158242 1.850775427958776 5.234782825112081 3.2056367552927245 -5.6558078673477075e-08 1.0486646038004109e-07 6.411273371993065" Properties=species:S:1:pos:R:3:forces:R:3 energy=-41.59259796142578 free_energy=-41.59259796142578 stress="-9.592503192834556e-05 1.5052430413220463e-08 -2.5674115278206955e-08 1.5052430413220463e-08 -9.596073505235836e-05 6.2958221747067e-08 -2.5674115278206955e-08 6.2958221747067e-08 -9.597769530955702e-05" pbc="T T T"
Pb       1.85077538       1.30869609       3.20563647      -0.00000033      -0.00000011      -0.00000077
Pb       5.55232588       3.92608731       9.61691036      -0.00000018      -0.00000037      -0.00000009
Fe      -0.00000003      -0.00000017       0.00000026      -0.00000206      -0.00000146      -0.00000467
S        1.78914116       1.26511356       6.41127356       0.00102991       0.00072753       0.00000024
S        5.61395995       3.96966942       6.41127346      -0.00102496      -0.00072709       0.00000017
S        4.65775594       1.26511425       4.75507818      -0.00051415       0.00072852       0.00089207
S        2.74534620       3.96966891       8.06746773       0.00051224      -0.00072563      -0.00088677
S        2.74534592       3.96966922       4.75507823       0.00051540      -0.00073051       0.00089371
S        4.65775535       1.26511332       8.06746883      -0.00051585       0.00072950      -0.00089386
