9
Lattice="5.877679443057774 -4.5190140722869466e-08 3.3934796586235447 1.9592264326398938 5.541529507380426 3.3934796686238697 -7.230736057774129e-08 -3.8881187620815275e-08 6.786959442487133" Properties=species:S:1:pos:R:3:forces:R:3 energy=-39.04351806640625 free_energy=-39.04351806640625 stress="2.3950089598656632e-05 -2.9928433065151694e-08 -2.466224913177939e-08 -2.9928433065151694e-08 2.40336903516436e-05 2.1424235718825457e-09 -2.466224913177939e-08 2.1424235718825457e-09 2.398289507254958e-05" pbc="T T T"
Pb       1.95922644       1.38538234       3.39347957      -0.00000057       0.00000100       0.00000004
Pb       5.87767953       4.15614751      10.18043928      -0.00000045      -0.00000028       0.00000002
Fe      -0.00000014       0.00000013       0.00000010       0.00000073      -0.00000129       0.00000045
Se       1.87724275       1.32741081       6.78695945      -0.00205222      -0.00145063      -0.00000056
Se       5.95966342       4.21411852       6.78695938       0.00205210       0.00145121       0.00000057
Se       4.93905775       1.32741106       5.01921980       0.00102790      -0.00145389      -0.00178146
Se       2.89784763       4.21411797       8.55469895      -0.00102712       0.00145452       0.00178070
Se       2.89784807       4.21411828       5.01921961      -0.00102749       0.00145140      -0.00177848
Se       4.93905782       1.32741104       8.55469887       0.00102709      -0.00145195       0.00177874
