9
Lattice="4.865979474506773 -5.35510783063807e-09 2.809374189159534 1.6219931720508112 4.5876888598022845 2.809374156370563 -2.493588412558789e-08 -5.779046968444442e-08 5.618748421509335" Properties=species:S:1:pos:R:3:forces:R:3 energy=-44.827674865722656 free_energy=-44.827674865722656 stress="-5.0012313295155764e-05 2.9663551615044526e-08 -3.8209378772080527e-08 2.9663551615044526e-08 -4.995170820620842e-05 -4.258855312855303e-08 -3.8209378772080527e-08 -4.258855312855303e-08 -4.988606087863445e-05" pbc="T T T"
Pb       1.62199352       1.14692198       2.80937417       0.00000111      -0.00000020      -0.00000064
Pb       4.86597900       3.44076699       8.42812250      -0.00000219       0.00000264       0.00000015
Ge      -0.00000018       0.00000023      -0.00000018       0.00000045      -0.00000100       0.00000116
N        1.63458416       1.15582461       5.61874836      -0.00108039      -0.00076741       0.00000036
N        4.85338876       3.43186430       5.61874829       0.00108278       0.00076854      -0.00000123
N        4.04868752       1.15582478       4.22496554       0.00053996      -0.00076562      -0.00093520
N        2.43928489       3.43186373       7.01253165      -0.00054085       0.00076467       0.00093699
N        2.43928518       3.43186358       4.22496464      -0.00053906       0.00076449      -0.00093830
N        4.04868754       1.15582509       7.01253168       0.00053871      -0.00076592       0.00093722
