9
Lattice="4.903271763650537 7.481277060279221e-08 2.8309056299227198 1.6344239699014997 4.6228487060656 2.8309056677672944 2.0120276850782176e-08 6.057704820507813e-08 5.661811224996235" Properties=species:S:1:pos:R:3:forces:R:3 energy=-46.37006759643555 free_energy=-46.37006759643555 stress="-0.0001850934058893472 1.8329964282526312e-11 -4.559135646786672e-08 1.8329964282526312e-11 -0.00018514363910071552 2.5258843905362482e-08 -4.559135646786672e-08 2.5258843905362482e-08 -0.00018517170974519104" pbc="T T T"
Pb       1.63442359       1.15571283       2.83090583      -0.00000102       0.00000215       0.00000053
Pb       4.90327240       3.46713695       8.49271754       0.00000319      -0.00000077       0.00000322
Ge      -0.00000025       0.00000072      -0.00000014       0.00000685      -0.00001068       0.00000057
O        1.55075016       1.09654751       5.66181147       0.00297403       0.00210690      -0.00000034
O        4.98694544       3.52630141       5.66181124      -0.00297284      -0.00210881      -0.00000001
O        4.12789655       1.09654664       4.17389370      -0.00149095       0.00210750       0.00257981
O        2.40979925       3.52630209       7.14972679       0.00148511      -0.00210214      -0.00257373
O        2.40979938       3.52630314       4.17389600       0.00148708      -0.00209975       0.00257576
O        4.12789680       1.09654517       7.14972766      -0.00149035       0.00210524      -0.00258613
