9
Lattice="5.689018356518881 -2.467197641024982e-08 3.2845560487782506 1.896339416905879 5.363657951279488 3.2845560695735103 -2.7021496756236333e-08 6.361741609235788e-09 6.569112144359147" Properties=species:S:1:pos:R:3:forces:R:3 energy=-36.57566452026367 free_energy=-36.57566452026367 stress="9.459426109970082e-06 -7.367663101831567e-08 2.118790654037639e-08 -7.367663101831567e-08 9.47689295571763e-06 -2.5490392019378305e-08 2.118790654037639e-08 -2.5490392019378305e-08 9.491332093602978e-06" pbc="T T T"
Pb       1.89633986       1.34091413       3.28455623      -0.00000041       0.00000002       0.00000065
Pb       5.68901854       4.02274312       9.85366847       0.00000009      -0.00000123       0.00000183
Ge       0.00000015       0.00000008      -0.00000036      -0.00000354      -0.00000072       0.00000419
S        1.90770928       1.34895470       6.56911210       0.00028819       0.00020456       0.00000012
S        5.67764787       4.01470340       6.56911203      -0.00028330      -0.00019994      -0.00000071
S        4.73516336       1.34895490       4.93668111      -0.00014207       0.00019896       0.00024450
S        2.85019402       4.01470363       8.20154314       0.00014246      -0.00020325      -0.00024915
S        2.85019462       4.01470320       4.93668125       0.00014141      -0.00019932       0.00024480
S        4.73516329       1.34895459       8.20154315      -0.00014287       0.00020099      -0.00024557
