9
Lattice="6.400192276105193 4.336520813585399e-08 3.6951526932788794 2.133397471795838 6.034159124835027 3.695152683679324 1.1357029792492848e-07 6.85493382037788e-08 7.390305189848193" Properties=species:S:1:pos:R:3:forces:R:3 energy=-30.280012130737305 free_energy=-30.280012130737305 stress="-0.0002718547184485942 1.1461245286170652e-08 -1.891205636539439e-09 1.1461245286170652e-08 -0.00027185704675503075 -4.567754174900074e-09 -1.891205636539439e-09 -4.567754174900074e-09 -0.0002718663599807769" pbc="T T T"
Pb       2.13339769       1.50853920       3.69515244       0.00000066      -0.00000143      -0.00000062
Pb       6.40019334       4.52561945      11.08545740       0.00000196      -0.00000002      -0.00000072
Ge      -0.00000034      -0.00000045       0.00000040       0.00000044       0.00000107      -0.00000064
Te       2.28821219       1.61801096       7.39030538       0.00287753       0.00203554       0.00000048
Te       6.24537773       4.41614894       7.39030572      -0.00288031      -0.00203602      -0.00000008
Te       5.25608630       1.61800990       5.67680235      -0.00143984       0.00203651       0.00249442
Te       3.27750337       4.41614922       9.10380803       0.00143906      -0.00203481      -0.00249387
Te       3.27750293       4.41614936       5.67680223       0.00143992      -0.00203583       0.00249438
Te       5.25608629       1.61801036       9.10380826      -0.00143952       0.00203505      -0.00249343
