9
Lattice="5.913193641984865 -6.008337532184778e-08 3.413983888687208 1.9710644857843715 5.575012309129497 3.413983897168743 -4.584318559363555e-09 7.1461140557853706e-09 6.827967785314723" Properties=species:S:1:pos:R:3:forces:R:3 energy=-34.05759048461914 free_energy=-34.05759048461914 stress="-2.0647281417041086e-05 1.4002792703138311e-08 -2.4754784888614267e-08 1.4002792703138311e-08 -2.070645678031724e-05 -2.1063511823626868e-08 -2.4754784888614267e-08 -2.1063511823626868e-08 -2.0630885046557523e-05" pbc="T T T"
Pb       1.97106494       1.39375322       3.41398364       0.00000005      -0.00000132       0.00000219
Pb       5.91319344       4.18125923      10.24195249       0.00000043      -0.00000017      -0.00000267
Ge       0.00000018      -0.00000006      -0.00000017      -0.00000036       0.00000043       0.00000452
Se       2.03023027       1.43558934       6.82796786       0.00222313       0.00157233       0.00000196
Se       5.85402787       4.13942291       6.82796741      -0.00222225      -0.00157102      -0.00000029
Se       4.89807840       1.43558974       5.17221470      -0.00111150       0.00157204       0.00192396
Se       2.98617940       4.13942260       8.48372088       0.00111269      -0.00157481      -0.00192656
Se       2.98617979       4.13942281       5.17221476       0.00111113      -0.00157120       0.00192381
Se       4.89807826       1.43558921       8.48372083      -0.00111337       0.00157367      -0.00192705
