9
Lattice="6.4831364934969935 1.2239320554057116e-06 3.7430421117012926 2.1610469540486186 6.112360547987624 3.743041588133266 2.8878502956430595e-07 -4.370354204946292e-07 7.486083723212249" Properties=species:S:1:pos:R:3:forces:R:3 energy=-25.57977294921875 free_energy=-25.57977294921875 stress="-8.844315743772313e-05 1.136466254436641e-09 -3.135421522415527e-08 1.136466254436641e-09 -8.849768346408382e-05 -2.288659750604438e-08 -3.135421522415527e-08 -2.288659750604438e-08 -8.847495337249711e-05" pbc="T T T"
Pb       2.16104406       1.52808996       3.74304443      -0.00000606      -0.00000363       0.00000845
Pb       6.48313775       4.58427726      11.22912236       0.00000007       0.00001670      -0.00001281
Hg       0.00000039      -0.00000192      -0.00000412      -0.00000518       0.00000809       0.00001835
Te       2.39076027       1.69051963       7.48608350       0.00742954       0.00524719      -0.00000234
Te       6.25342498       4.42183832       7.48608690      -0.00742650      -0.00524965       0.00000886
Te       5.28775527       1.69051991       5.81350258      -0.00371385       0.00523445       0.00642623
Te       3.35642710       4.42184295       9.15866797       0.00372422      -0.00525264      -0.00644472
Te       3.35642505       4.42183861       5.81349996       0.00370960      -0.00525017       0.00643320
Te       5.28775981       1.69052074       9.15866619      -0.00371192       0.00524969      -0.00643514
