9
Lattice="5.99926476801525 1.6252597268042836e-07 3.463677224536298 1.9997550941826059 5.656161006081564 3.4636771928745222 2.460696039723663e-08 -2.1377811416104026e-08 6.927354406452023" Properties=species:S:1:pos:R:3:forces:R:3 energy=-28.158939361572266 free_energy=-28.158939361572266 stress="2.1249712517601438e-05 4.069239523118995e-08 -1.086677947625958e-08 4.069239523118995e-08 2.1219244445092045e-05 -9.56701029508622e-09 -1.086677947625958e-08 -9.56701029508622e-09 2.1203910364420153e-05" pbc="T T T"
Pb       1.99975492       1.41404020       3.46367779      -0.00000006      -0.00000057       0.00000152
Pb       5.99926491       4.24212111      10.39103131      -0.00000044       0.00000099      -0.00000069
Hg      -0.00000002      -0.00000003      -0.00000061       0.00000128       0.00000051       0.00000637
Se       2.22909057       1.57620500       6.92735395      -0.00027710      -0.00019631      -0.00000101
Se       5.76992947       4.07995591       6.92735448       0.00027719       0.00019574       0.00000010
Se       4.88471946       1.57620437       5.39412553       0.00013858      -0.00019857      -0.00024197
Se       3.11430012       4.07995709       8.46058339      -0.00013705       0.00019510       0.00023907
Se       3.11429993       4.07995659       5.39412578      -0.00013991       0.00019749      -0.00024147
Se       4.88472023       1.57620435       8.46058363       0.00013741      -0.00019424       0.00023812
