9
Lattice="5.734434329557833 -7.55471074552599e-08 3.310777027428059 1.9114781136819707 5.406476476685956 3.3107768974275604 -6.535994659480279e-08 -2.0543396761071745e-07 6.6215541680629055" Properties=species:S:1:pos:R:3:forces:R:3 energy=-29.307559967041016 free_energy=-29.307559967041016 stress="0.00014938943786546588 -2.705724533313969e-08 -1.799463156260117e-08 -2.705724533313969e-08 0.00014938805543351918 1.4445469709301051e-08 -1.799463156260117e-08 1.4445469709301051e-08 0.00014943901624064893" pbc="T T T"
Pb       1.91147853       1.35161942       3.31077612       0.00000140       0.00000021      -0.00000182
Pb       5.73443368       4.05485694       9.93232982      -0.00000165       0.00000021      -0.00000211
Hg      -0.00000098      -0.00000061       0.00000099       0.00000938       0.00000538      -0.00000973
S        2.07559105       1.46766406       6.62155510       0.00651255       0.00460497       0.00000138
S        5.57032202       3.93881308       6.62155511      -0.00652158      -0.00461030       0.00000161
S        4.69663861       1.46766402       5.10829158      -0.00326142       0.00461000       0.00564709
S        2.94927406       3.93881127       8.13481639       0.00325650      -0.00460547      -0.00564128
S        2.94927416       3.93881173       5.10829056       0.00326163      -0.00461245       0.00564447
S        4.69663842       1.46766484       8.13481665      -0.00325660       0.00460741      -0.00563979
