9
Lattice="4.979515360275778 -6.249067416660794e-08 2.874924719561489 1.6598384247283933 4.694732094075475 2.874924667219077 2.9316904075487286e-09 -6.203309447679229e-08 5.749849434045162" Properties=species:S:1:pos:R:3:forces:R:3 energy=-51.875152587890625 free_energy=-51.875152587890625 stress="-4.765913956816803e-07 2.4085005989604724e-08 -1.8266996804072733e-08 2.4085005989604724e-08 -5.564697858062573e-07 -1.7833345467010986e-08 -1.8266996804072733e-08 -1.7833345467010986e-08 -6.115622568358958e-07" pbc="T T T"
Pb       1.65983840       1.17368307       2.87492426       0.00000282       0.00000013      -0.00000128
Pb       4.97951559       3.52104847       8.62477454      -0.00000026      -0.00000347       0.00000173
Hf       0.00000027      -0.00000021      -0.00000016      -0.00000233      -0.00000021       0.00000040
N        1.75676011       1.24221730       5.74984981      -0.00006741      -0.00004569       0.00000184
N        4.88259276       3.45251505       5.74984986       0.00006786       0.00004873      -0.00000167
N        4.10113522       1.24221765       4.39632343       0.00003476      -0.00004396      -0.00005847
N        2.53821848       3.45251448       7.10337510      -0.00003560       0.00004572       0.00005791
N        2.53821900       3.45251462       4.39632354      -0.00003253       0.00004637      -0.00005838
N        4.10113541       1.24221736       7.10337479       0.00003259      -0.00004776       0.00005749
