9
Lattice="4.992201762752742 -3.156596466638698e-08 2.8822493022676388 1.6640672428701502 4.706692855354587 2.882249270432636 6.952388067077321e-08 1.0171107545973848e-08 5.764498484116414" Properties=species:S:1:pos:R:3:forces:R:3 energy=-36.114662170410156 free_energy=-36.114662170410156 stress="9.856528049567714e-05 2.255804965045627e-08 3.570131967833845e-09 2.255804965045627e-08 9.858158591669053e-05 5.060566010683942e-08 3.570131967833845e-09 5.060566010683942e-08 9.847495675785467e-05" pbc="T T T"
Pb       1.66406688       1.17667350       2.88224905      -0.00000323      -0.00000042      -0.00000165
Pb       4.99220199       3.53001957       8.64674801      -0.00000054       0.00000071      -0.00000027
Hg      -0.00000018      -0.00000026      -0.00000028      -0.00000299       0.00000332       0.00001454
O        1.67564992       1.18486284       5.76449862      -0.00673038      -0.00476027      -0.00000008
O        4.98061894       3.52182942       5.76449863       0.00673550       0.00476089       0.00000131
O        4.15437704       1.18486374       4.33340500       0.00337002      -0.00476465      -0.00583518
O        2.50189218       3.52182944       7.19559198      -0.00336540       0.00475666       0.00582796
O        2.50189244       3.52182956       4.33340496      -0.00336847       0.00476184      -0.00583410
O        4.15437701       1.18486340       7.19559219       0.00336537      -0.00475839       0.00582707
