9
Lattice="4.952034178031676 -3.112145856078106e-08 2.8590584086064585 1.6506780949936208 4.668822261496988 2.8590582960381625 1.4366014382350583e-07 -3.628435310408384e-08 5.718116568386156" Properties=species:S:1:pos:R:3:forces:R:3 energy=-50.6256217956543 free_energy=-50.6256217956543 stress="7.971254672156647e-05 -9.413019697035452e-09 -1.9706847709244357e-08 -9.413019697035452e-09 7.986729906406254e-05 5.2223668944861856e-08 -1.9706847709244357e-08 5.2223668944861856e-08 7.999779336387292e-05" pbc="T T T"
Pb       1.65067849       1.16720612       2.85905831       0.00000225       0.00000472       0.00000083
Pb       4.95203399       3.50161775       8.57717486      -0.00000045       0.00000311       0.00000079
Ir       0.00000003       0.00000036      -0.00000007       0.00000327      -0.00000243       0.00000044
N        1.62370547       1.14813219       5.71811646      -0.00582886      -0.00412536      -0.00000083
N        4.97900771       3.52068939       5.71811646       0.00583029       0.00412214      -0.00000065
N        4.14018119       1.14813257       4.26522824       0.00291425      -0.00412691      -0.00505102
N        2.46253063       3.52068885       7.17100548      -0.00291795       0.00412560       0.00505447
N        2.46253051       3.52068876       4.26522774      -0.00291663       0.00412285      -0.00505280
N        4.14018175       1.14813268       7.17100584       0.00291300      -0.00412309       0.00504720
