9
Lattice="4.793093184820434 -1.2186222645861988e-07 2.7672935299231516 1.5976975508502116 4.518971071784272 2.767293638228947 -2.3823029209691553e-07 -3.580711882945259e-08 5.534587472473142" Properties=species:S:1:pos:R:3:forces:R:3 energy=-41.25605010986328 free_energy=-41.25605010986328 stress="5.107802644488402e-05 -4.1624556246233624e-08 3.1327246574619494e-08 -4.1624556246233624e-08 5.091523053124547e-05 5.005539094327105e-08 3.1327246574619494e-08 5.005539094327105e-08 5.0993694458156824e-05" pbc="T T T"
Pb       1.59769411       1.12974456       2.76729339      -0.00000947       0.00000019       0.00000219
Pb       4.79309228       3.38922658       8.30187938      -0.00000675      -0.00000462      -0.00000731
In      -0.00000163      -0.00000173       0.00000125       0.00001112       0.00001881      -0.00001557
O        1.76454808       1.24772372       5.53458762       0.00355059       0.00251222       0.00000016
O        4.62624497       3.27124718       5.53458864      -0.00356132      -0.00252068       0.00000023
O        3.91081994       1.24772341       4.29543664      -0.00177658       0.00251871       0.00308019
O        2.47997266       3.27124648       6.77373919       0.00177950      -0.00251544      -0.00307542
O        2.47997030       3.27124801       4.29543665       0.00178075      -0.00252002       0.00308889
O        3.91082146       1.24772512       6.77373701      -0.00176737       0.00251067      -0.00307405
