9
Lattice="5.768311179237552 -2.139375417725931e-07 3.3303357952817727 1.922770200561658 5.438415530212847 3.330335779373277 -3.0420921744732314e-07 -2.3459220010424662e-07 6.660672117469349" Properties=species:S:1:pos:R:3:forces:R:3 energy=-33.47772216796875 free_energy=-33.47772216796875 stress="4.3305757571943104e-05 -6.423638865271641e-08 -2.8085494818697043e-08 -6.423638865271641e-08 4.335248377174139e-05 8.566203746340761e-09 -2.8085494818697043e-08 8.566203746340761e-09 4.336372876423411e-05" pbc="T T T"
Pb       1.92277005       1.35960426       3.33033631      -0.00000141      -0.00000001      -0.00000075
Pb       5.76831076       4.07881081       9.99100733      -0.00000069      -0.00000311       0.00000157
In      -0.00000008      -0.00000001       0.00000083       0.00000085      -0.00000049      -0.00001090
S        2.08860478       1.47686620       6.66067217      -0.00225893      -0.00159633      -0.00000120
S        5.60247639       3.96154867       6.66067143       0.00226080       0.00159717       0.00000009
S        4.72400892       1.47686713       5.13912063       0.00112842      -0.00159532      -0.00195530
S        2.96707270       3.96154770       8.18222262      -0.00113179       0.00160241       0.00196174
S        2.96707292       3.96154849       5.13912084      -0.00112972       0.00159597      -0.00195605
S        4.72400785       1.47686709       8.18222242       0.00113271      -0.00160003       0.00196093
