9
Lattice="6.088695410378311 -1.3614728241002603e-08 3.5153099364735403 2.029565122450853 5.740477061163089 3.5153099390816624 -9.395262398630761e-09 -3.4491381133136384e-09 7.03061988922016" Properties=species:S:1:pos:R:3:forces:R:3 energy=-31.732507705688477 free_energy=-31.732507705688477 stress="-0.0001265472819795832 7.119158040858053e-11 3.946449833591714e-10 7.119158040858053e-11 -0.00012658220657613128 -7.852157146714944e-09 3.946449833591714e-10 -7.852157146714944e-09 -0.00012658003834076226" pbc="T T T"
Pb       2.02956531       1.43511898       3.51531000       0.00000007       0.00000194       0.00000246
Pb       6.08869544       4.30535740      10.54592906       0.00000122       0.00000107      -0.00000137
In      -0.00000003      -0.00000011      -0.00000022       0.00000011       0.00000073       0.00000028
Se       2.20662967       1.56032305       7.03061981       0.00163595       0.00115645      -0.00000056
Se       5.91163079       4.18015431       7.03062015      -0.00163697      -0.00115670       0.00000133
Se       4.98538037       1.56032304       5.42630763      -0.00081760       0.00115426       0.00141509
Se       3.13288019       4.18015438       8.63493251       0.00081902      -0.00115757      -0.00141761
Se       3.13287979       4.18015407       5.42630750       0.00081655      -0.00115734       0.00141692
Se       4.98538059       1.56032297       8.63493263      -0.00081841       0.00115716      -0.00141670
