9
Lattice="6.5350105843062725 7.925331169955106e-08 3.772989925665244 2.1783370084269276 6.161266492672669 3.772989800488577 1.4559069914787193e-07 -5.0361323190959095e-08 7.545979599160012" Properties=species:S:1:pos:R:3:forces:R:3 energy=-28.8552188873291 free_energy=-28.8552188873291 stress="-2.2796233167809987e-07 -3.3324605297480048e-09 -1.3413219424052159e-09 -3.3324605297480048e-09 -2.1311878128926764e-07 -5.869384533951916e-09 -1.3413219424052159e-09 -5.869384533951916e-09 -2.2859377679651516e-07" pbc="T T T"
Pb       2.17833798       1.54031623       3.77298915       0.00000439      -0.00000099      -0.00000280
Pb       6.53500918       4.62094902      11.31896718      -0.00000670      -0.00000393      -0.00000885
In      -0.00000010      -0.00000001       0.00000031      -0.00000384      -0.00000203      -0.00000529
Te       2.37045163       1.67616172       7.54597996      -0.00102058      -0.00072281      -0.00000062
Te       6.34289522       4.48510475       7.54598129       0.00102779       0.00072964       0.00000178
Te       5.34978516       1.67616266       5.82586109       0.00050911      -0.00072090      -0.00088477
Te       3.36356473       4.48510295       9.26609890      -0.00051238       0.00072622       0.00089163
Te       3.36356279       4.48510416       5.82586085      -0.00051086       0.00072058      -0.00088458
Te       5.34978437       1.67616454       9.26609868       0.00051308      -0.00072575       0.00089352
