9
Lattice="6.218743971537749 -1.1795262401551846e-07 3.590393196051312 2.0729145032445357 5.863087990909547 3.5903932700581143 -1.6071573916730452e-07 -2.3003700689577545e-08 7.180786670470483" Properties=species:S:1:pos:R:3:forces:R:3 energy=-35.810665130615234 free_energy=-35.810665130615234 stress="4.7633348003728315e-05 1.7169165644759232e-08 2.5510120682525894e-09 1.7169165644759232e-08 4.761144737130962e-05 2.760331685447426e-10 2.5510120682525894e-09 2.760331685447426e-10 4.759541116072796e-05" pbc="T T T"
Pb       2.07291476       1.46577032       3.59039309       0.00000115      -0.00000460      -0.00000028
Pb       6.21874261       4.39731558      10.77117941      -0.00000241      -0.00000057      -0.00000080
Mn       0.00000033      -0.00000009      -0.00000012      -0.00000273      -0.00000147      -0.00000002
Te       2.06434324       1.45971104       7.18078630       0.00003164       0.00002258      -0.00000023
Te       6.22731382       4.40337739       7.18078626      -0.00003038      -0.00001919      -0.00000009
Te       5.18657231       1.45971076       5.37816731      -0.00001532       0.00002179       0.00002785
Te       3.10508738       4.40337756       8.98340650       0.00001762      -0.00002071      -0.00002766
Te       3.10508716       4.40337752       5.37816705       0.00001703      -0.00002091       0.00002810
Te       5.18657162       1.45971136       8.98340673      -0.00001654       0.00002319      -0.00002673
