9
Lattice="4.846859071870077 -1.1174116320523497e-07 2.7983354278588335 1.6156196277870216 4.569662455475872 2.7983353542220244 1.0876879353312813e-07 -1.3275171239473029e-08 5.596670667324582" Properties=species:S:1:pos:R:3:forces:R:3 energy=-53.10366439819336 free_energy=-53.10366439819336 stress="0.00027636956656351686 -2.477658078703371e-08 6.593026569134963e-09 -2.477658078703371e-08 0.0002764481178019196 -9.498696940113405e-09 6.593026569134963e-09 -9.498696940113405e-09 0.00027647617389447987" pbc="T T T"
Pb       1.61561958       1.14241584       2.79833591      -0.00000080       0.00000152       0.00000147
Pb       4.84685916       3.42724720       8.39500706      -0.00000052       0.00000060       0.00000102
Mn      -0.00000021       0.00000024       0.00000015      -0.00000273       0.00000196       0.00000306
N        1.51575584       1.07180027       5.59667028      -0.00578767      -0.00409499      -0.00000160
N        4.94672346       3.49786142       5.59666996       0.00579083       0.00409311      -0.00000296
N        4.08898140       1.07180076       4.11101799       0.00289595      -0.00409368      -0.00501385
N        2.37349729       3.49786142       7.08232331      -0.00289533       0.00409243       0.00501418
N        2.37349725       3.49786129       4.11101760      -0.00289494       0.00409323      -0.00501487
N        4.08898146       1.07180071       7.08232330       0.00289521      -0.00409439       0.00501332
