9
Lattice="4.976103751407921 -6.790726856290944e-08 2.872954769973828 1.6587012334762767 4.691515719750372 2.8729546885145285 3.178362364491237e-08 -7.729245326470018e-08 5.745909484896794" Properties=species:S:1:pos:R:3:forces:R:3 energy=-55.13021469116211 free_energy=-55.13021469116211 stress="0.00036211084807291627 3.6982797269047296e-08 4.038643552917165e-08 3.6982797269047296e-08 0.0003620487987063825 -2.3897866796573908e-08 4.038643552917165e-08 -2.3897866796573908e-08 0.000361970451194793" pbc="T T T"
Pb       1.65870141       1.17287884       2.87295448       0.00000041      -0.00000009      -0.00000222
Pb       4.97610380       3.51863664       8.61886416      -0.00000023       0.00000104      -0.00000137
Mo       0.00000017       0.00000017      -0.00000043       0.00000089      -0.00000365       0.00000422
N        1.63181850       1.15386948       5.74590953       0.00222969       0.00157678       0.00000039
N        5.00298654       3.53764614       5.74590953      -0.00222874      -0.00157654       0.00000140
N        4.16019486       1.15386955       4.28615082      -0.00111532       0.00157726       0.00193322
N        2.47461025       3.53764614       7.20566831       0.00111687      -0.00157988      -0.00193226
N        2.47461034       3.53764601       4.28615074       0.00111294      -0.00157475       0.00192976
N        4.16019450       1.15386945       7.20566828      -0.00111735       0.00157940      -0.00193250
