9
Lattice="5.985056171405985 5.3208705622846526e-08 3.4554738312138493 1.9950188299171876 5.642764727721609 3.4554737343063477 1.6966599501294622e-08 -1.0668973666897178e-07 6.910947633040606" Properties=species:S:1:pos:R:3:forces:R:3 energy=-30.628196716308594 free_energy=-30.628196716308594 stress="0.00017109666077885777 -3.0718524612893816e-08 -2.0048743110123723e-08 -3.0718524612893816e-08 0.00017112282512243837 -1.1181381154301562e-08 -2.0048743110123723e-08 -1.1181381154301562e-08 0.00017105638107750565" pbc="T T T"
Pb       1.99501873       1.41069158       3.45547332       0.00000016       0.00000146      -0.00000004
Pb       5.98505523       4.23207261      10.36642119      -0.00000090      -0.00000116       0.00000053
Mg       0.00000066       0.00000023      -0.00000029      -0.00000460      -0.00000096       0.00000017
Se       2.14392113       1.51598123       6.91094798       0.00142582       0.00100938       0.00000059
Se       5.83615341       4.12678339       6.91094795      -0.00142256      -0.00100642      -0.00000003
Se       4.91309582       1.51598187       5.31216386      -0.00071158       0.00100634       0.00123233
Se       3.06697969       4.12678313       8.50973192       0.00071340      -0.00100838      -0.00123326
Se       3.06697980       4.12678318       5.31216331       0.00071185      -0.00100821       0.00123324
Se       4.91309559       1.51598147       8.50973153      -0.00071162       0.00100788      -0.00123352
