9
Lattice="4.60963435901327 1.0288837744848874e-07 2.661374429804013 1.5365448263375654 4.346006069742502 2.66137452853816 3.7382068905767014e-07 3.8525542066550935e-07 5.3227482121314855" Properties=species:S:1:pos:R:3:forces:R:3 energy=-41.86323547363281 free_energy=-41.86323547363281 stress="-0.0003049301740247756 -1.8876910701237648e-07 4.3589228226892374e-08 -1.8876910701237648e-07 -0.00030471108038909733 7.066764595720088e-08 4.3589228226892374e-08 7.066764595720088e-08 -0.00030474801314994693" pbc="T T T"
Pb       1.53654209       1.08649920       2.66137526      -0.00000472      -0.00000638       0.00000331
Pb       4.60963424       3.25950449       7.98412384      -0.00000463      -0.00000536       0.00000526
Mg      -0.00000078      -0.00000159       0.00000158       0.00000521       0.00001567      -0.00001478
O        1.65454832       1.16994189       5.32274889       0.00368732       0.00260475      -0.00000345
O        4.49163155       3.17606683       5.32274831      -0.00369143      -0.00260550       0.00000077
O        3.78236256       1.16994311       4.09425522      -0.00184005       0.00260895       0.00319070
O        2.36381887       3.17606409       6.55124077       0.00184052      -0.00260529      -0.00318781
O        2.36381939       3.17606501       4.09425493       0.00184196      -0.00261104       0.00319287
O        3.78236196       1.16994303       6.55124016      -0.00183375       0.00260401      -0.00318658
