9
Lattice="4.740805102445493 -9.720620619100756e-09 2.737105271469841 1.5802682782263553 4.469674112348338 2.737105410191188 4.430817455139386e-07 4.832043208042778e-07 5.474209775499565" Properties=species:S:1:pos:R:3:forces:R:3 energy=-50.21356964111328 free_energy=-50.21356964111328 stress="0.00020015904738102108 -3.5351840210751106e-07 1.3709089330404822e-07 -3.5351840210751106e-07 0.00020034801855217665 7.363509268998314e-08 1.3709089330404822e-07 7.363509268998314e-08 0.00020031590247526765" pbc="T T T"
Pb       1.58026864       1.11741898       2.73710471      -0.00000105      -0.00000035      -0.00000117
Pb       4.74080497       3.35225532       8.21131474      -0.00000021       0.00000055      -0.00000369
Mn       0.00000006      -0.00000016       0.00000026      -0.00000091       0.00000336      -0.00000032
O        1.52211334       1.07629667       5.47420999      -0.00253199      -0.00178703      -0.00000065
O        4.79896071       3.39337789       5.47421098       0.00253075       0.00179139      -0.00000025
O        3.97974861       1.07629709       4.05529447       0.00127038      -0.00179800      -0.00220340
O        2.34132545       3.39337744       6.89312641      -0.00127195       0.00179733       0.00220007
O        2.34132497       3.39337743       4.05529456      -0.00127059       0.00179555      -0.00219974
O        3.97974856       1.07629772       6.89312590       0.00127557      -0.00180323       0.00220914
