9
Lattice="5.679337602528521 -1.221780916000249e-07 3.2789671154779083 1.8931125609566117 5.354529869357169 3.2789668695767746 2.8842841682694025e-08 -2.80771203033898e-07 6.557934180998467" Properties=species:S:1:pos:R:3:forces:R:3 energy=-32.181976318359375 free_energy=-32.181976318359375 stress="0.0001143937770393677 1.974868624188275e-08 2.5762409094909344e-08 1.974868624188275e-08 0.00011444675328675658 -4.567347833273061e-09 2.5762409094909344e-08 -4.567347833273061e-09 0.00011432030441937968" pbc="T T T"
Pb       1.89311260       1.33863186       3.27896696       0.00000129      -0.00000107       0.00000039
Pb       5.67933779       4.01589744       9.83690083       0.00000060       0.00000189      -0.00000155
Mg       0.00000009       0.00000011      -0.00000028      -0.00000016      -0.00000081       0.00000076
S        2.03217338       1.43696240       6.55793398      -0.00033253      -0.00023517       0.00000037
S        5.54027711       3.91756681       6.55793535       0.00033285       0.00023482       0.00000243
S        4.66325143       1.43696348       5.03887992       0.00016671      -0.00023373      -0.00028920
S        2.90919899       3.91756658       8.07698741      -0.00016703       0.00023375       0.00028720
S        2.90919874       3.91756682       5.03888046      -0.00016733       0.00023574      -0.00028966
S        4.66325062       1.43696242       8.07698802       0.00016559      -0.00023542       0.00028934
