9
Lattice="6.464028568579796 2.2378864722306293e-07 3.7320084850069883 2.15467620533643 6.09434479646787 3.7320088230689223 -1.0779432538986754e-07 3.3781744693997236e-07 7.464017156719279" Properties=species:S:1:pos:R:3:forces:R:3 energy=-27.938079833984375 free_energy=-27.938079833984375 stress="-2.5567540433257818e-05 -1.2721135256299476e-09 1.0489725532636385e-08 -1.2721135256299476e-09 -2.5536241082591005e-05 -4.334128167471363e-09 1.0489725532636385e-08 -4.334128167471363e-09 -2.558142296038568e-05" pbc="T T T"
Pb       2.15467655       1.52358728       3.73200837       0.00000118       0.00000357      -0.00000076
Pb       6.46402837       4.57075844      11.19602698       0.00000023      -0.00000361       0.00000305
Mg      -0.00000052       0.00000005       0.00000041       0.00000319       0.00000012      -0.00000234
Te       2.36401664       1.67161307       7.46401723       0.00009103       0.00006559      -0.00000019
Te       6.25468843       4.42273225       7.46401630      -0.00009291      -0.00006839      -0.00000217
Te       5.28202048       1.67161329       5.77930580      -0.00004693       0.00006973       0.00008071
Te       3.33668437       4.42273179       9.14872785       0.00004460      -0.00006599      -0.00007793
Te       3.33668446       4.42273217       5.77930724       0.00004679      -0.00006759       0.00007997
Te       5.28201984       1.67161314       9.14872770      -0.00004720       0.00006659      -0.00008032
