9
Lattice="5.636476345950692 1.1337461998241891e-08 3.254221170237993 1.8788254404589941 5.314121188298322 3.2542212029395245 3.337291800708345e-08 6.364925316227875e-08 6.508442282672394" Properties=species:S:1:pos:R:3:forces:R:3 energy=-42.94343185424805 free_energy=-42.94343185424805 stress="-7.286073378054425e-05 1.2127997273125857e-08 2.0305524373043227e-08 1.2127997273125857e-08 -7.286904292413965e-05 -2.1863472809968698e-08 2.0305524373043227e-08 -2.1863472809968698e-08 -7.287044718395919e-05" pbc="T T T"
Pb       1.87882534       1.32853034       3.25422153       0.00000010      -0.00000067       0.00000071
Pb       5.63647654       3.98559095       9.76266315      -0.00000007       0.00000046      -0.00000082
Mn       0.00000043       0.00000014      -0.00000048      -0.00000662       0.00000105       0.00000380
S        1.81674141       1.28463006       6.50844222      -0.00026464      -0.00018552      -0.00000078
S        5.69856003       4.02949074       6.50844305       0.00026840       0.00019005      -0.00000086
S        4.72810535       1.28462978       4.82756536       0.00013351      -0.00018865      -0.00023168
S        2.78719639       4.02949137       8.18931942      -0.00013170       0.00018495       0.00022656
S        2.78719585       4.02949154       4.82756536      -0.00013316       0.00018755      -0.00022930
S        4.72810583       1.28463009       8.18931903       0.00013393      -0.00018936       0.00023234
