9
Lattice="5.9071862897968295 -1.1345214190186475e-08 3.4105156574822413 1.9690620211030456 5.5693488249430345 3.4105157697181507 8.896818041338627e-09 1.4375142539889628e-07 6.821031299554698" Properties=species:S:1:pos:R:3:forces:R:3 energy=-39.947574615478516 free_energy=-39.947574615478516 stress="-3.4836721169995144e-05 -1.984788156050854e-08 -3.145630600442928e-08 -1.984788156050854e-08 -3.4879674785770476e-05 1.6983737083364758e-08 -3.145630600442928e-08 1.6983737083364758e-08 -3.4823697205865756e-05" pbc="T T T"
Pb       1.96906166       1.39233789       3.41051528      -0.00000074       0.00000094      -0.00000228
Pb       5.90718589       4.17701103      10.23154732      -0.00000053      -0.00000236      -0.00000110
Mn      -0.00000015      -0.00000003      -0.00000026       0.00000227       0.00000225       0.00000868
Se       1.92384156       1.36036170       6.82103134       0.00134143       0.00094810       0.00000053
Se       5.95240739       4.20898728       6.82103127      -0.00134352      -0.00095049       0.00000016
Se       4.94526563       1.36036214       5.07661172      -0.00066935       0.00094675       0.00116053
Se       2.93098284       4.20898707       8.56545126       0.00067231      -0.00094937      -0.00116363
Se       2.93098308       4.20898708       5.07661159       0.00066982      -0.00094602       0.00116032
Se       4.94526541       1.36036182       8.56545134      -0.00067179       0.00094984      -0.00116307
