9
Lattice="5.503266738444318 -9.001887969758213e-09 3.1773126654842576 1.8344222118362152 5.188529986182237 3.177312710214094 -7.127277177075553e-09 4.974295355974891e-08 6.354625343313298" Properties=species:S:1:pos:R:3:forces:R:3 energy=-37.66718673706055 free_energy=-37.66718673706055 stress="-6.666004628641531e-05 -1.3338389948103213e-08 -2.9502459142349835e-08 -1.3338389948103213e-08 -6.664278043899685e-05 2.2648576347705784e-08 -2.9502459142349835e-08 2.2648576347705784e-08 -6.662471423624083e-05" pbc="T T T"
Pb       1.83442128       1.29713200       3.17731305       0.00000011      -0.00000042       0.00000007
Pb       5.50326629       3.89139785       9.53193750      -0.00000101      -0.00000057      -0.00000020
Ni       0.00000002       0.00000012      -0.00000026       0.00000471      -0.00000040       0.00001061
S        1.79759624       1.27109222       6.35462524       0.00250730       0.00177339      -0.00000072
S        5.54009322       3.91743773       6.35462560      -0.00251082      -0.00177529      -0.00000064
S        4.60446845       1.27109221       4.73407717      -0.00125283       0.00177130       0.00216952
S        2.73322085       3.91743766       7.97517395       0.00125450      -0.00177300      -0.00217304
S        2.73322026       3.91743766       4.73407641       0.00125347      -0.00177103       0.00217009
S        4.60446921       1.27109253       7.97517400      -0.00125524       0.00177580      -0.00217539
