9
Lattice="4.954594778159735 -5.4280682881867766e-08 2.8605365585750087 1.6515315589768667 4.6712364524323755 2.8605365283796793 5.480950428318114e-09 -3.3105942632976856e-08 5.721073107656707" Properties=species:S:1:pos:R:3:forces:R:3 energy=-53.15520095825195 free_energy=-53.15520095825195 stress="0.00016634129860904068 3.3393721121655062e-09 2.2577999914119573e-08 3.3393721121655062e-09 0.00016630881873425096 -1.7949057351529518e-08 2.2577999914119573e-08 -1.7949057351529518e-08 0.00016626439173705876" pbc="T T T"
Pb       1.65153182       1.16780914       2.86053682      -0.00000037       0.00000113       0.00000194
Pb       4.95459453       3.50342761       8.58160966       0.00000132       0.00000031       0.00000223
Nb       0.00000047       0.00000003       0.00000073       0.00000148       0.00000113       0.00000385
N        1.72421991       1.21920746       5.72107275      -0.00372410      -0.00263363      -0.00000182
N        4.88190635       3.45202885       5.72107262       0.00372243       0.00263298      -0.00000158
N        4.09248495       1.21920724       4.35375485       0.00186241      -0.00263393      -0.00322616
N        2.51364169       3.45202883       7.08839154      -0.00186020       0.00263274       0.00322342
N        2.51364115       3.45202885       4.35375472      -0.00186253       0.00263256      -0.00322497
N        4.09248454       1.21920731       7.08839130       0.00185990      -0.00263315       0.00322366
