9
Lattice="6.433722698009869 -1.761548256454827e-07 3.7145117405512824 2.144574159668344 6.065771902641077 3.7145115793341716 3.446164571598398e-08 -1.7308173894754637e-07 7.429023421413131" Properties=species:S:1:pos:R:3:forces:R:3 energy=-37.4824104309082 free_energy=-37.4824104309082 stress="-0.00017024138651322573 -2.9640190302160363e-09 1.8099667542514908e-08 -2.9640190302160363e-09 -0.00017024467524606735 -2.3478564870060836e-08 1.8099667542514908e-08 -2.3478564870060836e-08 -0.00017022492829710245" pbc="T T T"
Pb       2.14457457       1.51644286       3.71451192       0.00000123      -0.00000009       0.00000121
Pb       6.43372221       4.54932886      11.14353408      -0.00000132       0.00000010      -0.00000375
Nb      -0.00000031      -0.00000012       0.00000192       0.00000281       0.00000007      -0.00001324
Te       2.24835387       1.58982607       7.42902335       0.00344295       0.00243488      -0.00000035
Te       6.32994335       4.47594552       7.42902372      -0.00344602      -0.00243623       0.00000067
Te       5.30954555       1.58982542       5.66164260      -0.00172620       0.00243937       0.00298702
Te       3.26875175       4.47594533       9.19640342       0.00172176      -0.00243293      -0.00297986
Te       3.26875099       4.47594551       5.66164318       0.00172351      -0.00243727       0.00298526
Te       5.30954559       1.58982675       9.19640278      -0.00171872       0.00243207      -0.00297694
