9
Lattice="6.184672017357519 -1.735894641989134e-07 3.5707222737531747 2.061557275649702 5.830964392453283 3.5707221002150957 3.169619989900739e-07 1.158612744323959e-08 7.1414439985121065" Properties=species:S:1:pos:R:3:forces:R:3 energy=-32.27740478515625 free_energy=-32.27740478515625 stress="0.00015227952098939568 -6.970923838167664e-09 9.914851162307059e-09 -6.970923838167664e-09 0.00015227359835989773 -3.896451872265061e-08 9.914851162307059e-09 -3.896451872265061e-08 0.00015227531548589468" pbc="T T T"
Pb       2.06155735       1.45774033       3.57072039      -0.00000071      -0.00000197      -0.00000408
Pb       6.18467279       4.37322314      10.71216838       0.00000087       0.00000090       0.00000557
Ni      -0.00000028      -0.00000083       0.00000046       0.00000166       0.00000644      -0.00000045
Te       2.10105438       1.48566956       7.14144485      -0.00257941      -0.00182462       0.00000233
Te       6.14517469       4.34529564       7.14144232       0.00257599       0.00182319      -0.00000346
Te       5.13414607       1.48566997       5.39028917       0.00129125      -0.00182311      -0.00223292
Te       3.11208366       4.34529464       8.89259960      -0.00129031       0.00182088       0.00223079
Te       3.11208574       4.34529564       5.39028945      -0.00128802       0.00182601      -0.00223280
Te       5.13414404       1.48566890       8.89259904       0.00128873      -0.00182775       0.00223499
