9
Lattice="4.828176640405721 1.6069167000913812e-07 2.7875489148023584 1.6093923159468302 4.5520484351397235 2.7875489997132457 -8.782887304833596e-09 9.778372819571598e-08 5.575097844817149" Properties=species:S:1:pos:R:3:forces:R:3 energy=-45.971580505371094 free_energy=-45.971580505371094 stress="9.426241012988612e-05 2.0905261521875218e-08 -4.797173325243875e-09 2.0905261521875218e-08 9.431165381101891e-05 8.09779443500247e-09 -4.797173325243875e-09 8.09779443500247e-09 9.418505942448974e-05" pbc="T T T"
Pb       1.60939199       1.13801205       2.78754850      -0.00000027      -0.00000021       0.00000031
Pb       4.82817710       3.41403754       8.36264697      -0.00000011       0.00000102      -0.00000026
Ni       0.00000006      -0.00000001       0.00000000       0.00000056       0.00000183      -0.00000227
N        1.55225051       1.09760688       5.57509749      -0.00190449      -0.00134745      -0.00000086
N        4.88531851       3.45444187       5.57509795       0.00190347       0.00134647       0.00000039
N        4.05205139       1.09760633       4.13183733       0.00095177      -0.00134665      -0.00164717
N        2.38551728       3.45444155       7.01835904      -0.00095218       0.00134635       0.00164840
N        2.38551754       3.45444205       4.13183733      -0.00095105       0.00134775      -0.00164747
N        4.05205136       1.09760663       7.01835846       0.00095269      -0.00134909       0.00164881
