9
Lattice="5.998773595528209 9.561832605248905e-08 3.463393402511985 1.9995913003715975 5.655697856636192 3.4633933822256084 6.43249791100948e-08 2.063894239800336e-08 6.92678669360985" Properties=species:S:1:pos:R:3:forces:R:3 energy=-41.93205642700195 free_energy=-41.93205642700195 stress="1.0529020983085502e-05 4.273098141993614e-08 9.117012922388312e-09 4.273098141993614e-08 1.0514698260521982e-05 1.0015794416062818e-08 9.117012922388312e-09 1.0015794416062818e-08 1.0475480848981533e-05" pbc="T T T"
Pb       1.99959074       1.41392460       3.46339350      -0.00000012       0.00000057       0.00000057
Pb       5.99877363       4.24177324      10.39018123       0.00000003      -0.00000068       0.00000212
Nb      -0.00000014      -0.00000005      -0.00000019       0.00000326       0.00000020       0.00000049
Se       2.05220300       1.45112662       6.92678669      -0.00201249      -0.00142260       0.00000013
Se       5.94616220       4.20457145       6.92678628       0.00201051       0.00142158      -0.00000035
Se       4.97267249       1.45112670       5.24065278       0.00100415      -0.00141987      -0.00173888
Se       3.02569250       4.20457176       8.61292057      -0.00100453       0.00141989       0.00173860
Se       3.02569291       4.20457131       5.24065259      -0.00100473       0.00142050      -0.00174027
Se       4.97267261       1.45112625       8.61292048       0.00100385      -0.00141959       0.00173760
