9
Lattice="5.807329684762858 -1.2888009777012996e-07 3.352863521023814 1.9357765183423543 5.475202511910864 3.352863385466463 -6.381016705652437e-08 -2.1114379705267855e-07 6.7057271525700815" Properties=species:S:1:pos:R:3:forces:R:3 energy=-35.37623977661133 free_energy=-35.37623977661133 stress="-0.0001392879494233057 5.330833019456804e-08 4.362695094073388e-08 5.330833019456804e-08 -0.0001392676931573078 -6.882939374008856e-08 4.362695094073388e-08 -6.882939374008856e-08 -0.00013930292334407568" pbc="T T T"
Pb       1.93577635       1.36880006       3.35286344       0.00000153      -0.00000106      -0.00000159
Pb       5.80732915       4.10640097      10.05859057       0.00000105       0.00000035       0.00000083
Ni       0.00000053      -0.00000017       0.00000023      -0.00000562       0.00000658      -0.00000040
Se       1.93778975       1.37022410       6.70572707       0.00512609       0.00362587       0.00000015
Se       5.80531645       4.10497833       6.70572705      -0.00512883      -0.00362578      -0.00000008
Se       4.83843490       1.37022398       5.03103841      -0.00256293       0.00362509       0.00443918
Se       2.90467118       4.10497842       8.38041568       0.00256500      -0.00362779      -0.00444329
Se       2.90467132       4.10497862       5.03103852       0.00256409      -0.00362584       0.00444144
Se       4.83843488       1.37022427       8.38041538      -0.00256035       0.00362255      -0.00443619
