9
Lattice="4.9330565257428916 -1.221734983555857e-07 2.8481019480239107 1.6443520367841908 4.650930533275338 2.848101988341134 -4.558992137394924e-08 1.7141374113616087e-08 5.696203975011892" Properties=species:S:1:pos:R:3:forces:R:3 energy=-54.81555938720703 free_energy=-54.81555938720703 stress="-6.087907422624994e-06 1.7073112701382342e-08 -8.927923289547834e-09 1.7073112701382342e-08 -5.9832586885022465e-06 -1.4405077131129929e-08 -8.927923289547834e-09 -1.4405077131129929e-08 -6.145548468339257e-06" pbc="T T T"
Pb       1.64435114       1.16273164       2.84810238      -0.00000256      -0.00000080       0.00000239
Pb       4.93305630       3.48819873       8.54430636      -0.00000080      -0.00000039       0.00000050
Os      -0.00000022      -0.00000029       0.00000000       0.00000017       0.00000741       0.00000332
N        1.58101573       1.11794753       5.69620371      -0.00001848      -0.00001407       0.00000033
N        4.99639281       3.53298280       5.69620365       0.00001526       0.00001085      -0.00000206
N        4.14254851       1.11794673       4.21730228       0.00000966      -0.00001431      -0.00001323
N        2.43486043       3.53298393       7.17510569      -0.00000554       0.00001180       0.00000954
N        2.43486051       3.53298338       4.21730201      -0.00000578       0.00001335      -0.00001383
N        4.14254867       1.11794711       7.17510575       0.00000823      -0.00001454       0.00001442
