9
Lattice="4.925778095579702 -8.460438422379446e-09 2.8438993633362846 1.6419260273618965 4.644067961279501 2.8438993573112317 -2.1081863991148327e-10 -7.528229555608201e-09 5.687798727037695" Properties=species:S:1:pos:R:3:forces:R:3 energy=-44.17747116088867 free_energy=-44.17747116088867 stress="-1.854285983426962e-05 1.2004654159625261e-08 -8.472782475621443e-09 1.2004654159625261e-08 -1.8590590116218664e-05 -4.250264140637228e-08 -8.472782475621443e-09 -4.250264140637228e-08 -1.844306279963348e-05" pbc="T T T"
Pb       1.64192809       1.16101720       2.84389893       0.00000534       0.00000007      -0.00000139
Pb       4.92577977       3.48305145       8.53169805       0.00000964       0.00000280      -0.00000009
Pd       0.00000010       0.00000000       0.00000014       0.00000567       0.00000178      -0.00000069
N        1.62771079       1.15096576       5.68779840       0.00057381       0.00040701       0.00000121
N        4.93999294       3.49310295       5.68779732      -0.00057870      -0.00040582      -0.00000194
N        4.11192226       1.15096443       4.25353914      -0.00029150       0.00040495       0.00049806
N        2.45578090       3.49310199       7.12205903       0.00028417      -0.00040799      -0.00049806
N        2.45577995       3.49310231       4.25353933       0.00028220      -0.00040683       0.00049764
N        4.11192166       1.15096558       7.12205954      -0.00029066       0.00040400      -0.00049502
