9
Lattice="5.934738721029978 -5.686248175795293e-08 3.426423047895626 1.9782461936026807 5.595325374992992 3.426423035996685 -4.430047841675198e-08 -4.5898314668814356e-08 6.852846172521916" Properties=species:S:1:pos:R:3:forces:R:3 energy=-35.09552764892578 free_energy=-35.09552764892578 stress="-9.807279639062472e-06 1.1776473129998521e-08 -2.9323780736945082e-08 1.1776473129998521e-08 -9.748597221914679e-06 -2.7794215817777967e-09 -2.9323780736945082e-08 -2.7794215817777967e-09 -9.737469554238487e-06" pbc="T T T"
Pb       1.97824625       1.39883129       3.42642297       0.00000081      -0.00000078      -0.00000053
Pb       5.93473867       4.19649408      10.27926923      -0.00000022      -0.00000028       0.00000047
Pd       0.00000055       0.00000009      -0.00000005      -0.00000490      -0.00000036       0.00000124
Se       2.05264337       1.45143808       6.85284607       0.00124219       0.00087851       0.00000023
Se       5.86034132       4.14388698       6.85284601      -0.00123942      -0.00087582       0.00000015
Se       4.90841678       1.45143819       5.20406461      -0.00061956       0.00087482       0.00107262
Se       3.00456786       4.14388714       8.50162797       0.00062022      -0.00087683      -0.00107405
Se       3.00456794       4.14388720       5.20406448       0.00062041      -0.00087692       0.00107419
Se       4.90841671       1.45143812       8.50162772      -0.00061958       0.00087760      -0.00107446
