9
Lattice="4.872270038656781 -2.3995378824954778e-08 2.813006437024542 1.624089967133255 4.593620301019107 2.813006477085629 1.9137109085787834e-08 6.259657914121481e-08 5.626012840902663" Properties=species:S:1:pos:R:3:forces:R:3 energy=-45.87147903442383 free_energy=-45.87147903442383 stress="0.00010587563156150281 -5.256799440189752e-08 2.621306727235151e-08 -5.256799440189752e-08 0.00010584781557554379 -5.147268389293913e-09 2.621306727235151e-08 -5.147268389293913e-09 0.0001059272835846059" pbc="T T T"
Pb       1.62409003       1.14840502       2.81300602       0.00000049      -0.00000061      -0.00000133
Pb       4.87226929       3.44521528       8.43901857      -0.00000261       0.00000040      -0.00000288
Pt      -0.00000002      -0.00000002       0.00000004       0.00000198       0.00000007       0.00000099
N        1.63221936       1.15415271       5.62601285      -0.00133377      -0.00094497       0.00000031
N        4.86414086       3.43946719       5.62601307       0.00133330       0.00094426       0.00000207
N        4.05616064       1.15415322       4.22654982       0.00066739      -0.00094527      -0.00115794
N        2.44019988       3.43946692       7.02547642      -0.00066629       0.00094497       0.00115865
N        2.44019951       3.43946752       4.22655006      -0.00066721       0.00094533      -0.00115770
N        4.05616053       1.15415356       7.02547628       0.00066718      -0.00094396       0.00115800
