9
Lattice="5.886720100256895 -1.7199529908456227e-08 3.398699519361272 1.9622400883899587 5.550052608101173 3.3986993960619047 9.508717820743014e-08 -8.377345650678008e-08 6.797398874026735" Properties=species:S:1:pos:R:3:forces:R:3 energy=-36.602664947509766 free_energy=-36.602664947509766 stress="0.000402458623284474 1.310216291017241e-08 7.626919540371091e-09 1.310216291017241e-08 0.0004024442459922284 -2.8518750028183604e-08 7.626919540371091e-09 -2.8518750028183604e-08 0.00040243679541163146" pbc="T T T"
Pb       1.96224001       1.38751287       3.39869960       0.00000011      -0.00000048       0.00000025
Pb       5.88672042       4.16253981      10.19609822       0.00000060       0.00000161       0.00000029
Pt      -0.00000044       0.00000031      -0.00000037       0.00000748      -0.00000344       0.00000257
Se       2.01977646       1.42819708       6.79739890       0.00673994       0.00476572      -0.00000003
Se       5.82918440       4.12185550       6.79739892      -0.00674424      -0.00476870      -0.00000082
Se       4.87683212       1.42819691       5.14787667      -0.00337246       0.00476925       0.00584054
Se       2.97212808       4.12185547       8.44692110       0.00337067      -0.00476685      -0.00583875
Se       2.97212771       4.12185510       5.14787692       0.00337023      -0.00476611       0.00583710
Se       4.87683243       1.42819698       8.44692121      -0.00337249       0.00476906      -0.00584106
