9
Lattice="4.829032298398653 -1.707129430030233e-07 2.7880433653282353 1.609677220665979 4.552855920184686 2.788043453981251 -6.257066504463522e-09 1.0415295860800978e-07 5.576086741494021" Properties=species:S:1:pos:R:3:forces:R:3 energy=-50.099151611328125 free_energy=-50.099151611328125 stress="2.628773290780373e-05 -4.066452063966608e-08 -1.0047116916211962e-07 -4.066452063966608e-08 2.6492973120184615e-05 3.635484446817827e-08 -1.0047116916211962e-07 3.635484446817827e-08 2.635226701386273e-05" pbc="T T T"
Pb       1.60967779       1.13821400       2.78804370      -0.00000182       0.00000032      -0.00000377
Pb       4.82903167       3.41464168       8.36412823       0.00000197      -0.00000129       0.00000038
P       -0.00000041      -0.00000007       0.00000043       0.00000065      -0.00000019       0.00000033
N        1.48476570       1.04988950       5.57608677      -0.00294805      -0.00208259      -0.00000178
N        4.95394333       3.50296653       5.57608735       0.00294900       0.00208688       0.00000344
N        4.08664944       1.04988869       4.07389000       0.00147486      -0.00208914      -0.00255775
N        2.35206025       3.50296698       7.07828523      -0.00147510       0.00208724       0.00255823
N        2.35206052       3.50296800       4.07388991      -0.00147343       0.00208545      -0.00255322
N        4.08664949       1.04988845       7.07828474       0.00147319      -0.00208580       0.00255370
