9
Lattice="5.60727774117271 -1.2100481678386185e-07 3.2373633287938732 1.8690924931024675 5.286591595500238 3.2373632823817786 5.013142757145162e-08 -2.1394666454603542e-08 6.474726570757648" Properties=species:S:1:pos:R:3:forces:R:3 energy=-36.85076141357422 free_energy=-36.85076141357422 stress="1.311458800046239e-05 1.7578487554459343e-09 1.1918550590905852e-08 1.7578487554459343e-09 1.3133611901139375e-05 -7.102170851425171e-09 1.1918550590905852e-08 -7.102170851425171e-09 1.3169562407711055e-05" pbc="T T T"
Pb       1.86909249       1.32164838       3.23736349      -0.00000024      -0.00000010       0.00000057
Pb       5.60727752       3.96494307       9.71208973      -0.00000112      -0.00000123      -0.00000096
Pd       0.00000030       0.00000046       0.00000030      -0.00000699      -0.00000910      -0.00000774
S        1.92973938       1.36453203       6.47472643      -0.00047499      -0.00033414      -0.00000006
S        5.54663044       3.92205900       6.47472674       0.00048321       0.00034165       0.00000159
S        4.64240772       1.36453226       4.90856712       0.00023782      -0.00033665      -0.00041336
S        2.83396314       3.92205877       8.04088571      -0.00023961       0.00033981       0.00041759
S        2.83396238       3.92205922       4.90856719      -0.00023878       0.00033790      -0.00041384
S        4.64240804       1.36453255       8.04088608       0.00024053      -0.00033730       0.00041622
