9
Lattice="4.904763575629209 8.330320095283645e-08 2.831766685958661 1.6349211966634392 4.6242559336153315 2.8317668137007983 -5.963340654958713e-08 1.1428437860595003e-07 5.663533475205447" Properties=species:S:1:pos:R:3:forces:R:3 energy=-46.48346710205078 free_energy=-46.48346710205078 stress="-0.0003161141648888588 1.7921678363563842e-08 1.1520620901706025e-08 1.7921678363563842e-08 -0.0003160564519930631 1.4350185040257202e-08 1.1520620901706025e-08 1.4350185040257202e-08 -0.00031608639983460307" pbc="T T T"
Pb       1.63492211       1.15606478       2.83176606       0.00000102       0.00000153      -0.00000263
Pb       4.90476306       3.46819182       8.49529958       0.00000065      -0.00000009      -0.00000307
Pt      -0.00000003      -0.00000008       0.00000000       0.00000171      -0.00000285      -0.00000487
O        1.58108743       1.11799815       5.66353364       0.00348037       0.00246024       0.00000166
O        4.95859718       3.50625803       5.66353387      -0.00348032      -0.00246048       0.00000119
O        4.11421972       1.11799790       4.20102898      -0.00174150       0.00246087       0.00301388
O        2.42546510       3.50625771       7.12603823       0.00173837      -0.00245953      -0.00300813
O        2.42546482       3.50625797       4.20102907       0.00173894      -0.00245947       0.00301173
O        4.11421957       1.11799825       7.12603823      -0.00173974       0.00245973      -0.00300980
