9
Lattice="5.577658964524056 1.7911644512421098e-07 3.2202628771253323 1.8592197971372357 5.258667434655803 3.220262923157616 8.209923753452304e-08 1.1443074421879783e-07 6.440525612050645" Properties=species:S:1:pos:R:3:forces:R:3 energy=-39.089866638183594 free_energy=-39.089866638183594 stress="8.048438030527905e-05 3.005260040822577e-08 -8.420760089222767e-09 3.005260040822577e-08 8.048314339248464e-05 -5.546809123124774e-10 -8.420760089222767e-09 -5.546809123124774e-10 8.050598262343556e-05" pbc="T T T"
Pb       1.85921938       1.31466705       3.22026310      -0.00000107       0.00000037       0.00000048
Pb       5.57765931       3.94400101       9.66078878      -0.00000060      -0.00000044      -0.00000060
Pt      -0.00000012      -0.00000010      -0.00000058      -0.00000122       0.00000019       0.00001084
S        1.89917129       1.34291708       6.44052564      -0.00166261      -0.00117531       0.00000037
S        5.53770776       3.91575075       6.44052570       0.00166374       0.00117603       0.00000022
S        4.62807340       1.34291704       4.86499346       0.00083256      -0.00117731      -0.00144213
S        2.80880507       3.91575087       8.01605815      -0.00082886       0.00117233       0.00143576
S        2.80880554       3.91575053       4.86499345      -0.00083131       0.00117648      -0.00144100
S        4.62807373       1.34291678       8.01605807       0.00082925      -0.00117242       0.00143605
