9
Lattice="5.064413974141303 1.490470915736511e-07 2.923940795002307 1.6881380586757864 4.7747756085480555 2.9239409218362002 -7.814356430393338e-08 1.0008328865801774e-07 5.8478817253532736" Properties=species:S:1:pos:R:3:forces:R:3 energy=-58.37359619140625 free_energy=-58.37359619140625 stress="-5.251382026472129e-05 -4.934580388749055e-08 -1.219803635876815e-08 -4.934580388749055e-08 -5.260988837108016e-05 3.1196327743288066e-09 -1.219803635876815e-08 3.1196327743288066e-09 -5.251738184597343e-05" pbc="T T T"
Pb       1.68813783       1.19369389       2.92394062      -0.00000054      -0.00000055       0.00000090
Pb       5.06441454       3.58108202       8.77182355       0.00000213       0.00000087       0.00000362
Re      -0.00000012       0.00000004      -0.00000003       0.00000426       0.00000221      -0.00000327
N        1.59992922       1.13132101       5.84788191      -0.00378847      -0.00267923       0.00000020
N        5.15262277       3.64345525       5.84788131       0.00378263       0.00267625      -0.00000226
N        4.26444946       1.13132117       4.30952012       0.00189441      -0.00267744      -0.00328112
N        2.48810225       3.64345481       7.38624303      -0.00189680       0.00268006       0.00328183
N        2.48810231       3.64345471       4.30952040      -0.00189310       0.00267756      -0.00327957
N        4.26444971       1.13132088       7.38624269       0.00189430      -0.00267947       0.00328004
