9
Lattice="4.882984573693792 1.4899886095694716e-07 2.8191921037977052 1.6276615599877542 4.603722078159964 2.8191922857571017 -1.1003898670454e-07 1.4504456556861043e-07 5.638384398188455" Properties=species:S:1:pos:R:3:forces:R:3 energy=-48.25507354736328 free_energy=-48.25507354736328 stress="0.00047532981261610985 -2.162207657363524e-08 1.1247264453118078e-08 -2.162207657363524e-08 0.0004752810928039253 2.3574451279984032e-09 1.1247264453118078e-08 2.3574451279984032e-09 0.0004753356915898621" pbc="T T T"
Pb       1.62766100       1.15093030       2.81919307      -0.00000078       0.00000067       0.00000346
Pb       4.88298463       3.45279140       8.45757705      -0.00000179      -0.00000332       0.00000058
Rh      -0.00000024       0.00000009       0.00000013       0.00000326      -0.00000265      -0.00000254
N        1.61177716       1.13969916       5.63838401      -0.00285530      -0.00201768      -0.00000165
N        4.89886853       3.46402334       5.63838449       0.00285369       0.00201797      -0.00000074
N        4.07709561       1.13969977       4.21503210       0.00142699      -0.00201708      -0.00247264
N        2.43355048       3.46402308       7.06173618      -0.00142869       0.00202149       0.00247431
N        2.43355047       3.46402277       4.21503198      -0.00142744       0.00201833      -0.00247210
N        4.07709634       1.13969961       7.06173604       0.00142977      -0.00201786       0.00247067
