9
Lattice="4.897752972345413 -1.2488437833891484e-07 2.8277191349388673 1.6325841977304634 4.617646157885944 2.827719149908199 -6.260085646486485e-08 -2.5931885398904578e-08 5.655438378305595" Properties=species:S:1:pos:R:3:forces:R:3 energy=-51.076560974121094 free_energy=-51.076560974121094 stress="0.0002984438615385443 -3.7527417617866377e-08 -7.2098509384943554e-09 -3.7527417617866377e-08 0.0002985064056701958 -1.1263943555661626e-08 -7.2098509384943554e-09 -1.1263943555661626e-08 0.0002984976163133979" pbc="T T T"
Pb       1.63258391       1.15441129       2.82771890      -0.00000043      -0.00000185      -0.00000151
Pb       4.89775252       3.46323418       8.48315722      -0.00000182      -0.00000029       0.00000035
Ru      -0.00000007      -0.00000039       0.00000046      -0.00000059      -0.00000121      -0.00000336
N        1.57245559       1.11189375       5.65543830      -0.00256455      -0.00181305      -0.00000098
N        4.95788106       3.50575224       5.65543826       0.00256455       0.00181490       0.00000047
N        4.11152537       1.11189412       4.18950554       0.00128257      -0.00181204      -0.00222039
N        2.41881194       3.50575190       7.12137110      -0.00128323       0.00181508       0.00222218
N        2.41881260       3.50575271       4.18950553      -0.00128132       0.00181442      -0.00222003
N        4.11152517       1.11189403       7.12137094       0.00128496      -0.00181592       0.00222397
