9
Lattice="5.719210160086384 -2.0140857967101676e-08 3.301987416643354 1.9064033853312585 5.392123017902142 3.301987386116339 3.882486176745057e-08 -9.934512894560362e-09 6.60397476604011" Properties=species:S:1:pos:R:3:forces:R:3 energy=-39.94905090332031 free_energy=-39.94905090332031 stress="-0.00018256525800097734 6.468417979021979e-08 3.104576506984813e-08 6.468417979021979e-08 -0.00018255827308166772 -7.3354176066686705e-09 3.104576506984813e-08 -7.3354176066686705e-09 -0.00018258378258906305" pbc="T T T"
Pb       1.90640325       1.34803000       3.30198733      -0.00000041      -0.00000200       0.00000006
Pb       5.71920989       4.04409307       9.90596176      -0.00000164       0.00000401      -0.00000060
Sc       0.00000028       0.00000046       0.00000010      -0.00000227      -0.00000578       0.00000064
S        2.02896232       1.43469261       6.60397483      -0.00066090      -0.00046938      -0.00000005
S        5.59665091       3.95743001       6.60397480       0.00066666       0.00047100      -0.00000020
S        4.70472932       1.43469237       5.05912012       0.00033136      -0.00046795      -0.00057258
S        2.92088458       3.95743043       8.14882966      -0.00033198       0.00046980       0.00057416
S        2.92088451       3.95743043       5.05912019      -0.00033177       0.00046933      -0.00057471
S        4.70472925       1.43469265       8.14882949       0.00033096      -0.00046901       0.00057328
