9
Lattice="4.969314737627957 -8.856235955163288e-08 2.8690351787085437 1.6564381979232696 4.685114794730231 2.869035117143379 -7.777212115100431e-08 -1.3039482618621466e-07 5.738070492122437" Properties=species:S:1:pos:R:3:forces:R:3 energy=-44.70631408691406 free_energy=-44.70631408691406 stress="-6.320384272839874e-05 1.7761816906158856e-08 5.7158949573477e-08 1.7761816906158856e-08 -6.329143070615828e-05 -2.9666582079812542e-08 5.7158949573477e-08 -2.9666582079812542e-08 -6.321220280369744e-05" pbc="T T T"
Pb       1.65643774       1.17127849       2.86903519      -0.00000202       0.00000005      -0.00000119
Pb       4.96931403       3.51383524       8.60710456      -0.00000367      -0.00000431      -0.00000678
Sn      -0.00000024       0.00000012      -0.00000069       0.00000048      -0.00000156       0.00000325
O        1.67007883       1.18092444       5.73807056      -0.00446796      -0.00315726       0.00000005
O        4.95567379       3.50419013       5.73807112       0.00446713       0.00315821       0.00000353
O        4.13427558       1.18092383       4.31536616       0.00223327      -0.00315839      -0.00386518
O        2.49147810       3.50419048       7.16077499      -0.00222945       0.00315768       0.00386614
O        2.49147830       3.50419028       4.31536600      -0.00223345       0.00315988      -0.00386965
O        4.13427523       1.18092512       7.16077507       0.00223500      -0.00315356       0.00386947
