9
Lattice="6.0379707418040915 9.244091213312942e-08 3.486023816328494 2.0126569132549528 5.69265384164909 3.4860239684612795 -1.8915142058623017e-07 5.257351557937176e-08 6.972047960276982" Properties=species:S:1:pos:R:3:forces:R:3 energy=-37.62086486816406 free_energy=-37.62086486816406 stress="-0.00010228658356936648 3.203507148441531e-08 9.803746703340721e-10 3.203507148441531e-08 -0.00010231685155304149 -1.1004622768595596e-09 9.803746703340721e-10 -1.1004622768595596e-09 -0.00010231612395728007" pbc="T T T"
Pb       2.01265634       1.42316376       3.48602381      -0.00000088       0.00000108      -0.00000185
Pb       6.03797048       4.26949001      10.45807234       0.00000015      -0.00000092       0.00000188
Sc       0.00000061       0.00000022      -0.00000075      -0.00000432       0.00000037       0.00000984
Se       2.13397615       1.50894937       6.97204807      -0.00040381      -0.00028569       0.00000013
Se       5.91665142       4.18370440       6.97204743       0.00040650       0.00028668      -0.00000219
Se       4.97098283       1.50894944       5.33410163       0.00020380      -0.00028575      -0.00035156
Se       3.07964474       4.18370474       8.60999445      -0.00020076       0.00028258       0.00034632
Se       3.07964484       4.18370466       5.33410149      -0.00020164       0.00028552      -0.00034997
Se       4.97098246       1.50894934       8.60999450       0.00020100      -0.00028384       0.00034742
