9
Lattice="4.938509892434544 2.6442502054611987e-07 2.8512503977962345 1.6461701549486727 4.65607227415441 2.851250499118537 1.012767754250417e-07 1.957074507124057e-07 5.702500620175961" Properties=species:S:1:pos:R:3:forces:R:3 energy=-49.488765716552734 free_energy=-49.488765716552734 stress="-0.00011029958113795146 1.1690428181054813e-08 8.466280121410819e-09 1.1690428181054813e-08 -0.00011024192644981667 1.2768605728297189e-08 8.466280121410819e-09 1.2768605728297189e-08 -0.0001103329414036125" pbc="T T T"
Pb       1.64617056       1.16401742       2.85125156       0.00000399      -0.00000433       0.00000874
Pb       4.93851035       3.49205499       8.55375198      -0.00000013       0.00000186       0.00000368
Sc      -0.00000034      -0.00000027       0.00000073       0.00000344       0.00000106      -0.00000157
O        1.66475606       1.17715995       5.70250044      -0.00032264      -0.00023097      -0.00000296
O        4.91992446       3.47891299       5.70250062       0.00031906       0.00023007      -0.00000219
O        4.10613120       1.17716088       4.29297037       0.00015637      -0.00022593      -0.00028241
O        2.47854826       3.47891298       7.11202983      -0.00016120       0.00023207       0.00027728
O        2.47854785       3.47891203       4.29297098      -0.00016093       0.00022686      -0.00027758
O        4.10613244       1.17716003       7.11202995       0.00016215      -0.00023061       0.00027668
