9
Lattice="4.884055946485542 1.0967853975013014e-07 2.819810605920062 1.628018445856629 4.6047327172283365 2.819811136582031 -5.185778464473801e-07 2.832355668076017e-07 5.639622110043326" Properties=species:S:1:pos:R:3:forces:R:3 energy=-47.98583984375 free_energy=-47.98583984375 stress="6.672277231700718e-05 2.4944501575419054e-08 7.708041316334402e-09 2.4944501575419054e-08 6.693221075693145e-05 5.8216052423176734e-08 7.708041316334402e-09 5.8216052423176734e-08 6.682115053990856e-05" pbc="T T T"
Pb       1.62801769       1.15118266       2.81981143       0.00000295      -0.00000380       0.00000065
Pb       4.88405517       3.45354971       8.45943296      -0.00000418      -0.00000336      -0.00000217
Si      -0.00000064      -0.00000102      -0.00000110       0.00000660       0.00000547       0.00000523
N        1.49858111       1.05965923       5.63962205      -0.00229347      -0.00161541      -0.00000047
N        5.01349162       3.54507675       5.63962155       0.00227749       0.00161958       0.00000099
N        4.13476521       1.05965729       4.11762019       0.00114423      -0.00161755      -0.00198257
N        2.37731089       3.54507532       7.16162327      -0.00113332       0.00161636       0.00197732
N        2.37730986       3.54507391       4.11762153      -0.00114328       0.00161481      -0.00198078
N        4.13476408       1.05965797       7.16162297       0.00114304      -0.00161707       0.00198102
