9
Lattice="4.836018811537554 -4.008092555572003e-08 2.7920766634593144 1.6120062350274769 4.55944203501437 2.792076659469322 -6.096446641845556e-08 -4.7995099420405225e-08 5.584153432512172" Properties=species:S:1:pos:R:3:forces:R:3 energy=-45.881805419921875 free_energy=-45.881805419921875 stress="0.00023134611546993256 -3.478115928601255e-08 3.010336868669583e-08 -3.478115928601255e-08 0.00023126347514335066 1.4203434872683829e-08 3.010336868669583e-08 1.4203434872683829e-08 0.000231307974900119" pbc="T T T"
Pb       1.61200610       1.13985979       2.79207688       0.00000085      -0.00000133      -0.00000009
Pb       4.83601887       3.41958068       8.37622986      -0.00000047      -0.00000058       0.00000048
Se      -0.00000020      -0.00000017      -0.00000008       0.00000118      -0.00000179      -0.00000087
N        1.53998721       1.08893613       5.58415346       0.00044930       0.00031972      -0.00000065
N        4.90803743       3.47050654       5.58415339      -0.00045121      -0.00031900       0.00000052
N        4.06602534       1.08893582       4.12574485      -0.00022525       0.00031984       0.00039101
N        2.38200006       3.47050667       7.04256160       0.00022507      -0.00031745      -0.00039136
N        2.38200010       3.47050652       4.12574505       0.00022590      -0.00031853       0.00039124
N        4.06602495       1.08893573       7.04256179      -0.00022537       0.00031936      -0.00038993
