9
Lattice="6.099878378776786 -1.4657117328837326e-07 3.521766469240273 2.0332926194825065 5.751020352248718 3.5217665303027097 -4.646103414496055e-08 4.1933097309010004e-08 7.043533018953352" Properties=species:S:1:pos:R:3:forces:R:3 energy=-32.16954040527344 free_energy=-32.16954040527344 stress="-0.00021005629969295114 -5.70217650874838e-09 4.9579291783174995e-09 -5.70217650874838e-09 -0.0002100304263876751 -3.855524255413911e-08 4.9579291783174995e-09 -3.855524255413911e-08 -0.0002100261190207675" pbc="T T T"
Pb       2.03329298       1.43775521       3.52176623       0.00000041       0.00000086      -0.00000043
Pb       6.09987785       4.31326522      10.56529897      -0.00000134      -0.00000008      -0.00000146
Sr      -0.00000077      -0.00000020      -0.00000034       0.00000628       0.00000146       0.00000384
S        2.32090712       1.64112905       7.04353279      -0.00510350      -0.00360726      -0.00000114
S        5.81226443       4.10989152       7.04353304       0.00509706       0.00360652      -0.00000056
S        4.93942503       1.64112874       5.53173098       0.00255058      -0.00360880      -0.00441853
S        3.19374609       4.10989098       8.55533594      -0.00254946       0.00360488       0.00441724
S        3.19374614       4.10989107       5.53173101      -0.00255082       0.00360747      -0.00441723
S        4.93942498       1.64112940       8.55533548       0.00255081      -0.00360494       0.00441831
