9
Lattice="5.788181892498905 1.2142370904329823e-07 3.341808236630849 1.9293940791594997 5.457150176774661 3.3418082357408427 -1.115433186908343e-09 -1.8787752671896227e-09 6.6836164751937455" Properties=species:S:1:pos:R:3:forces:R:3 energy=-35.90595626831055 free_energy=-35.90595626831055 stress="-0.0002374519972363487 1.920371772712315e-08 4.859370891785453e-11 1.920371772712315e-08 -0.00023744997452013195 -5.874682962314637e-09 4.859370891785453e-11 -5.874682962314637e-09 -0.0002374444593442604" pbc="T T T"
Pb       1.92939370       1.36428774       3.34180818      -0.00000072       0.00000028      -0.00000101
Pb       5.78818210       4.09286266      10.02542470       0.00000059      -0.00000067      -0.00000021
Sn       0.00000004       0.00000031       0.00000068       0.00000077      -0.00000516      -0.00001883
S        2.02704312       1.43333613       6.68361648       0.00002143       0.00001717       0.00000032
S        5.69053271       4.02381372       6.68361641      -0.00001922      -0.00001578      -0.00000052
S        4.77466076       1.43333568       5.09727866      -0.00001454       0.00002156       0.00002527
S        2.94291571       4.02381423       8.26995405       0.00000723      -0.00001056      -0.00001395
S        2.94291546       4.02381452       5.09727865       0.00001363      -0.00001936       0.00002494
S        4.77466029       1.43333615       8.26995388      -0.00000909       0.00001259      -0.00001597
