9
Lattice="4.635940139817777 6.692859821842748e-08 2.67656112005397 1.5453133613292593 4.370806379060852 2.6765612615812877 -2.0410055313550193e-07 2.9014012246325388e-08 5.353122593620443" Properties=species:S:1:pos:R:3:forces:R:3 energy=-48.60795974731445 free_energy=-48.60795974731445 stress="2.819218934746459e-05 -1.7916478967094918e-08 -1.1557209234069887e-07 -1.7916478967094918e-08 2.8497410312411375e-05 5.703195071760092e-08 -1.1557209234069887e-07 5.703195071760092e-08 2.851221688615624e-05" pbc="T T T"
Pb       1.54531303       1.09270165       2.67656113       0.00000045       0.00000004       0.00000048
Pb       4.63593997       3.27810467       8.02968391      -0.00000082       0.00000009      -0.00000025
S        0.00000027      -0.00000032       0.00000001      -0.00000332       0.00000476      -0.00000256
O        1.38554078       0.97972587       5.35312268      -0.00043797      -0.00031161      -0.00000021
O        4.79571235       3.39108067       5.35312261       0.00043821       0.00031102      -0.00000392
O        3.94316926       0.97972572       3.87647484       0.00021994      -0.00031126      -0.00037992
O        2.23808439       3.39108072       6.82976993      -0.00022221       0.00031376       0.00038040
O        2.23808387       3.39108069       3.87647480      -0.00021517       0.00030851      -0.00037563
O        3.94316942       0.97972619       6.82977012       0.00022173      -0.00031686       0.00038242
