9
Lattice="4.672366312569268 6.553029849996681e-07 2.6975911504924763 1.5574559006285353 4.405149013673073 2.697591418475681 6.48284717432509e-07 7.866174087437456e-07 5.395181178123307" Properties=species:S:1:pos:R:3:forces:R:3 energy=-47.25769805908203 free_energy=-47.25769805908203 stress="-0.00011560507846297696 -1.074119992949818e-07 -2.660326288150827e-07 -1.074119992949818e-07 -0.0001153418343164958 4.073620019084956e-08 -2.660326288150827e-07 4.073620019084956e-08 -0.00011539695697138086" pbc="T T T"
Pb       1.55745506       1.10128516       2.69758917       0.00000345       0.00000794       0.00000374
Pb       4.67236859       3.30386365       8.09277233      -0.00000366      -0.00000379       0.00000093
S        0.00000072       0.00000052       0.00000191      -0.00000435      -0.00000503      -0.00001466
N        1.43552380       1.01507065       5.39518116      -0.00415659      -0.00294101       0.00000142
N        4.79429854       3.39008040       5.39518326       0.00417280       0.00294912      -0.00000798
N        3.95460444       1.01507023       3.94079254       0.00207913      -0.00294745      -0.00362027
N        2.27522080       3.39008214       6.84957193      -0.00209618       0.00295532       0.00363135
N        2.27521695       3.39008096       3.94079304      -0.00207627       0.00294256      -0.00361490
N        3.95460455       1.01506956       6.84957115       0.00208199      -0.00295746       0.00362051
