9
Lattice="6.843411541417806 -5.086485972452602e-08 3.9510454382084914 2.2811371051490648 6.452030423303686 3.9510454856108295 -7.279862786211222e-08 6.579375054347578e-09 7.902091002507851" Properties=species:S:1:pos:R:3:forces:R:3 energy=-29.009113311767578 free_energy=-29.009113311767578 stress="-0.00017755453882273287 1.2486471412387345e-08 1.8020771541671365e-09 1.2486471412387345e-08 -0.0001775671262294054 6.128160756624368e-10 1.8020771541671365e-09 6.128160756624368e-10 -0.00017756433226168156" pbc="T T T"
Pb       2.28113695       1.61300713       3.95104539      -0.00000034      -0.00000175      -0.00000046
Pb       6.84341133       4.83902326      11.85313657       0.00000032       0.00000151       0.00000115
Sr      -0.00000002      -0.00000001      -0.00000067       0.00000095       0.00000015       0.00000321
Te       2.63581760       1.86380398       7.90209111      -0.00565416      -0.00399918       0.00000011
Te       6.48873103       4.58822665       7.90209087       0.00565276       0.00399868      -0.00000027
Te       5.52550326       1.86380393       6.23373045       0.00282764      -0.00399883      -0.00489600
Te       3.59904539       4.58822658       9.57045189      -0.00282659       0.00399776       0.00489489
Te       3.59904579       4.58822644       6.23373035      -0.00282677       0.00399896      -0.00489639
Te       5.52550296       1.86380356       9.57045176       0.00282619      -0.00399726       0.00489375
