9
Lattice="4.8294507759090175 2.8117647313924933e-08 2.7882851070792665 1.6098168466764373 4.55325060561034 2.78828528918048 -1.2618044053458255e-07 1.3380439911416084e-07 5.576570432709572" Properties=species:S:1:pos:R:3:forces:R:3 energy=-45.118324279785156 free_energy=-45.118324279785156 stress="-0.00018643630028236657 1.0008952955331551e-07 -2.4088997463422857e-08 1.0008952955331551e-07 -0.00018640083726495504 -6.578381572808212e-08 -2.4088997463422857e-08 -6.578381572808212e-08 -0.00018636322056408972" pbc="T T T"
Pb       1.60981721       1.13831176       2.78828493       0.00000068      -0.00000312      -0.00000194
Pb       4.82945138       3.41493819       8.36485502       0.00000262      -0.00000195      -0.00000276
Se       0.00000013      -0.00000302      -0.00000237       0.00000165      -0.00004772      -0.00003421
O        1.50354404       1.06316717       5.57657056       0.00070977       0.00051296       0.00000761
O        4.93572315       3.49008508       5.57657059      -0.00071621      -0.00049567       0.00000768
O        4.07767780       1.06316712       4.09039431      -0.00035763       0.00051522       0.00062466
O        2.36158896       3.49008409       7.06274771       0.00035965      -0.00049925      -0.00061226
O        2.36158933       3.49008463       4.09039453       0.00035769      -0.00049520       0.00062466
O        4.07767814       1.06316783       7.06274743      -0.00035900       0.00051582      -0.00061142
