9
Lattice="6.547087726053464 -1.7533345361743532e-08 3.7799628103670257 2.18236251757394 6.172653734809078 3.779962881808243 1.1954048227224702e-09 8.834253444668852e-08 7.559925618663552" Properties=species:S:1:pos:R:3:forces:R:3 energy=-29.99856185913086 free_energy=-29.99856185913086 stress="1.5928791981423274e-05 -1.0403188532848162e-08 4.5883713495342704e-10 -1.0403188532848162e-08 1.5940566299832426e-05 -3.4144317928586077e-10 4.5883713495342704e-10 -3.4144317928586077e-10 1.5948562577250414e-05" pbc="T T T"
Pb       2.18236230       1.54316241       3.77996322       0.00000013      -0.00000375       0.00000103
Pb       6.54708808       4.62949009      11.33988940       0.00000191      -0.00000032       0.00000319
Sn      -0.00000009      -0.00000022      -0.00000004       0.00000118       0.00000114      -0.00000031
Te       2.36747576       1.67405907       7.55992552       0.00011401       0.00008143       0.00000007
Te       6.36197474       4.49859610       7.55992535      -0.00011803      -0.00008160      -0.00000120
Te       5.36334952       1.67405866       5.83025675      -0.00005724       0.00008185       0.00009970
Te       3.36610047       4.49859584       9.28959364       0.00005763      -0.00007975      -0.00010057
Te       3.36610075       4.49859543       5.83025761       0.00005835      -0.00007966       0.00009964
Te       5.36334941       1.67405789       9.28959383      -0.00005800       0.00008067      -0.00010164
