9
Lattice="4.924964535244391 1.5120131859071092e-07 2.8434293927405547 1.6416549404391547 4.643301562658519 2.84342947448695 -9.014723698730249e-08 3.6374747660485755e-08 5.686858941620731" Properties=species:S:1:pos:R:3:forces:R:3 energy=-53.28740692138672 free_energy=-53.28740692138672 stress="-0.0003066417411901057 4.3769070146026934e-08 3.532514369908313e-08 4.3769070146026934e-08 -0.00030669025727547705 -1.969357477094036e-08 3.532514369908313e-08 -1.969357477094036e-08 -0.00030677166068926454" pbc="T T T"
Pb       1.64165518       1.16082579       2.84342888       0.00000128       0.00000037      -0.00000252
Pb       4.92496509       3.48247604       8.53028729       0.00000131      -0.00000021      -0.00000669
Ti      -0.00000066      -0.00000049      -0.00000135       0.00000372       0.00000278       0.00000443
O        1.56857727       1.10915208       5.68685887       0.00472111       0.00334096       0.00000287
O        4.99804231       3.53415009       5.68686007      -0.00473046      -0.00334316       0.00000449
O        4.14067568       1.10915170       4.20185733      -0.00235945       0.00334018       0.00409275
O        2.42594339       3.53414999       7.17186158       0.00236657      -0.00334841      -0.00409639
O        2.42594315       3.53414954       4.20185749       0.00236177      -0.00333887       0.00409538
O        4.14067557       1.10915212       7.17186119      -0.00236639       0.00334626      -0.00409347
