9
Lattice="5.945618224315497 -2.2536043419565645e-07 3.4327044236132456 1.9818725222728302 5.605582788794988 3.432704435207257 3.6322608631897366e-08 3.988368714445852e-08 6.865408784313909" Properties=species:S:1:pos:R:3:forces:R:3 energy=-40.1234016418457 free_energy=-40.1234016418457 stress="6.687222048640251e-05 -2.6757080107131515e-08 -8.342285084950163e-09 -2.6757080107131515e-08 6.685493281111121e-05 -1.4290556293872214e-08 -8.342285084950163e-09 -1.4290556293872214e-08 6.690979353152215e-05" pbc="T T T"
Pb       1.98187298       1.40139602       3.43270408      -0.00000087       0.00000034      -0.00000060
Pb       5.94561796       4.20418673      10.29811314       0.00000011      -0.00000048      -0.00000032
Ti      -0.00000005       0.00000021       0.00000038      -0.00000058      -0.00000104      -0.00000192
Se       2.02326020       1.43066097       6.86540885      -0.00051159      -0.00036214       0.00000006
Se       5.90423059       4.17492147       6.86540890       0.00051388       0.00036402      -0.00000007
Se       4.93398779       1.43066105       5.18489972       0.00025682      -0.00036378      -0.00044610
Se       2.99350291       4.17492110       8.54591778      -0.00025820       0.00036510       0.00044759
Se       2.99350297       4.17492123       5.18489989      -0.00025757       0.00036385      -0.00044675
Se       4.93398774       1.43066158       8.54591778       0.00025809      -0.00036583       0.00044817
