9
Lattice="4.944862772760395 6.490556347121066e-08 2.8549176583666522 1.6482875799176055 4.662061327789591 2.8549177834139488 -1.05006487855828e-07 7.890021485262959e-08 5.7098354986098965" Properties=species:S:1:pos:R:3:forces:R:3 energy=-43.617034912109375 free_energy=-43.617034912109375 stress="0.0005738591426052153 1.6493240551085364e-08 1.2745581479123302e-08 1.6493240551085364e-08 0.0005739126936532557 1.6428808535806638e-08 1.2745581479123302e-08 1.6428808535806638e-08 0.0005738133913837373" pbc="T T T"
Pb       1.64828771       1.16551529       2.85491779       0.00000218      -0.00000010       0.00000170
Pb       4.94486288       3.49654624       8.56475374       0.00000011      -0.00000038       0.00000138
Te       0.00000026      -0.00000007       0.00000024      -0.00000486       0.00000686      -0.00000186
N        1.67250690       1.18264125       5.70983523      -0.00062001      -0.00043827      -0.00000035
N        4.92064325       3.47942048       5.70983521       0.00061882       0.00043827      -0.00000068
N        4.10860918       1.18264101       4.30335096       0.00030941      -0.00043827      -0.00053710
N        2.48454046       3.47942063       7.11631957      -0.00030881       0.00043601       0.00053138
N        2.48454118       3.47942023       4.30335116      -0.00030744       0.00043589      -0.00053388
N        4.10860906       1.18264087       7.11631983       0.00031084      -0.00044060       0.00053871
