9
Lattice="4.991933754896611 5.20395301750324e-08 2.8820943010689106 1.663977972117108 4.70644016752748 2.8820942928331728 4.954413072996018e-08 2.4946312289834297e-08 5.764188516324871" Properties=species:S:1:pos:R:3:forces:R:3 energy=-55.15642166137695 free_energy=-55.15642166137695 stress="0.00011718121822923422 5.327268226551496e-08 -3.2203553157472697e-09 5.327268226551496e-08 0.00011720220209099352 1.714615471826164e-08 -3.2203553157472697e-09 1.714615471826164e-08 0.00011713018466252834" pbc="T T T"
Pb       1.66397804       1.17660978       2.88209489       0.00000138      -0.00000058       0.00000143
Pb       4.99193374       3.52983001       8.64628315      -0.00000070      -0.00000067       0.00000441
Ta       0.00000002      -0.00000031       0.00000015       0.00000217      -0.00000579      -0.00000145
N        1.71048242       1.20949391       5.76418816      -0.00213808      -0.00151169      -0.00000221
N        4.94542997       3.49694646       5.76418804       0.00213945       0.00151330      -0.00000221
N        4.13669255       1.20949393       4.36341550       0.00106737      -0.00150949      -0.00184983
N        2.51921878       3.49694698       7.16496209      -0.00106928       0.00151390       0.00185084
N        2.51921913       3.49694672       4.36341477      -0.00106844       0.00151020      -0.00185061
N        4.13669261       1.20949350       7.16496171       0.00106695      -0.00150883       0.00184953
