9
Lattice="5.617220672719919 -1.2447917679878155e-08 3.2431039578226306 1.8724068839159298 5.295966401662366 3.243103949603458 1.1453841594078155e-07 7.092455351657865e-08 6.486207717258858" Properties=species:S:1:pos:R:3:forces:R:3 energy=-43.180213928222656 free_energy=-43.180213928222656 stress="1.6804959159344435e-05 3.058386610632624e-08 5.238221412184885e-09 3.058386610632624e-08 1.679594424786046e-05 -3.3524212739166614e-08 5.238221412184885e-09 -3.3524212739166614e-08 1.672919825068675e-05" pbc="T T T"
Pb       1.87240663       1.32399182       3.24310395      -0.00000018      -0.00000042       0.00000015
Pb       5.61722137       3.97197432       9.72931174       0.00000091       0.00000027       0.00000051
Ti       0.00000048      -0.00000053      -0.00000017      -0.00000483       0.00000266       0.00000321
S        1.90865325       1.34962171       6.48620766      -0.00040701      -0.00028643       0.00000035
S        5.58097427       3.94634505       6.48620775       0.00040868       0.00028804       0.00000037
S        4.66289408       1.34962184       4.89604609       0.00020339      -0.00028709      -0.00035140
S        2.82673316       3.94634528       8.07636978      -0.00020081       0.00028235       0.00034538
S        2.82673324       3.94634480       4.89604604      -0.00020346       0.00028732      -0.00035009
S        4.66289421       1.34962162       8.07636969       0.00020349      -0.00028658       0.00035161
