9
Lattice="6.371069452081286 8.976166279376114e-08 3.6783387867651705 2.123689878052726 6.006701870682965 3.6783388282232314 -9.992621746834656e-08 -1.988291380021037e-08 7.35667774660749" Properties=species:S:1:pos:R:3:forces:R:3 energy=-35.88837814331055 free_energy=-35.88837814331055 stress="2.0353256331873126e-05 2.4153269606586036e-08 -9.194904393439174e-09 2.4153269606586036e-08 2.032212432823144e-05 9.603167150373793e-09 -9.194904393439174e-09 9.603167150373793e-09 2.0310793843236752e-05" pbc="T T T"
Pb       2.12369056       1.50167485       3.67833911       0.00000314      -0.00000299       0.00000093
Pb       6.37107084       4.50502819      11.03501479       0.00000361       0.00000578      -0.00000492
Ti       0.00000004      -0.00000016      -0.00000014      -0.00000197       0.00000048       0.00000154
Te       2.22028015       1.56997434       7.35667774      -0.00100468      -0.00071129       0.00000039
Te       6.27447912       4.43672781       7.35667905       0.00100272       0.00071044       0.00000187
Te       5.26092868       1.56997371       5.60115768       0.00050047      -0.00071038      -0.00086821
Te       3.23382945       4.43672745       9.11219747      -0.00050177       0.00070891       0.00086772
Te       3.23382855       4.43672760       5.60115779      -0.00050180       0.00070834      -0.00086588
Te       5.26092951       1.56997392       9.11219800       0.00050028      -0.00070921       0.00086650
