9
Lattice="4.964958226268559 1.5358822079813497e-07 2.8665194842717723 1.6549860787697448 4.681007855096462 2.8665197292831555 -1.5207220362434508e-07 1.925452210646352e-07 5.733039231940206" Properties=species:S:1:pos:R:3:forces:R:3 energy=-51.68585205078125 free_energy=-51.68585205078125 stress="-6.247854616958648e-05 -8.356465741599095e-09 1.2619344680331324e-08 -8.356465741599095e-09 -6.234213651623577e-05 -2.9594630746032635e-08 1.2619344680331324e-08 -2.9594630746032635e-08 -6.255321204662323e-05" pbc="T T T"
Pb       1.65498615       1.17025187       2.86652002       0.00000095      -0.00000299       0.00000261
Pb       4.96495889       3.51075601       8.59955873       0.00000334      -0.00000299       0.00000065
V        0.00000020      -0.00000175       0.00000061       0.00000491      -0.00001180       0.00000394
O        1.52969219       1.08165752       5.73303896       0.00349820       0.00247645      -0.00000036
O        5.09025070       3.59935225       5.73303938      -0.00350142      -0.00247157      -0.00000058
O        4.20011131       1.08165688       4.19127231      -0.00175017       0.00247633       0.00302947
O        2.41983201       3.59935206       7.27480546       0.00174862      -0.00247133      -0.00303102
O        2.41983255       3.59935122       4.19127307       0.00174534      -0.00246608       0.00302374
O        4.20011188       1.08165700       7.27480540      -0.00174838       0.00247371      -0.00302827
