9
Lattice="4.895885376484257 1.622176203462015e-07 2.826640783187573 1.6319618980302042 4.615885174183174 2.8266408647176995 1.8271727048053415e-08 1.1277368886257105e-07 5.653281534727572" Properties=species:S:1:pos:R:3:forces:R:3 energy=-53.893104553222656 free_energy=-53.893104553222656 stress="0.00021047558402642608 -5.3993396420537465e-08 4.4812047406139754e-08 -5.3993396420537465e-08 0.00021047799964435399 -4.714809165307088e-08 4.4812047406139754e-08 -4.714809165307088e-08 0.00021047407062724233" pbc="T T T"
Pb       1.63196141       1.15397109       2.82664069      -0.00000262      -0.00000094       0.00000075
Pb       4.89588568       3.46191434       8.47992287       0.00000020       0.00000062      -0.00000016
V       -0.00000007       0.00000012      -0.00000009       0.00000198      -0.00000010       0.00000455
N        1.59936405       1.13092123       5.65328153      -0.00328088      -0.00231981       0.00000074
N        4.92848335       3.48496427       5.65328158       0.00327909       0.00231802      -0.00000160
N        4.09620328       1.13092112       4.21173083       0.00164241      -0.00232100      -0.00284231
N        2.43164385       3.48496428       7.09483239      -0.00164086       0.00232017       0.00284052
N        2.43164390       3.48496402       4.21173083      -0.00164151       0.00232458      -0.00284445
N        4.09620374       1.13092164       7.09483239       0.00164139      -0.00232124       0.00284076
