9
Lattice="6.282507697827436 -1.1434756640035183e-07 3.6272077060024652 2.094169191109981 5.923206364566208 3.6272075911522497 1.1426019360520413e-07 -5.986796804026093e-08 7.25441521410054" Properties=species:S:1:pos:R:3:forces:R:3 energy=-35.73737335205078 free_energy=-35.73737335205078 stress="4.223243013257161e-05 9.102277154227068e-09 -7.855655570487841e-10 9.102277154227068e-09 4.2260540794814005e-05 -1.1013416845173651e-08 -7.855655570487841e-10 -1.1013416845173651e-08 4.226337841828354e-05" pbc="T T T"
Pb       2.09416766       1.48080395       3.62720830      -0.00000601       0.00000971       0.00000188
Pb       6.28250841       4.44240387      10.88162026       0.00000328      -0.00000462      -0.00000784
V       -0.00000022       0.00000063       0.00000010       0.00000028      -0.00000043      -0.00000107
Te       2.17152418       1.53550179       7.25441490       0.00353904       0.00250387      -0.00000110
Te       6.20515302       4.38770352       7.25441677      -0.00353686      -0.00250526       0.00000245
Te       5.19674614       1.53550022       5.50780451      -0.00176950       0.00250254       0.00306715
Te       3.17993185       4.38770457       9.00102745       0.00176906      -0.00250310      -0.00306289
Te       3.17993030       4.38770420       5.50780350       0.00176718      -0.00250517       0.00306453
Te       5.19674645       1.53550205       9.00102627      -0.00176644       0.00250241      -0.00306319
