9
Lattice="4.862096805076793 2.9068903411295647e-08 2.807133025314437 1.6206989655096276 4.584029363509913 2.807133019983873 -3.35141870490396e-08 -3.022676930001097e-08 5.61426610867716" Properties=species:S:1:pos:R:3:forces:R:3 energy=-49.058082580566406 free_energy=-49.058082580566406 stress="-3.521044345689006e-05 5.7831780253536635e-08 4.1806554662571216e-08 5.7831780253536635e-08 -3.524107887642458e-05 4.877709258721552e-08 4.1806554662571216e-08 4.877709258721552e-08 -3.507902874844149e-05" pbc="T T T"
Pb       1.62069949       1.14600936       2.80713355      -0.00000089       0.00000473      -0.00000021
Pb       4.86209603       3.43802250       8.42139854      -0.00000118       0.00000254       0.00000040
Y       -0.00000047       0.00000059       0.00000051       0.00000427      -0.00000173      -0.00000610
O        1.80721081       1.27789090       5.61426625      -0.00024864      -0.00017783      -0.00000117
O        4.67558537       3.30613744       5.61426635       0.00025147       0.00017425       0.00000166
O        3.95849163       1.27789081       4.37222306       0.00012058      -0.00017458      -0.00021538
O        2.52430460       3.30613726       6.85630871      -0.00012459       0.00017610       0.00022066
O        2.52430417       3.30613817       4.37222316      -0.00012459       0.00017363      -0.00021598
O        3.95849150       1.27789057       6.85630865       0.00012368      -0.00017706       0.00021622
