9
Lattice="6.676674876488866 3.760489841276212e-08 3.854780197135358 2.225558355702902 6.294829320229947 3.8547801484894553 5.5024015833368154e-08 -2.0670952596842865e-08 7.709560298966314" Properties=species:S:1:pos:R:3:forces:R:3 energy=-34.54496383666992 free_energy=-34.54496383666992 stress="2.083828985632863e-05 -1.7529679041672352e-08 4.413520215962308e-09 -1.7529679041672352e-08 2.0839679564232938e-05 -5.5905968743275025e-09 4.413520215962308e-09 -5.5905968743275025e-09 2.084266634483356e-05" pbc="T T T"
Pb       2.22555805       1.57370780       3.85478074      -0.00000146       0.00000173       0.00000303
Pb       6.67667518       4.72112207      11.56434101       0.00000124       0.00000002       0.00000056
Y        0.00000012       0.00000027       0.00000000       0.00000041      -0.00000221      -0.00000135
Te       2.46324886       1.74177977       7.70956015       0.00090301       0.00063994       0.00000006
Te       6.43898450       4.55304888       7.70956034      -0.00090196      -0.00063822       0.00000143
Te       5.44505011       1.74178034       5.98801611      -0.00045066       0.00063677       0.00078064
Te       3.45718278       4.55304976       9.43110418       0.00045123      -0.00063919      -0.00078296
Te       3.45718287       4.55304876       5.98801620       0.00044898      -0.00063719       0.00078035
Te       5.44505067       1.74177969       9.43110385      -0.00045077       0.00063839      -0.00078181
