9
Lattice="5.94593934751334 4.016783777199011e-08 3.432889707510065 1.981979849003773 5.605885354277825 3.4328896579237176 7.167850785461144e-08 -1.0046273384974867e-08 6.865779290869299" Properties=species:S:1:pos:R:3:forces:R:3 energy=-39.2944221496582 free_energy=-39.2944221496582 stress="-3.0093640816630796e-05 -1.4368044531920532e-08 1.8155480674408864e-08 -1.4368044531920532e-08 -3.0077948395046405e-05 5.997894625409117e-09 1.8155480674408864e-08 5.997894625409117e-09 -3.008657404279802e-05" pbc="T T T"
Pb       1.98197969       1.40147072       3.43288969      -0.00000039      -0.00000404       0.00000072
Pb       5.94593978       4.20441482      10.29866893      -0.00000012       0.00000384       0.00000044
Y       -0.00000134       0.00000035      -0.00000041       0.00001279      -0.00000379       0.00000226
S        2.16738474       1.53257202       6.86577929      -0.00032983      -0.00023188      -0.00000037
S        5.76053536       4.07331355       6.86577941       0.00032265       0.00022837       0.00000044
S        4.86224735       1.53257170       5.30989977       0.00016074      -0.00022832      -0.00028072
S        3.06567217       4.07331354       8.42165885      -0.00016455       0.00023161       0.00028262
S        3.06567225       4.07331302       5.30989993      -0.00016463       0.00023369      -0.00028428
S        4.86224707       1.53257185       8.42165917       0.00016337      -0.00022946       0.00027884
