9
Lattice="4.631682090801506 2.8206655348756954e-08 2.67410265649446 1.5438940495767353 4.366791514102919 2.6741026691105185 -7.511897522215486e-09 1.0139773576347478e-08 5.3482053259999525" Properties=species:S:1:pos:R:3:forces:R:3 energy=-39.63737869262695 free_energy=-39.63737869262695 stress="2.3005010007182136e-05 5.492180221722265e-08 -7.314564243188215e-08 5.492180221722265e-08 2.297485843882896e-05 9.331878203511224e-08 -7.314564243188215e-08 9.331878203511224e-08 2.2868442101753317e-05" pbc="T T T"
Pb       1.54389400       1.09169801       2.67410258       0.00000050       0.00000075       0.00000060
Pb       4.63168187       3.27509320       8.02230842       0.00000030      -0.00000067       0.00000085
Zn       0.00000022       0.00000032       0.00000029      -0.00000116      -0.00001094      -0.00000949
O        1.61085812       1.13904907       5.34820511      -0.00480184      -0.00339633      -0.00000016
O        4.56471784       3.22774240       5.34820502       0.00480926       0.00339839      -0.00000162
O        3.82625348       1.13904831       4.06914658       0.00239936      -0.00339437      -0.00415516
O        2.34932297       3.22774290       6.62726370      -0.00240542       0.00340286       0.00416502
O        2.34932296       3.22774310       4.06914654      -0.00240076       0.00339559      -0.00416100
O        3.82625295       1.13904872       6.62726455       0.00240016      -0.00339538       0.00416127
