9
Lattice="6.32088384189493 1.5302602626814127e-07 3.6493643866452907 2.1069613952296504 5.959386692684806 3.6493644380461063 1.0622745098257536e-07 1.3806713596680126e-07 7.298728589299188" Properties=species:S:1:pos:R:3:forces:R:3 energy=-27.20035743713379 free_energy=-27.20035743713379 stress="0.00013373354158829898 1.2621602429874201e-08 5.122069879348601e-09 1.2621602429874201e-08 0.00013374758418649435 -1.9323335820331522e-08 5.122069879348601e-09 -1.9323335820331522e-08 0.00013378000585362315" pbc="T T T"
Pb       2.10696000       1.48984616       3.64936462      -0.00000718      -0.00000143       0.00000130
Pb       6.32088559       4.46954021      10.94809200       0.00000814       0.00000016      -0.00000274
Zn       0.00000004      -0.00000022       0.00000147      -0.00000039       0.00000120      -0.00001221
Te       2.23913334       1.58330764       7.29872859       0.00149296       0.00105882      -0.00000153
Te       6.18871185       4.37607972       7.29872955      -0.00149352      -0.00105768       0.00000133
Te       5.20131841       1.58330577       5.58851232      -0.00074726       0.00105780       0.00129928
Te       3.22652749       4.37608052       9.00894436       0.00074208      -0.00105184      -0.00129344
Te       3.22652625       4.37608100       5.58851223       0.00074618      -0.00105914       0.00130013
Te       5.20131849       1.58330715       9.00894452      -0.00074111       0.00105209      -0.00129211
