9
Lattice="5.887659708110887 1.0145873810506262e-07 3.399241863815151 1.9625533261836865 5.550938863146919 3.3992418733578704 4.893270181244992e-08 4.628800755471296e-08 6.798483642876412" Properties=species:S:1:pos:R:3:forces:R:3 energy=-30.136930465698242 free_energy=-30.136930465698242 stress="-0.00012623119982890785 8.10576317178402e-09 1.943757865774387e-08 8.10576317178402e-09 -0.00012623381917364895 1.4263344283449442e-08 1.943757865774387e-08 1.4263344283449442e-08 -0.000126297352835536" pbc="T T T"
Pb       1.96255334       1.38773427       3.39924192       0.00000182      -0.00000201      -0.00000324
Pb       5.88765989       4.16320439      10.19772586       0.00000089       0.00000141       0.00000375
Zn      -0.00000001       0.00000004       0.00000100       0.00000075      -0.00000008      -0.00001107
Se       2.05985280       1.45653585       6.79848369       0.00274643       0.00194325      -0.00000151
Se       5.79036029       4.09440321       6.79848367      -0.00274843      -0.00194316      -0.00000064
Se       4.85773352       1.45653581       5.18312658      -0.00137548       0.00194508       0.00238173
Se       2.99247997       4.09440268       8.41384015       0.00137094      -0.00193987      -0.00237538
Se       2.99247957       4.09440319       5.18312648       0.00137531      -0.00194480       0.00238243
Se       4.85773297       1.45653659       8.41384013      -0.00137224       0.00194021      -0.00237609
