9
Lattice="5.052001672027266 1.0557728198083806e-07 2.916774651962675 1.684000542090848 4.763073078080775 2.9167748507861346 -8.558649530812e-08 1.829892340241716e-07 5.833549452165496" Properties=species:S:1:pos:R:3:forces:R:3 energy=-50.10829544067383 free_energy=-50.10829544067383 stress="-0.00016453757416456938 -1.6038947947549786e-08 1.4956675897792593e-08 -1.6038947947549786e-08 -0.00016453444550279528 -6.903928539969684e-09 1.4956675897792593e-08 -6.903928539969684e-09 -0.00016452884301543236" pbc="T T T"
Pb       1.68400060       1.19076811       2.91677476      -0.00000112      -0.00000120       0.00000010
Pb       5.05200135       3.57230461       8.75032398      -0.00000151      -0.00000240       0.00000048
Zr      -0.00000023       0.00000000       0.00000001      -0.00000031      -0.00000039      -0.00000037
N        1.79242611       1.26743688       5.83354931       0.00457075       0.00323200      -0.00000020
N        4.94357562       3.49563683       5.83354880      -0.00457102      -0.00322956      -0.00000159
N        4.15578875       1.26743694       4.46906144      -0.00228351       0.00323167       0.00395802
N        2.58021386       3.49563633       7.19803822       0.00228523      -0.00323161      -0.00395706
N        2.58021373       3.49563619       4.46906160       0.00228451      -0.00323096       0.00395730
N        4.15578874       1.26743764       7.19803773      -0.00228287       0.00323248      -0.00395662
