9
Lattice="5.427333424485762 -1.0025559574923125e-07 3.1334723622866005 1.8091110536682589 5.116938885063603 3.1334723506907425 -6.381036114662094e-08 -5.932267431974134e-08 6.266944835095987" Properties=species:S:1:pos:R:3:forces:R:3 energy=-28.765186309814453 free_energy=-28.765186309814453 stress="0.00015951675595715642 3.1542921163918436e-08 -2.0697703106975496e-08 3.1542921163918436e-08 0.00015943734615575522 -3.0031056752477525e-08 -2.0697703106975496e-08 -3.0031056752477525e-08 0.0001595024805283174" pbc="T T T"
Pd       1.80911166       1.27923632       3.13347202       0.00000595       0.00002020      -0.00000636
Pd       5.42733343       3.83770222       9.40041970      -0.00000118      -0.00002132       0.00002458
Ag      -0.00000020      -0.00000005      -0.00000092       0.00000037       0.00000019       0.00001860
S        1.94823667       1.37761235       6.26694522       0.00385064       0.00273633       0.00000569
S        5.28820759       3.73932645       6.26694325      -0.00385377      -0.00273499      -0.00001539
S        4.45321506       1.37761286       4.82069445      -0.00192238       0.00274172       0.00332883
S        2.78322882       3.73932658       7.71319523       0.00192329      -0.00274432      -0.00334021
S        2.78323010       3.73932691       4.82069447       0.00193255      -0.00273129       0.00332883
S        4.45321451       1.37761124       7.71319484      -0.00193544       0.00273374      -0.00334424
