9
Lattice="5.400811282733724 9.67976239093723e-09 3.118159637618009 1.8002704260621223 5.091933660205115 3.1181596560503984 6.9615763286267e-08 7.180076403160613e-08 6.2363191546579735" Properties=species:S:1:pos:R:3:forces:R:3 energy=-29.576618194580078 free_energy=-29.576618194580078 stress="-4.969660221831873e-05 7.892754783078715e-10 6.509551297995131e-08 7.892754783078715e-10 -4.938537676935084e-05 9.927867949954816e-08 6.509551297995131e-08 9.927867949954816e-08 -4.965941479895264e-05" pbc="T T T"
Pd       1.80027336       1.27297767       3.11816001       0.00003158      -0.00006501       0.00000877
Pd       5.40081315       3.81895272       9.35447306       0.00001778       0.00002901      -0.00006559
Au      -0.00000030       0.00000041       0.00000027       0.00000342      -0.00000504      -0.00000542
S        1.93614414       1.36905945       6.23631832      -0.00577933      -0.00410903      -0.00001568
S        5.26493656       3.72287561       6.23632304       0.00576738       0.00412452       0.00004232
S        4.43273734       1.36905776       4.79491005       0.00286448      -0.00412434      -0.00499952
S        2.76834420       3.72287615       7.67772756      -0.00287548       0.00413361       0.00500548
S        2.76834090       3.72287503       4.79491092      -0.00290954       0.00411156      -0.00499007
S        4.43273783       1.36906022       7.67773054       0.00287956      -0.00409505       0.00501952
