9
Lattice="4.61725747972649 -3.054013848871173e-08 2.6657749906534685 1.539085809898002 4.353192343761891 2.665774969667899 7.260748216821309e-08 2.5639276405661672e-08 5.331549855547079" Properties=species:S:1:pos:R:3:forces:R:3 energy=-35.080810546875 free_energy=-35.080810546875 stress="-0.0004347995563875884 8.297568143689205e-08 -1.4959033478589845e-07 8.297568143689205e-08 -0.0004349034570623189 -8.328380118882706e-08 -1.4959033478589845e-07 -8.328380118882706e-08 -0.00043489792733453214" pbc="T T T"
Pd       1.53908586       1.08829902       2.66577402       0.00000187       0.00001154      -0.00001528
Pd       4.61725733       3.26489435       7.99732845      -0.00000403      -0.00000083       0.00004279
Au       0.00000016      -0.00000011       0.00000012      -0.00000287       0.00000217      -0.00000177
O        1.62346382       1.14796235       5.33155057       0.00292954       0.00207046       0.00001057
O        4.53287965       3.20522968       5.33154785      -0.00292656      -0.00207451      -0.00002176
O        3.80552603       1.14796301       4.07173528      -0.00145787       0.00207815       0.00253043
O        2.35081680       3.20522962       6.59136402       0.00145596      -0.00207916      -0.00253648
O        2.35081867       3.20523005       4.07173519       0.00147548      -0.00207156       0.00253102
O        3.80552520       1.14796141       6.59136373      -0.00147171       0.00206375      -0.00253904
