9
Lattice="5.623838963133454 4.5659305830932234e-08 3.246924904012185 1.8746131169451445 5.302205822805477 3.246924754733822 1.0166235860469371e-07 -1.1094184224984695e-07 6.493849631940001" Properties=species:S:1:pos:R:3:forces:R:3 energy=-30.694868087768555 free_energy=-30.694868087768555 stress="-0.00025224965065717697 -5.674614111939036e-09 -5.645082179484007e-09 -5.674614111939036e-09 -0.00025222613476216793 1.1265750110567296e-08 -5.645082179484007e-09 1.1265750110567296e-08 -0.0002522399299778044" pbc="T T T"
Pd       1.87461118       1.32554872       3.24692584      -0.00000942      -0.00001141       0.00000512
Pd       5.62383974       3.97665512       9.74077396       0.00000341       0.00000431      -0.00000397
Au       0.00000014       0.00000042       0.00000020      -0.00000073      -0.00000224       0.00000025
Se       2.18582794       1.54561332       6.49384987      -0.00695475      -0.00491644      -0.00000158
Se       5.31262431       3.75659182       6.49385013       0.00695761       0.00492131       0.00000056
Se       4.53092496       1.54561241       5.13990735       0.00347649      -0.00492196      -0.00602204
Se       2.96752765       3.75659403       7.84779138      -0.00347815       0.00492709       0.00601877
Se       2.96752674       3.75659389       5.13990694      -0.00347791       0.00492170      -0.00601949
Se       4.53092610       1.54561327       7.84779149       0.00348358      -0.00492246       0.00602235
