9
Lattice="4.307535117611038 2.6239254142353565e-07 2.486956606978979 1.4358452543823208 4.061183185133853 2.4869566627639443 -5.542135629654688e-07 -3.2356591538366864e-07 4.9739141738839" Properties=species:S:1:pos:R:3:forces:R:3 energy=-40.7167854309082 free_energy=-40.7167854309082 stress="6.960443715797737e-05 8.982386390243846e-08 6.07389324613905e-07 8.982386390243846e-08 6.963445775909349e-05 3.439746762978757e-07 6.07389324613905e-07 3.439746762978757e-07 6.841716094641015e-05" pbc="T T T"
Pd       1.43585337       1.01531332       2.48694528       0.00011897       0.00022376      -0.00016205
Pd       4.30752888       3.04589145       7.46088753      -0.00008779       0.00004854       0.00022612
Be      -0.00000019      -0.00000009      -0.00000053       0.00000149       0.00002701       0.00001061
O        1.34828444       0.95337573       4.97391791      -0.00027153      -0.00024340       0.00005367
O        4.39509836       3.10780029       4.97390654       0.00029412       0.00014949      -0.00008378
O        3.63339518       0.95337999       3.65460236       0.00014481      -0.00017792      -0.00025749
O        2.10998191       3.10779561       6.29322670      -0.00017822       0.00008497       0.00025854
O        2.10998970       3.10779915       3.65459829      -0.00008966       0.00012657      -0.00029030
O        3.63338781       0.95337712       6.29322566       0.00006784      -0.00023875       0.00024536
