9
Lattice="7.215372626586672 -0.07530847149484174 2.1757708514386995 1.7725210736875072 5.107787546930967 2.97474112041895 -1.1951976984663555 0.3675637013106275 6.039410446582493" Properties=species:S:1:pos:R:3:forces:R:3 energy=-37.4946403503418 free_energy=-37.4946403503418 stress="-0.0001176401783595793 5.414843144535553e-06 -8.237882138928398e-05 5.414843144535553e-06 4.076022014487535e-05 1.0998711331922095e-05 -8.237882138928398e-05 1.0998711331922095e-05 -9.108761878451332e-05" pbc="T T T"
Pd       3.59972559       0.17820599       1.62100247       0.00046685      -0.00547161      -0.00141266
Pd       5.35844265       4.52302177       7.32959620       0.00297692       0.00104398       0.00662775
Be      -0.64772892       0.06710612       0.52994818      -0.00062536      -0.00157017      -0.00002971
Se       1.82463166       0.83519517       5.32129991      -0.00072610       0.00751549      -0.00231616
Se       6.86937223       3.54080602       5.64906958      -0.00284353       0.00102043      -0.00200267
Se       4.91295725       1.42473773       3.73560611       0.00016846       0.00067522      -0.00174532
Se       1.72642452       4.43092180       8.37420105      -0.00051513      -0.00056475       0.00166304
Se       2.98722862       4.50538627       4.69017578       0.00247387      -0.00373244       0.00358047
Se       4.54073361       2.09493153       7.50816698      -0.00137609       0.00108378      -0.00436474
