9
Lattice="3.6880576172963817 -0.07884492360654827 1.5054258814074242 2.1662704159311383 0.8340347628647921 3.7736197905186017 0.8969984294327559 -0.8107291654346327 2.6757413823454566" Properties=species:S:1:pos:R:3:forces:R:3 energy=-11921514496.0 free_energy=-11921514496.0 stress="8364170752.0 107806352.0 255810000.0 107806352.0 8630894592.0 278141632.0 255810000.0 278141632.0 7835338240.0" pbc="T T T"
Pd       0.81658318      -0.61854879       2.96297525 -13181734912.00000000 6645346816.00000000 3806216704.00000000
Pd       6.56080785       0.33580100       6.70957701 -8693037056.00000000 -5110180352.00000000 -4415461888.00000000
C        0.52773929      -0.63670463      -0.67424949 -727859008.00000000 1540195072.00000000 -715161280.00000000
O        1.93489035      -1.33172022       3.45601721 -6046694912.00000000 3787970048.00000000 7282485760.00000000
O        5.95953599       0.21405170       6.61382384 12788473856.00000000 7330316288.00000000 -2724311040.00000000
O        3.28349288       0.42269279       1.83662038 -1833603072.00000000 -28214953984.00000000 1204447488.00000000
O        3.30879558       0.20668075       3.46787489 -3508719104.00000000 -344409280.00000000 -5886950400.00000000
O        1.65923866       1.19204614       4.04113221 18888298496.00000000 14120781824.00000000 -66039488.00000000
O        2.06097671       0.02299763       3.07183843 2314874368.00000000 244938752.00000000 1514782464.00000000
