9
Lattice="4.45419935507561 -5.0905954077222046e-08 2.5716333275939594 1.4847330863956723 4.199459533474233 2.5716332998262073 -2.2231210556487342e-08 -4.972827200457803e-08 5.143266693693481" Properties=species:S:1:pos:R:3:forces:R:3 energy=-41.75492477416992 free_energy=-41.75492477416992 stress="-0.0006243209354579449 6.938375207710124e-08 -4.925568930502777e-08 6.938375207710124e-08 -0.0006243459065444767 4.6064958070246576e-08 -4.925568930502777e-08 4.6064958070246576e-08 -0.0006244225660338998" pbc="T T T"
Pd       1.48473211       1.04986625       2.57163250      -0.00000921       0.00001618      -0.00001025
Pd       4.45419893       3.14959368       7.71490205      -0.00000463      -0.00001188       0.00002020
Co       0.00000013       0.00000001       0.00000002      -0.00000313      -0.00000076      -0.00000077
O        1.47692753       1.04434554       5.14326702       0.00331402       0.00234538       0.00000504
O        4.46200537       3.15511346       5.14326563      -0.00330824      -0.00234729      -0.00000942
O        3.71573634       1.04434598       3.85068997      -0.00164947       0.00234908       0.00286734
O        2.22319645       3.15511352       6.43584329       0.00165245      -0.00234842      -0.00286806
O        2.22319710       3.15511391       3.85068974       0.00166133      -0.00234586       0.00286698
O        3.71573581       1.04434546       6.43584328      -0.00165334       0.00234365      -0.00287002
