9
Lattice="4.531176238279431 -1.8274062901120526e-08 2.61607575912157 1.5103920931362342 4.272033873271267 2.616075705534174 -2.7315300837587226e-08 -8.49457127856828e-08 5.232151565554602" Properties=species:S:1:pos:R:3:forces:R:3 energy=-37.487342834472656 free_energy=-37.487342834472656 stress="-0.00021708970598410815 5.0959151565166394e-08 9.342693374492228e-08 5.0959151565166394e-08 -0.00021711159206461161 5.326515228887274e-09 9.342693374492228e-08 5.326515228887274e-09 -0.0002171168162021786" pbc="T T T"
Pd       1.51039013       1.06800704       2.61608211      -0.00002386      -0.00001833       0.00007946
Pd       4.53117434       3.20402787       7.84822498      -0.00002215       0.00003287      -0.00002625
Cu       0.00000005       0.00000015       0.00000015       0.00000320      -0.00000441      -0.00000813
O        1.54336237       1.09132005       5.23214854      -0.00084937      -0.00062498      -0.00003717
O        4.49820679       3.18071263       5.23215266       0.00086308       0.00061336       0.00001336
O        3.75949496       1.09132005       3.95266577       0.00041914      -0.00062072      -0.00074291
O        2.28207426       3.18071384       6.51163642      -0.00041226       0.00063184       0.00074142
O        2.28207288       3.18071209       3.95266545      -0.00043133       0.00060052      -0.00075150
O        3.75949758       1.09132124       6.51163596       0.00045362      -0.00061047       0.00073171
