9
Lattice="4.453777130074486 -7.823009221345015e-08 2.5713893494276014 1.484592331574378 4.199061027800471 2.571389299823517 -2.9081399963227338e-08 -8.1315990013424e-08 5.142778749225684" Properties=species:S:1:pos:R:3:forces:R:3 energy=-41.754905700683594 free_energy=-41.754905700683594 stress="-0.0007364911143667996 -4.534952413592919e-09 7.328936391104435e-08 -4.534952413592919e-09 -0.0007365070632658899 -4.391926822222558e-09 7.328936391104435e-08 -4.391926822222558e-09 -0.0007362737087532878" pbc="T T T"
Pd       1.48459084       1.04976564       2.57138923      -0.00001694       0.00000351      -0.00000268
Pd       4.45377773       3.14929674       7.71416733       0.00000648       0.00001126      -0.00000879
Co       0.00000001      -0.00000014       0.00000007      -0.00000686       0.00000365      -0.00000241
O        1.47705781       1.04443720       5.14277865      -0.00110215      -0.00078177       0.00000043
O        4.46131179       3.15462291       5.14277885       0.00111133       0.00077945       0.00000406
O        3.71524898       1.04443711       3.85055961       0.00055724      -0.00078851      -0.00095314
O        2.22312117       3.15462324       6.43499855      -0.00055286       0.00077796       0.00095600
O        2.22312082       3.15462339       3.85055929      -0.00055546       0.00078046      -0.00095284
O        3.71524858       1.04443732       6.43499809       0.00055841      -0.00078583       0.00095868
