9
Lattice="4.504101818485259 -3.1781765865717946e-08 2.6004444308334467 1.5013672577838042 4.246507864146733 2.600444404992095 -6.353551133273202e-10 -3.209838402120646e-08 5.200888862767441" Properties=species:S:1:pos:R:3:forces:R:3 energy=-44.786102294921875 free_energy=-44.786102294921875 stress="0.0004857441526837647 -1.9875654899692563e-08 -7.053980066729082e-09 -1.9875654899692563e-08 0.00048572782543487847 -9.378391752079551e-08 -7.053980066729082e-09 -9.378391752079551e-08 0.00048568082274869084" pbc="T T T"
Pd       1.50136910       1.06162980       2.60044689       0.00002516       0.00003670       0.00003313
Pd       4.50410441       3.18487944       7.80133233       0.00003608      -0.00001454      -0.00000876
Cr       0.00000036       0.00000040       0.00000052       0.00000309       0.00000104       0.00000207
O        1.50310326       1.06285563       5.20088811       0.00646919       0.00458756      -0.00001090
O        4.50236483       3.18365203       5.20088945      -0.00647640      -0.00458491       0.00000292
O        3.75254840       1.06285525       3.90217008      -0.00325534       0.00457826       0.00560063
O        2.25291814       3.18365232       6.49960647       0.00322413      -0.00458738      -0.00561446
O        2.25291789       3.18365092       3.90217031       0.00321785      -0.00459525       0.00560385
O        3.75254974       1.06285546       6.49960671      -0.00324321       0.00457853      -0.00560784
