9
Lattice="4.328882492107375 -7.350423718506535e-08 2.499281465416514 1.4429607573110426 4.081309881593855 2.4992814725022887 -2.3288911534779372e-07 -1.5599925567560633e-07 4.9985633342087965" Properties=species:S:1:pos:R:3:forces:R:3 energy=-51.475406646728516 free_energy=-51.475406646728516 stress="0.0006885314360260963 -8.737971057826144e-08 6.971754373807926e-07 -8.737971057826144e-08 0.000688329862896353 4.7032455086082336e-07 6.971754373807926e-07 4.7032455086082336e-07 0.0006882300949655473" pbc="T T T"
Pd       1.44295852       1.02032629       2.49927681      -0.00003638      -0.00002417      -0.00010529
Pd       4.32887829       3.06097953       7.49785325      -0.00007709      -0.00004546       0.00017934
Cr      -0.00000015      -0.00000027       0.00000000      -0.00000009       0.00000056      -0.00000031
N        1.55527409       1.09974404       4.99856694       0.00187400       0.00131620       0.00008467
N        4.21657000       2.98156629       4.99855575      -0.00186196      -0.00131176      -0.00013277
N        3.55124984       1.09974783       3.84618733      -0.00085410       0.00138856       0.00159708
N        2.22059597       2.98156360       6.15093879       0.00090277      -0.00135089      -0.00160766
N        2.22060209       2.98156769       3.84618710       0.00102778      -0.00127172       0.00159338
N        3.55124342       1.09974367       6.15093911      -0.00097498       0.00129829      -0.00160877
