9
Lattice="5.724966757112554 -4.71363819285382e-07 3.3053115789371375 1.9083219027290221 5.39755098993321 3.305311414800668 1.4242468316425885e-07 -1.0031580275843475e-07 6.610622911187518" Properties=species:S:1:pos:R:3:forces:R:3 energy=-28.706972122192383 free_energy=-28.706972122192383 stress="-6.426878371712519e-07 -3.654692193322262e-08 -4.042559353933939e-08 -3.654692193322262e-08 -8.137305371747061e-07 5.0040178223298426e-08 -4.042559353933939e-08 5.0040178223298426e-08 -6.239449703571154e-07" pbc="T T T"
Pd       1.90832203       1.34938687       3.30531134      -0.00000252      -0.00000590       0.00000140
Pd       5.72496662       4.04816336       9.91593332       0.00000032       0.00000616      -0.00000660
Ca      -0.00000035      -0.00000066       0.00000315       0.00000452       0.00000736      -0.00003124
S        2.14434278       1.51627791       6.61062256      -0.00063735      -0.00046241       0.00000056
S        5.48894668       3.88127182       6.61062434       0.00063607       0.00045109       0.00001187
S        4.65279554       1.51627844       5.16236641       0.00031587      -0.00045280      -0.00054854
S        2.98049376       3.88127323       8.05887793      -0.00032130       0.00047138       0.00055659
S        2.98049271       3.88127237       5.16236612      -0.00032048       0.00044946      -0.00054571
S        4.65279544       1.51627822       8.05887849       0.00032488      -0.00046439       0.00056159
