9
Lattice="5.209870291666461 -1.3830116585451294e-07 3.0079198420101 1.7366234007043193 4.911911897997906 3.007919667869099 5.7548503475717716e-08 -1.7258535920414866e-07 6.01583958434321" Properties=species:S:1:pos:R:3:forces:R:3 energy=-31.994495391845703 free_energy=-31.994495391845703 stress="-9.353388304589316e-05 4.6830567868028083e-08 1.782338010514195e-08 4.6830567868028083e-08 -9.336668153991923e-05 1.9362074166195953e-09 1.782338010514195e-08 1.9362074166195953e-09 -9.348843741463497e-05" pbc="T T T"
Pd       1.73662375       1.22797765       3.00791910       0.00000355      -0.00000021      -0.00000837
Pd       5.20987011       3.68393488       9.02375859      -0.00000009       0.00001391      -0.00000631
Cu      -0.00000006       0.00000003      -0.00000027      -0.00000134      -0.00000083       0.00000989
S        1.82941827       1.29359375       6.01583944       0.00162530       0.00114620       0.00000012
S        5.11707531       3.61831755       6.01583900      -0.00162435      -0.00114867      -0.00000342
S        4.29516105       1.29359282       4.59224308      -0.00081187       0.00113910       0.00141156
S        2.65133323       3.61831818       7.43943748       0.00081888      -0.00115073      -0.00140554
S        2.65133229       3.61831820       4.59224265       0.00080970      -0.00114501       0.00140780
S        4.29516094       1.29359331       7.43943718      -0.00081989       0.00114632      -0.00140595
