9
Lattice="5.064142780356863 -1.8015465573107696e-08 2.9237841643067437 1.6880475599812506 4.774520589777168 2.923784192861215 -2.757037519394292e-07 -1.599800904519131e-07 5.847568806146397" Properties=species:S:1:pos:R:3:forces:R:3 energy=-39.972557067871094 free_energy=-39.972557067871094 stress="-3.208643465768546e-05 2.7912097522175827e-08 -7.912674959698052e-08 2.7912097522175827e-08 -3.210386057617143e-05 -3.317371977118455e-08 -7.912674959698052e-08 -3.317371977118455e-08 -3.213092713849619e-05" pbc="T T T"
Pd       1.68804464       1.19363273       2.92378395      -0.00003017       0.00002901      -0.00000539
Pd       5.06414324       3.58089015       8.77134613       0.00000424       0.00000043      -0.00007507
Cr      -0.00000031      -0.00000010      -0.00000024       0.00000476      -0.00000043       0.00000795
S        1.78078189       1.25920369       5.84756863       0.00084797       0.00060028       0.00000422
S        4.97140870       3.51531576       5.84757112      -0.00084183      -0.00061435       0.00002525
S        4.17375194       1.25920212       4.46598826      -0.00041947       0.00058743       0.00075352
S        2.57843990       3.51531701       7.22915184       0.00043963      -0.00060660      -0.00072479
S        2.57843694       3.51531584       4.46598762       0.00040931      -0.00060755       0.00074634
S        4.17375319       1.25920451       7.22915137      -0.00041465       0.00061187      -0.00073221
