9
Lattice="4.982457371306199 -4.2458373050280265e-08 2.8766230963616497 1.6608190784229062 4.697506591622933 2.876623105568665 -6.365490380511014e-08 -3.373452721152219e-08 5.753246302976804" Properties=species:S:1:pos:R:3:forces:R:3 energy=-34.79447937011719 free_energy=-34.79447937011719 stress="-2.1617852326016873e-05 2.788850927970543e-09 -3.6448017937118493e-09 2.788850927970543e-09 -2.18781060539186e-05 8.281881846983197e-09 -3.6448017937118493e-09 8.281881846983197e-09 -2.1562462279689498e-05" pbc="T T T"
Pd       1.66081873       1.17437804       2.87662295      -0.00000444       0.00001878      -0.00000752
Pd       4.98245770       3.52312902       8.62987119       0.00000602      -0.00000561       0.00001720
C        0.00000193       0.00000897      -0.00001699       0.00005589       0.00026633      -0.00050516
S        1.61450844       1.14163162       5.75324635       0.00051320       0.00037700       0.00000785
S        5.02876193       3.55587161       5.75324510      -0.00067711      -0.00048786      -0.00000857
S        4.17520061       1.14163546       4.27483392      -0.00033574       0.00049224       0.00059867
S        2.46807285       3.55587541       7.23166419       0.00024949      -0.00037509      -0.00043494
S        2.46807837       3.55586899       4.27483653       0.00039656      -0.00056687       0.00068644
S        4.17520490       1.14162698       7.23166666      -0.00020435       0.00028104      -0.00035405
