9
Lattice="5.349481181008737 -9.13374115376031e-08 3.0885242450852433 1.783160323295729 5.043538804637316 3.088524217822935 -2.6061568784515813e-07 -2.1767248554360878e-07 6.177048941570173" Properties=species:S:1:pos:R:3:forces:R:3 energy=-36.04181671142578 free_energy=-36.04181671142578 stress="-0.0004852936544921249 2.3891091327499225e-09 -2.3999799925178422e-09 2.3891091327499225e-09 -0.00048518547555431724 -1.1768207741624792e-08 -2.3999799925178422e-09 -1.1768207741624792e-08 -0.0004852697311434895" pbc="T T T"
Pd       1.78316049       1.26088566       3.08852435       0.00000029       0.00000557       0.00000037
Pd       5.34948148       3.78265357       9.26557061       0.00000532      -0.00000243      -0.00001528
Co       0.00000017       0.00000003      -0.00000023      -0.00000087      -0.00000014       0.00000054
Se       1.90797774       1.34914466       6.17704937      -0.00149301      -0.00105225       0.00000193
Se       5.22466345       3.69439397       6.17705038       0.00149336       0.00105317       0.00000928
Se       4.39549161       1.34914350       4.74088179       0.00074343      -0.00105724      -0.00129116
Se       2.73714876       3.69439411       7.61321564      -0.00074711       0.00105311       0.00129284
Se       2.73714873       3.69439389       4.74088174      -0.00074918       0.00105232      -0.00129277
Se       4.39549256       1.34914455       7.61321593       0.00074783      -0.00105210       0.00129418
