9
Lattice="5.658107365246832 -1.4457215513539852e-07 3.2667096768146786 1.8860356876642017 5.334514472830036 3.266709615235925 2.0678423928045283e-08 -6.079639682133804e-08 6.533419317813353" Properties=species:S:1:pos:R:3:forces:R:3 energy=-28.4702205657959 free_energy=-28.4702205657959 stress="-8.081959094852209e-05 9.799618894135165e-09 -8.592111022664994e-09 9.799618894135165e-09 -8.073860226431862e-05 -1.5229712602149448e-08 -8.592111022664994e-09 -1.5229712602149448e-08 -8.079818508122116e-05" pbc="T T T"
Pd       1.88603668       1.33363148       3.26670826       0.00000493       0.00001551      -0.00000293
Pd       5.65810663       4.00088340       9.80012769      -0.00000177      -0.00001246      -0.00000258
Cd      -0.00000056      -0.00000031      -0.00000069       0.00000442       0.00000111       0.00000662
Se       2.21321833       1.56498333       6.53341875      -0.00493871      -0.00348561       0.00000320
Se       5.33092561       3.76953209       6.53341895       0.00493082       0.00347809       0.00000284
Se       4.55149770       1.56498285       5.18341311       0.00247088      -0.00348660      -0.00427419
Se       2.99264467       3.76953163       7.88342714      -0.00246143       0.00347525       0.00427753
Se       2.99264554       3.76953054       5.18341342      -0.00246992       0.00348851      -0.00428145
Se       4.55149777       1.56498191       7.88342779       0.00246059      -0.00347374       0.00427097
