9
Lattice="5.117466602180867 -1.6923427041082137e-07 2.9545706093853683 1.7058220356578853 4.8247941987301735 2.954570618934989 -1.3507310880402152e-07 -8.381520032788898e-08 5.909141452724219" Properties=species:S:1:pos:R:3:forces:R:3 energy=-37.724578857421875 free_energy=-37.724578857421875 stress="-1.0844797543541063e-05 4.301376588244921e-09 2.309526436761189e-08 4.301376588244921e-09 -1.106167837860994e-05 3.5032516887412157e-09 2.309526436761189e-08 3.5032516887412157e-09 -1.0840686627489049e-05" pbc="T T T"
Pd       1.70582274       1.20620370       2.95457005       0.00000493       0.00005395      -0.00000429
Pd       5.11746639       3.61859601       8.86371339       0.00000102       0.00000727       0.00001291
Co       0.00000005      -0.00000002      -0.00000005      -0.00000020      -0.00000326      -0.00000273
S        1.75662579       1.24212117       5.90914147      -0.00028455      -0.00020701       0.00000143
S        5.06666338       3.58267125       5.90914023       0.00028878       0.00019082      -0.00000835
S        4.23915447       1.24212212       4.47585306       0.00014743      -0.00020176      -0.00024885
S        2.58413410       3.58266984       7.34243056      -0.00015104       0.00018279       0.00025558
S        2.58413384       3.58266994       4.47585197      -0.00014850       0.00018333      -0.00025496
S        4.23915321       1.24212176       7.34242980       0.00014232      -0.00020631       0.00024924
