9
Lattice="5.116494529422023 -1.1456524607725449e-07 2.95400942812597 1.7054980756625586 4.8238772826637595 2.954009415652205 9.770557628624433e-09 -8.368339941266334e-09 5.90801883932883" Properties=species:S:1:pos:R:3:forces:R:3 energy=-37.72455596923828 free_energy=-37.72455596923828 stress="-0.0002115012175636366 1.3430841327988219e-08 6.618957826276528e-09 1.3430841327988219e-08 -0.0002115193201461807 1.685839023934932e-08 6.618957826276528e-09 1.685839023934932e-08 -0.00021144560014363378" pbc="T T T"
Pd       1.70549880       1.20596887       2.95400966       0.00000561      -0.00000329       0.00000247
Pd       5.11649388       3.61790811       8.86202559      -0.00000792       0.00000107      -0.00002966
Co      -0.00000016      -0.00000000       0.00000025       0.00000020       0.00000108      -0.00000239
S        1.75672934       1.24219450       5.90801864      -0.00712949      -0.00504465      -0.00000192
S        5.06526355       3.58168269       5.90801979       0.00712734       0.00504379       0.00001251
S        4.23812941       1.24219445       4.47538165       0.00356130      -0.00504543      -0.00617227
S        2.58386334       3.58168236       7.34065679      -0.00355799       0.00504375       0.00617960
S        2.58386225       3.58168225       4.47538157      -0.00356646       0.00503974      -0.00617045
S        4.23813000       1.24219547       7.34065670       0.00356732      -0.00503618       0.00618201
