9
Lattice="4.786632837170067 1.1418009305180513e-07 2.763563746095505 1.5955443929336017 4.512880754891375 2.7635637353101434 -1.230529616381955e-07 -1.002208847005844e-07 5.5271277053249666" Properties=species:S:1:pos:R:3:forces:R:3 energy=-35.540592193603516 free_energy=-35.540592193603516 stress="4.830660327570513e-05 -1.937943494567662e-07 2.8862933731943485e-07 -1.937943494567662e-07 4.8486261221114546e-05 1.3149708877335797e-07 2.8862933731943485e-07 1.3149708877335797e-07 4.7937191993696615e-05" pbc="T T T"
Pd       1.59553960       1.12821774       2.76356508      -0.00006874      -0.00003891       0.00002031
Pd       4.78663413       3.38466265       8.29068783       0.00001918       0.00003003      -0.00005284
Ca       0.00000009      -0.00000007       0.00000011       0.00000147       0.00000013       0.00000055
O        1.82710504       1.29195741       5.52712747      -0.00650090      -0.00460820      -0.00000909
O        4.55507238       3.22092247       5.52712955       0.00650943       0.00460011       0.00003143
O        3.87308152       1.29195721       4.34588428       0.00326596      -0.00462268      -0.00561035
O        2.50909720       3.22092439       6.70837132      -0.00324421       0.00462872       0.00561827
O        2.50909584       3.22092355       4.34588471      -0.00327012       0.00461966      -0.00561106
O        3.87308256       1.29195781       6.70837036       0.00328784      -0.00460880       0.00561270
