9
Lattice="5.064030747517041 -8.011996153740067e-08 2.923719411593223 1.688010191266574 4.774414086543392 2.9237193810536186 -3.865937208194873e-08 -6.473953586220946e-08 5.847438890146426" Properties=species:S:1:pos:R:3:forces:R:3 energy=-39.972557067871094 free_energy=-39.972557067871094 stress="-4.8566456825938076e-05 -4.4593726045150106e-08 -5.690559845561438e-08 -4.4593726045150106e-08 -4.8601206799503416e-05 -5.447932949209644e-08 -5.690559845561438e-08 -5.447932949209644e-08 -4.8423127736896276e-05" pbc="T T T"
Pd       1.68800955       1.19360272       2.92372097      -0.00000835      -0.00000768       0.00001340
Pd       5.06403215       3.58081174       8.77115487       0.00001505       0.00001276      -0.00003714
Cr       0.00000002      -0.00000020       0.00000015       0.00000000       0.00000343      -0.00000038
S        1.78081066       1.25922313       5.84743902      -0.00091553      -0.00064713      -0.00000150
S        4.97122992       3.51519088       5.84744091       0.00090942       0.00064805       0.00001816
S        4.17362480       1.25922279       4.46594744       0.00045389      -0.00065544      -0.00078803
S        2.57841566       3.51519119       7.22893025      -0.00045589       0.00065479       0.00078890
S        2.57841485       3.51519010       4.46594710      -0.00046536       0.00064322      -0.00078663
S        4.17362588       1.25922338       7.22893003       0.00046673      -0.00065187       0.00079340
