9
Lattice="4.0873543198386395 -1.798991661742227e-07 2.3598353084934693 1.3624513303745822 3.853594449705565 2.359835204503021 -1.65946604532478e-08 -1.3909596690042792e-07 4.719670645729727" Properties=species:S:1:pos:R:3:forces:R:3 energy=-47.88802719116211 free_energy=-47.88802719116211 stress="0.0003040019946638495 -7.191864170863482e-08 5.6996487529659134e-08 -7.191864170863482e-08 0.00030407222220674157 1.1695006207901315e-07 5.6996487529659134e-08 1.1695006207901315e-07 0.00030360158416442573" pbc="T T T"
Pd       1.36245108       0.96339731       2.35983554      -0.00000455      -0.00001632       0.00000329
Pd       4.08735470       2.89019544       7.07950599       0.00000377      -0.00000674      -0.00000411
C       -0.00000053       0.00000007      -0.00000003       0.00001586      -0.00000934      -0.00000156
N        1.24050438       0.87716894       4.71967088      -0.00328600      -0.00232089      -0.00000125
N        4.20930047       2.97642549       4.71967108       0.00327122       0.00232577       0.00000894
N        3.46710210       0.87716844       3.43414344       0.00163901      -0.00232267      -0.00284076
N        1.98270397       2.97642584       6.00519559      -0.00164372       0.00233567       0.00282907
N        1.98270358       2.97642587       3.43414475      -0.00164425       0.00233054      -0.00283062
N        3.46710279       0.87716882       6.00519766       0.00164771      -0.00231743       0.00283599
