9
Lattice="4.983459174905819 9.387344550785285e-07 2.8772003944985864 1.661153673726475 4.698450737557574 2.8772008614989146 -2.705608156391593e-07 3.806409115206334e-07 5.754401257622192" Properties=species:S:1:pos:R:3:forces:R:3 energy=-34.794464111328125 free_energy=-34.794464111328125 stress="0.0003827900218311697 5.928525936838014e-08 -2.5594905750381258e-08 5.928525936838014e-08 0.00038287066854536533 -7.413303859671316e-10 -2.5594905750381258e-08 -7.413303859671316e-10 0.0003825635649263859" pbc="T T T"
Pd       1.66114954       1.17461997       2.87719510      -0.00003925       0.00009642      -0.00008111
Pd       4.98345631       3.52382726       8.63160015      -0.00005002      -0.00011703      -0.00002698
C       -0.00002009       0.00004054      -0.00003694      -0.00060352       0.00119639      -0.00108615
S        1.61465584       1.14174231       5.75440325       0.00020033       0.00020897       0.00003017
S        5.02995150       3.55670667       5.75440077      -0.00033596      -0.00032866       0.00000000
S        4.17613434       1.14174219       4.27553307      -0.00006926       0.00022358       0.00020012
S        2.46848562       3.55670603       7.23326857       0.00019240      -0.00033557      -0.00025800
S        2.46849691       3.55669657       4.27555508       0.00051214      -0.00072947       0.00084737
S        4.17614032       1.14172633       7.23329030       0.00019345      -0.00021443       0.00037384
