9
Lattice="5.348761352721635 -1.3350040677072177e-08 3.088108847349175 1.7829204612356335 5.042860642424669 3.088108807659278 1.9766372926659678e-08 -3.463306410622253e-08 6.176217660461997" Properties=species:S:1:pos:R:3:forces:R:3 energy=-38.29656982421875 free_energy=-38.29656982421875 stress="1.967378193512559e-05 1.9820561192318564e-08 2.3287318740017326e-08 1.9820561192318564e-08 1.9669896573759615e-05 9.934267852784728e-10 2.3287318740017326e-08 9.934267852784728e-10 1.969497861864511e-05" pbc="T T T"
Pd       1.78292046       1.26071443       3.08810817      -0.00000042      -0.00000479      -0.00000452
Pd       5.34876157       3.78214593       9.26432617       0.00000085       0.00000311      -0.00000140
Cr       0.00000007       0.00000021       0.00000006       0.00000015      -0.00000058       0.00000220
Se       1.94565339       1.37578426       6.17621787       0.00021872       0.00015210       0.00000223
Se       5.18602869       3.66707629       6.17621770      -0.00021873      -0.00015147       0.00000016
Se       4.37593488       1.37578436       4.77309412      -0.00010749       0.00015295       0.00019081
Se       2.75574687       3.66707625       7.57934148       0.00010936      -0.00015350      -0.00019048
Se       2.75574705       3.66707624       4.77309424       0.00010859      -0.00015148       0.00019014
Se       4.37593439       1.37578441       7.57934148      -0.00011110       0.00015367      -0.00018901
