9
Lattice="4.715544061645758 -1.510033356027138e-07 2.7225205646085024 1.5718478887295637 4.445857405367678 2.722520546338314 -1.774604488798247e-07 -1.4785979516274052e-07 5.445041436587512" Properties=species:S:1:pos:R:3:forces:R:3 energy=-32.10472106933594 free_energy=-32.10472106933594 stress="-0.00022236283984966576 -5.003290226568424e-09 1.9784299354341783e-07 -5.003290226568424e-09 -0.00022212034673430026 9.4383118209862e-08 1.9784299354341783e-07 9.4383118209862e-08 -0.00022237618395593017" pbc="T T T"
Pd       1.57184863       1.11146153       2.72252151       0.00000738      -0.00003235       0.00002086
Pd       4.71554547       3.33439345       8.16755496       0.00001972       0.00001192      -0.00008670
Cd       0.00000005       0.00000001      -0.00000017      -0.00000188      -0.00000259      -0.00000598
O        1.79441078       1.26884048       5.44504045      -0.00350554      -0.00248019      -0.00001872
O        4.49297973       3.17701816       5.44504532       0.00349788       0.00249324       0.00005052
O        3.81833695       1.26883771       4.27652748       0.00173344      -0.00250667      -0.00302112
O        2.46905472       3.17701850       6.61355607      -0.00173862       0.00250371       0.00303806
O        2.46905185       3.17701732       4.27652767      -0.00177748       0.00248440      -0.00302153
O        3.81833893       1.26884129       6.61355689       0.00176507      -0.00247136       0.00304461
