9
Lattice="4.354346408499691 -9.235163734611605e-10 2.5139830839573034 1.451448801077872 4.105317108044485 2.513983085489585 -3.0251010723761715e-08 -1.9514035588549134e-08 5.027966220310884" Properties=species:S:1:pos:R:3:forces:R:3 energy=-47.084197998046875 free_energy=-47.084197998046875 stress="0.00016430285177193582 4.151800681029272e-08 2.1662547311507296e-08 4.151800681029272e-08 0.00016432027041446418 3.3449840231014605e-08 2.1662547311507296e-08 3.3449840231014605e-08 0.000164224868058227" pbc="T T T"
Pd       1.45144981       1.02632985       2.51398343       0.00001677       0.00000873       0.00000744
Pd       4.35434794       3.07898979       7.54194951       0.00002639       0.00003332       0.00000355
Co       0.00000018       0.00000009      -0.00000005       0.00000166       0.00000212       0.00000050
N        1.52740216       1.08003643       5.02796619       0.00615421       0.00434639      -0.00000207
N        4.27839302       3.02528031       5.02796601      -0.00615421      -0.00435273      -0.00000095
N        3.59064441       1.08003519       3.83675253      -0.00309233       0.00433517       0.00533655
N        2.21514916       3.02528084       6.21917977       0.00306606      -0.00435066      -0.00533646
N        2.21514945       3.02528055       3.83675204       0.00306883      -0.00435831       0.00532961
N        3.59064463       1.08003526       6.21917999      -0.00308791       0.00433595      -0.00533843
