9
Lattice="5.7633876731453855 7.871582214701832e-07 3.327493402275674 1.9211300231537813 5.433773465828227 3.3274933041860177 -2.989034675436077e-09 -1.2224831944881024e-07 6.654986809728421" Properties=species:S:1:pos:R:3:forces:R:3 energy=-30.05908203125 free_energy=-30.05908203125 stress="7.200504569482291e-06 -2.1265640270939912e-07 9.012409663000653e-08 -2.1265640270939912e-07 7.580556484754197e-06 8.490248859516214e-08 9.012409663000653e-08 8.490248859516214e-08 6.7845785451936536e-06" pbc="T T T"
Pd       1.92113084       1.35844569       3.32749158       0.00001466       0.00001906      -0.00001025
Pd       5.76338690       4.07532836       9.98248041      -0.00001311      -0.00001605       0.00000267
Ca       0.00000031       0.00000048       0.00000001      -0.00000008      -0.00000066       0.00000414
Se       2.24871508       1.59008106       6.65498669       0.00206668       0.00146439       0.00000321
Se       5.43580535       3.84369259       6.65498487      -0.00206377      -0.00147476      -0.00001565
Se       4.63902999       1.59008449       5.27493626      -0.00103409       0.00148594       0.00177118
Se       3.04548666       3.84368884       8.03503903       0.00103768      -0.00149200      -0.00177023
Se       3.04548760       3.84369064       5.27493555       0.00104397      -0.00147499       0.00177760
Se       4.63902805       1.59008441       8.03503966      -0.00105204       0.00148906      -0.00176271
