9
Lattice="5.348448432690475 5.488267771950339e-08 3.0879280465224093 1.7828161560037783 5.0425659719254625 3.087928115752938 -1.4674546910012127e-07 -1.8974939830975866e-08 6.175856347215414" Properties=species:S:1:pos:R:3:forces:R:3 energy=-38.29656219482422 free_energy=-38.29656219482422 stress="-6.959681923035532e-05 -1.7066382085317855e-08 4.8833594945563163e-08 -1.7066382085317855e-08 -6.977759039727971e-05 5.046243956030594e-08 4.8833594945563163e-08 5.046243956030594e-08 -6.970759568503127e-05" pbc="T T T"
Pd       1.78281783       1.26063963       3.08792823       0.00001025      -0.00001204       0.00000104
Pd       5.34844728       3.78192602       9.26378830      -0.00000634       0.00000886       0.00002440
Cr      -0.00000022       0.00000003      -0.00000012       0.00000058      -0.00000051      -0.00000209
Se       1.94536240       1.37557820       6.17585649       0.00350057       0.00246896       0.00000005
Se       5.18590179       3.66698793       6.17585474      -0.00349826      -0.00246764      -0.00000815
Se       4.37576681       1.37557934       4.77266037      -0.00175297       0.00247513       0.00302534
Se       2.75549682       3.66698742       7.57905047       0.00174592      -0.00247096      -0.00303237
Se       2.75549879       3.66698771       4.77266060       0.00175431      -0.00247061       0.00302534
Se       4.37576623       1.37557777       7.57905088      -0.00175402       0.00246876      -0.00303352
