9
Lattice="5.412903711307104 -3.180844120251903e-07 3.1251416835477297 1.804301063100567 5.103334852483871 3.125141465498002 -3.298967674834839e-07 -5.003275069890056e-07 6.25028393849328" Properties=species:S:1:pos:R:3:forces:R:3 energy=-25.849435806274414 free_energy=-25.849435806274414 stress="-8.710369002074003e-05 4.9545882063739555e-08 3.583238150639545e-09 4.9545882063739555e-08 -8.721320773474872e-05 1.649703875727937e-07 3.583238150639545e-09 1.649703875727937e-07 -8.728612738195807e-05" pbc="T T T"
Pd       1.80431270       1.27583719       3.12513544       0.00016077       0.00004441      -0.00009023
Pd       5.41289888       3.82750393       9.37542835      -0.00007965       0.00003855       0.00003991
Cd       0.00000035      -0.00000002      -0.00000007      -0.00000777       0.00000006      -0.00000888
S        1.97529310       1.39673664       6.25028366      -0.00149125      -0.00113458       0.00001512
S        5.24191137       3.70659396       6.25027763       0.00151294       0.00111718      -0.00007814
S        4.42525617       1.39674102       4.83579271       0.00072894      -0.00107411      -0.00135393
S        2.79194925       3.70658604       7.66477938      -0.00073931       0.00100567       0.00140828
S        2.79194935       3.70659497       4.83579117      -0.00070960       0.00108314      -0.00134989
S        4.42524666       1.39674236       7.66478004       0.00062457      -0.00108021       0.00141770
