9
Lattice="4.545229234707294 8.976265633211126e-08 2.6241891942389834 1.5150763790703257 4.28528365697198 2.6241893971103236 -2.3013704409036557e-07 8.57341439088624e-08 5.248378787087077" Properties=species:S:1:pos:R:3:forces:R:3 energy=-41.78839874267578 free_energy=-41.78839874267578 stress="-9.571006557962392e-06 -4.661815466988628e-08 2.9528264278155802e-08 -4.661815466988628e-08 -9.503731234872248e-06 -5.311932227414218e-09 2.9528264278155802e-08 -5.311932227414218e-09 -9.651866093918215e-06" pbc="T T T"
Pd       1.51507459       1.07131867       2.62419156      -0.00001825      -0.00002680       0.00002883
Pd       4.54523046       3.21396257       7.87256855       0.00001161      -0.00000707       0.00000647
Fe      -0.00000010       0.00000001       0.00000005       0.00000050       0.00000533      -0.00000649
O        1.53312835       1.08408606       5.24837778      -0.00054836      -0.00038508      -0.00001051
O        4.52717663       3.20119839       5.24837880       0.00054634       0.00039306      -0.00000349
O        3.77866499       1.08408618       3.95191705       0.00027502      -0.00038493      -0.00047362
O        2.28164040       3.20119912       6.54483875      -0.00027648       0.00040033       0.00046176
O        2.28164042       3.20119828       3.95191779      -0.00027640       0.00039554      -0.00047144
O        3.77866576       1.08408625       6.54483894       0.00028615      -0.00038972       0.00046840
