9
Lattice="5.08908060861199 -2.078702776007559e-07 2.938182325334798 1.6963599306615975 4.798031246297649 2.938182457364123 -1.0746706698713334e-07 8.571144792107551e-08 5.876364836808068" Properties=species:S:1:pos:R:3:forces:R:3 energy=-38.93504333496094 free_energy=-38.93504333496094 stress="-0.0001383708295179531 -5.4023043816187055e-08 5.365122390799115e-08 -5.4023043816187055e-08 -0.00013830472016707063 -2.587251124452905e-08 5.365122390799115e-08 -2.587251124452905e-08 -0.00013827830844093114" pbc="T T T"
Pd       1.69636362       1.19951449       2.93818198       0.00003837       0.00006466      -0.00000992
Pd       5.08907924       3.59851632       8.81454490      -0.00000930      -0.00007404      -0.00002356
Fe      -0.00000031      -0.00000118       0.00000063       0.00000539       0.00001113      -0.00000033
S        1.76331237       1.24685315       5.87636416       0.00145680       0.00105593      -0.00000352
S        5.02212799       3.55117905       5.87636443      -0.00147259      -0.00106075       0.00000137
S        4.20742354       1.24685307       4.46525583      -0.00073737       0.00105676       0.00126410
S        2.57801777       3.55117747       7.28747442       0.00073865      -0.00105941      -0.00125098
S        2.57801573       3.55117808       4.46525694       0.00072333      -0.00105593       0.00126821
S        4.20742156       1.24685412       7.28747491      -0.00074276       0.00106168      -0.00124556
