9
Lattice="5.089080466586687 8.329237511946889e-08 2.938181985878649 1.6963601590885085 4.798031018469534 2.9381821157290737 -7.820113264067905e-08 1.037370883441246e-07 5.87636410720562" Properties=species:S:1:pos:R:3:forces:R:3 energy=-38.9350471496582 free_energy=-38.9350471496582 stress="-0.00010514822497498244 -6.972611377165094e-09 -6.716968314890437e-09 -6.972611377165094e-09 -0.00010508127161301672 3.422852756784778e-08 -6.716968314890437e-09 3.422852756784778e-08 -0.00010507836122997105" pbc="T T T"
Pd       1.69636274       1.19950751       2.93818204       0.00002509      -0.00000491      -0.00000091
Pd       5.08908090       3.59852323       8.81454585       0.00000820      -0.00000293      -0.00000514
Fe      -0.00000023       0.00000007       0.00000018      -0.00000130      -0.00000095      -0.00000259
S        1.76336651       1.24688876       5.87636456      -0.00003183      -0.00002214       0.00000234
S        5.02207299       3.55114246       5.87636456       0.00002748       0.00002748       0.00000476
S        4.20739612       1.24688940       4.46530210       0.00000513      -0.00002041      -0.00003403
S        2.57804327       3.55114186       7.28742512      -0.00002342       0.00002441       0.00003260
S        2.57804327       3.55114248       4.46530276      -0.00001988       0.00002286      -0.00002813
S        4.20739645       1.24688905       7.28742564       0.00001079      -0.00002316       0.00003123
