9
Lattice="5.327004052432617 -2.859774320550035e-08 3.0755472018917125 1.7756679557817465 5.022347763361056 3.0755472620520816 -7.500368000677404e-09 6.837750639473374e-08 6.151094416774461" Properties=species:S:1:pos:R:3:forces:R:3 energy=-37.54157257080078 free_energy=-37.54157257080078 stress="0.00045601866440847516 -5.238178957256423e-08 5.3895032436912516e-08 -5.238178957256423e-08 0.0004560624365694821 -7.168865501228083e-09 5.3895032436912516e-08 -7.168865501228083e-09 0.0004560415691230446" pbc="T T T"
Pd       1.77566967       1.25558870       3.07554555       0.00001042       0.00001229      -0.00001118
Pd       5.32700363       3.76676109       9.22664312      -0.00000282       0.00000068       0.00000983
Fe      -0.00000010      -0.00000009      -0.00000002       0.00000122      -0.00000020       0.00000056
Se       1.87552009       1.32619293       6.15109531      -0.00199997      -0.00141463       0.00000415
Se       5.22715255       3.69615460       6.15109407       0.00199902       0.00141120      -0.00000394
Se       4.38924395       1.32619332       4.69979512       0.00100090      -0.00141379      -0.00173241
Se       2.71342752       3.69615390       7.60239387      -0.00100376       0.00140971       0.00173488
Se       2.71342840       3.69615379       4.69979469      -0.00099921       0.00141209      -0.00173756
Se       4.38924235       1.32619292       7.60239393       0.00099413      -0.00141746       0.00173560
