9
Lattice="4.2279763712365845 -9.719414787443316e-09 2.4410232727668166 1.4093254467831922 3.9861742991167404 2.441023274727722 -1.9957808325364242e-08 -1.1710716878540417e-08 4.882046580101573" Properties=species:S:1:pos:R:3:forces:R:3 energy=-51.44694137573242 free_energy=-51.44694137573242 stress="-7.797731814207509e-05 -4.29828013182032e-08 6.407709918221371e-08 -4.29828013182032e-08 -7.801842730259523e-05 -4.719893365034977e-09 6.407709918221371e-08 -4.719893365034977e-09 -7.791895768605173e-05" pbc="T T T"
Pd       1.40932527       0.99654369       2.44102303      -0.00000281       0.00000162      -0.00000245
Pd       4.22797624       2.98963094       7.32306963      -0.00000148       0.00000140      -0.00000376
Fe      -0.00000003      -0.00000011       0.00000008       0.00000080      -0.00000060      -0.00000281
N        1.57460757       1.11341550       4.88204670       0.00029767       0.00020924       0.00000021
N        4.06269415       2.87275861       4.88204673      -0.00029522      -0.00021023       0.00000140
N        3.44067255       1.11341552       3.80467359      -0.00014761       0.00020754       0.00025803
N        2.19662931       2.87275848       5.95941966       0.00014701      -0.00020897      -0.00025415
N        2.19662936       2.87275867       3.80467350       0.00014815      -0.00020906       0.00025749
N        3.44067274       1.11341578       5.95941961      -0.00014618       0.00020918      -0.00025493
