9
Lattice="5.325525222089042 1.0210769923945933e-07 3.0746930958555425 1.7751751607057018 5.0209532636159695 3.0746931124694346 4.482843538157739e-08 5.204634087909781e-08 6.149386114065958" Properties=species:S:1:pos:R:3:forces:R:3 energy=-37.54160690307617 free_energy=-37.54160690307617 stress="8.944175351643935e-05 3.8498697563227324e-08 -2.628802597826052e-08 3.8498697563227324e-08 8.946616435423493e-05 2.4149988675503664e-09 -2.628802597826052e-08 2.4149988675503664e-09 8.947749302024022e-05" pbc="T T T"
Pd       1.77517167       1.25523930       3.07469185      -0.00002021       0.00000544      -0.00000696
Pd       5.32552572       3.76571510       9.22407887       0.00000064       0.00000072      -0.00000183
Fe       0.00000004      -0.00000004      -0.00000017      -0.00000036      -0.00000013       0.00000000
Se       1.87545770       1.32614850       6.14938607      -0.00071579      -0.00050822       0.00000096
Se       5.22524252       3.69480441       6.14938560       0.00071973       0.00050658      -0.00000321
Se       4.38779949       1.32614870       4.69888863       0.00037125      -0.00050732      -0.00061151
Se       2.71290436       3.69480453       7.59988605      -0.00035596       0.00050509       0.00062123
Se       2.71290290       3.69480389       4.69888689      -0.00036143       0.00050294      -0.00061700
Se       4.38779731       1.32614922       7.59988529       0.00036216      -0.00050473       0.00061846
