9
Lattice="4.5652775155109175 1.5709343137685214e-08 2.6357641510549366 1.5217590729323356 4.304185539812942 2.635764348016084 -1.4035195222307904e-07 1.4198331025530674e-07 5.271528545206618" Properties=species:S:1:pos:R:3:forces:R:3 energy=-41.67447280883789 free_energy=-41.67447280883789 stress="-0.00023825459356885403 -1.0165233277348307e-07 -1.3193772474551224e-07 -1.0165233277348307e-07 -0.00023804711236152798 4.910004491875952e-08 -1.3193772474551224e-07 4.910004491875952e-08 -0.00023794494336470962" pbc="T T T"
Pd       1.52175888       1.07604653       2.63576782      -0.00000172       0.00000109       0.00005421
Pd       4.56527677       3.22814019       7.90728934      -0.00001035       0.00001514      -0.00004966
Ge      -0.00000013      -0.00000013       0.00000005       0.00000062       0.00000756      -0.00000780
O        1.53008801       1.08193509       5.27152681       0.00041699       0.00028551      -0.00002428
O        4.55694925       3.22225011       5.27153054      -0.00042033      -0.00029516       0.00002096
O        3.80023259       1.08193529       3.96085937      -0.00021464       0.00028193       0.00035310
O        2.28680374       3.22224969       6.58219789       0.00021547      -0.00028002      -0.00035250
O        2.28680237       3.22224973       3.96085869       0.00020462      -0.00030529       0.00036204
O        3.80023430       1.08193600       6.58219726      -0.00019121       0.00028932      -0.00035489
