9
Lattice="5.5396804214380095 1.639671468657073e-09 3.1983360419261606 1.8465601504087876 5.222860780963726 3.1983360274053747 3.607580892990605e-08 7.725216639784781e-09 6.396672021367162" Properties=species:S:1:pos:R:3:forces:R:3 energy=-32.75448989868164 free_energy=-32.75448989868164 stress="-5.953981963102706e-05 -8.182895250286037e-09 4.289882671315581e-09 -8.182895250286037e-09 -5.953344589215703e-05 -9.974475467799948e-09 4.289882671315581e-09 -9.974475467799948e-09 -5.9546353440964594e-05" pbc="T T T"
Pd       1.84655884       1.30571530       3.19833665      -0.00000716       0.00000069       0.00000261
Pd       5.53968046       3.91714592       9.59500717       0.00000095       0.00000150      -0.00000454
Ge       0.00000004       0.00000011      -0.00000017       0.00000190       0.00000004      -0.00000219
Se       2.12574457       1.50312821       6.39667208      -0.00105332      -0.00074473       0.00000005
Se       5.26049658       3.71973209       6.39667290       0.00105377       0.00074407       0.00000275
Se       4.47680850       1.50312814       5.03928477       0.00052681      -0.00074564      -0.00091214
Se       2.90943251       3.71973274       7.75405908      -0.00052599       0.00074631       0.00091179
Se       2.90943197       3.71973251       5.03928494      -0.00052771       0.00074428      -0.00091051
Se       4.47680893       1.50312811       7.75405896       0.00053075      -0.00074635       0.00091225
