9
Lattice="4.315970958613159 1.883190613471106e-07 2.4918270651454346 1.4386571138293933 4.069136831002241 2.491827151616162 -1.4835505799085525e-07 1.0017228374298685e-09 4.983654387249378" Properties=species:S:1:pos:R:3:forces:R:3 energy=-45.122615814208984 free_energy=-45.122615814208984 stress="-0.0003455480036791414 -7.152045213842939e-07 1.6904380117921392e-07 -7.152045213842939e-07 -0.00034614463220350444 -3.406481852152865e-08 1.6904380117921392e-07 -3.406481852152865e-08 -0.0003469564253464341" pbc="T T T"
Pd       1.43865625       1.01728510       2.49182739      -0.00000252       0.00000622       0.00000399
Pd       4.31597084       3.05185167       7.47547999      -0.00000881      -0.00001350      -0.00001990
Ge      -0.00000018      -0.00000036      -0.00000027       0.00000000      -0.00000485      -0.00000318
N        1.66106094       1.17454591       4.98365398      -0.00756299      -0.00537120      -0.00001058
N        4.09356902       2.89459034       4.98365519       0.00758870       0.00536222       0.00001262
N        3.48543901       1.17454862       3.93034822       0.00375412      -0.00533143      -0.00655814
N        2.26918763       2.89459002       6.03696411      -0.00376990       0.00535518       0.00660855
N        2.26918817       2.89458832       3.93034582      -0.00377200       0.00532801      -0.00659512
N        3.48544001       1.17454850       6.03695998       0.00377349      -0.00533076       0.00656186
