9
Lattice="5.539490196177335 -1.7307409043994607e-07 3.1982261585916727 1.8464965871690688 5.222681003342562 3.19822612691962 6.791515383694596e-08 9.233119055844037e-09 6.396452199550845" Properties=species:S:1:pos:R:3:forces:R:3 energy=-32.754486083984375 free_energy=-32.754486083984375 stress="-0.00016986604896374047 8.802164552790259e-10 1.7572261867826455e-08 8.802164552790259e-10 -0.00016985439287964255 -2.7940693314576492e-08 1.7572261867826455e-08 -2.7940693314576492e-08 -0.00016986620903480798" pbc="T T T"
Pd       1.84649477       1.30567087       3.19822650      -0.00000980       0.00000398       0.00000090
Pd       5.53949205       3.91701182       9.59467562       0.00000926       0.00000592      -0.00001410
Ge       0.00000047      -0.00000007       0.00000238      -0.00000319      -0.00000033      -0.00001405
Se       2.12572732       1.50311568       6.39645221      -0.00369166      -0.00261080      -0.00000365
Se       5.26026000       3.71956409       6.39645423       0.00369547       0.00260872       0.00000432
Se       4.47662823       1.50311470       5.03915999       0.00184506      -0.00260565      -0.00318955
Se       2.90936104       3.71956505       7.75374393      -0.00184970       0.00261821       0.00320049
Se       2.90935750       3.71956520       5.03915972      -0.00184891       0.00260103      -0.00318718
Se       4.47662609       1.50311606       7.75374340       0.00185342      -0.00262107       0.00320284
