9
Lattice="4.567437077244849 4.475906357628819e-08 2.63701107125949 1.5224790279577243 4.306221098159849 2.6370111405238474 6.60030545878511e-09 8.949831335889408e-08 5.274022131086921" Properties=species:S:1:pos:R:3:forces:R:3 energy=-41.67445373535156 free_energy=-41.67445373535156 stress="0.0005810186848975718 -2.43982594128056e-08 1.595941689913616e-08 -2.43982594128056e-08 0.0005810286966152489 2.226979489705627e-09 1.595941689913616e-08 2.226979489705627e-09 0.000580991618335247" pbc="T T T"
Pd       1.52247530       1.07655902       2.63700821      -0.00005396       0.00005529      -0.00004266
Pd       4.56743757       3.22966155       7.91104283       0.00000506      -0.00006427       0.00013615
Ge      -0.00000011       0.00000008       0.00000016      -0.00000116       0.00000223       0.00000047
O        1.53038175       1.08214563       5.27402238      -0.00318849      -0.00222528       0.00000949
O        4.55953486       3.22407563       5.27401867       0.00319505       0.00222051      -0.00005422
O        3.80224893       1.08214655       3.96236083       0.00163126      -0.00220788      -0.00276172
O        2.28766836       3.22407586       6.58568233      -0.00161695       0.00222909       0.00273919
O        2.28767208       3.22407701       3.96235985      -0.00156337       0.00224340      -0.00276744
O        3.80224548       1.08214385       6.58568227       0.00159258      -0.00225294       0.00274098
