9
Lattice="5.696475987266663 -7.771051551162996e-08 3.288862065237316 1.8988253158325215 5.370688561449802 3.2888619612973002 2.826384330870132e-09 -1.2530155590014604e-07 6.577724125579193" Properties=species:S:1:pos:R:3:forces:R:3 energy=-27.59551239013672 free_energy=-27.59551239013672 stress="-0.00039768850547261536 -5.7115521201467345e-09 -8.925155725592049e-09 -5.7115521201467345e-09 -0.00039765588007867336 -7.351487862905515e-09 -8.925155725592049e-09 -7.351487862905515e-09 -0.0003977207816205919" pbc="T T T"
Pd       1.89882322       1.34267102       3.28886277      -0.00000921      -0.00000685       0.00000082
Pd       5.69647640       4.02801974       9.86658787       0.00000304       0.00001661       0.00000728
Hg       0.00000035      -0.00000039      -0.00000040      -0.00000168       0.00000229       0.00000209
Se       2.24176713       1.58516666       6.57772480       0.00611503       0.00431678       0.00000147
Se       5.35353557       3.78551989       6.57772364      -0.00611252      -0.00432476      -0.00000341
Se       4.57559307       1.58516678       5.23028892      -0.00305407       0.00431775       0.00529413
Se       3.01970832       3.78552207       7.92515784       0.00305606      -0.00431515      -0.00530173
Se       3.01970849       3.78552121       5.23028907       0.00305792      -0.00432003       0.00529705
Se       4.57559267       1.58516639       7.92515805      -0.00305457       0.00431325      -0.00529777
