9
Lattice="5.474659752474947 -4.7654220356879164e-09 3.160796250334105 1.8248865916481494 5.161558764666034 3.1607962295794474 -2.44088830768743e-08 -4.267886987836956e-08 6.3215925429456705" Properties=species:S:1:pos:R:3:forces:R:3 energy=-37.460514068603516 free_energy=-37.460514068603516 stress="-0.0002787474077194929 -1.1329136739846035e-08 1.440688102150034e-08 -1.1329136739846035e-08 -0.0002787622797768563 4.975112322114228e-09 1.440688102150034e-08 4.975112322114228e-09 -0.0002787256380543113" pbc="T T T"
Pd       1.82488707       1.29038958       3.16079605       0.00000339      -0.00000100      -0.00000227
Pd       5.47465989       3.87116931       9.48238871       0.00000102       0.00000216      -0.00000013
Ir      -0.00000007       0.00000001      -0.00000007       0.00000116      -0.00000038       0.00000166
Se       2.02489717       1.43181859       6.32159259       0.00481148       0.00340268      -0.00000005
Se       5.27464911       3.72974036       6.32159253      -0.00481367      -0.00340278      -0.00000014
Se       4.46221111       1.43181825       4.91440848      -0.00240723       0.00340177       0.00416805
Se       2.83733500       3.72974019       7.72877648       0.00240578      -0.00340199      -0.00416720
Se       2.83733514       3.72974019       4.91440872       0.00240514      -0.00340199       0.00416678
Se       4.46221089       1.43181840       7.72877656      -0.00240707       0.00340150      -0.00416666
