9
Lattice="5.536345122555362 2.397680686672839e-07 3.1964106498209945 1.8454485294376894 5.219717012072435 3.196410772455202 8.372386907788344e-09 1.5611589252215118e-07 6.392821285140539" Properties=species:S:1:pos:R:3:forces:R:3 energy=-28.390188217163086 free_energy=-28.390188217163086 stress="5.389905709307641e-05 -6.059077151121528e-08 -1.4779161006117647e-08 -6.059077151121528e-08 5.348254126147367e-05 -5.7710728640358866e-08 -1.4779161006117647e-08 -5.7710728640358866e-08 5.3548596042674035e-05" pbc="T T T"
Pd       1.84544809       1.30492825       3.19641058       0.00000072      -0.00001495      -0.00000104
Pd       5.53634303       3.91478950       9.58922868      -0.00002647       0.00001864      -0.00004059
In      -0.00000003       0.00000010      -0.00000042      -0.00000015      -0.00000047       0.00000533
S        2.06540046       1.46045645       6.39282073       0.00139606       0.00095274      -0.00001449
S        5.31639347       3.75926006       6.39282253      -0.00139157      -0.00096179       0.00002180
S        4.50364453       1.46045615       4.98509991      -0.00070728       0.00094976       0.00120285
S        2.87815091       3.75925968       7.80054469       0.00072762      -0.00096770      -0.00118383
S        2.87814874       3.75925990       4.98509964       0.00069441      -0.00096533       0.00119838
S        4.50364541       1.46045953       7.80054457      -0.00069349       0.00098895      -0.00118836
