9
Lattice="4.599092825330275 1.7884774510914262e-07 2.6552873187895765 1.5330310407042136 4.336066588662209 2.6552874394993244 5.8746676149888805e-08 1.8937883763770165e-07 5.310574535826935" Properties=species:S:1:pos:R:3:forces:R:3 energy=-44.9167366027832 free_energy=-44.9167366027832 stress="0.000341781007591635 -1.1120080856130699e-08 -1.640881208686551e-08 -1.1120080856130699e-08 0.0003418150881770998 3.551287974801198e-08 -1.640881208686551e-08 3.551287974801198e-08 0.00034181191585958004" pbc="T T T"
Pd       1.53302916       1.08401649       2.65529018      -0.00002531       0.00000008       0.00003546
Pd       4.59908977       3.25205523       7.96586220      -0.00004219       0.00006303       0.00000227
Ir       0.00000010       0.00000009      -0.00000008      -0.00000434      -0.00000412      -0.00000561
O        1.54071570       1.08944893       5.31057436      -0.00562285      -0.00400938      -0.00000945
O        4.59141032       3.24661521       5.31057503       0.00565258       0.00397708      -0.00000189
O        3.82873403       1.08944840       3.98958560       0.00281142      -0.00400756      -0.00487947
O        2.30339077       3.24661851       6.63156330      -0.00279770       0.00400538       0.00488696
O        2.30339005       3.24661653       3.98958440      -0.00280017       0.00398286      -0.00489457
O        3.82873593       1.08944846       6.63156214       0.00282840      -0.00400747       0.00486639
