9
Lattice="4.692813601526417 3.348590302459121e-08 2.7093972054978335 1.5642712367783724 4.424426941571791 2.709397197359344 8.877041048034108e-08 5.280259198421865e-08 5.418794257240779" Properties=species:S:1:pos:R:3:forces:R:3 energy=-36.782012939453125 free_energy=-36.782012939453125 stress="-0.0002978788688778877 -8.334291479172862e-09 -1.15301489245212e-07 -8.334291479172862e-09 -0.00029786876984871924 -4.725453450760142e-08 -1.15301489245212e-07 -4.725453450760142e-08 -0.000297941587632522" pbc="T T T"
Pd       1.56426887       1.10610666       2.70939608      -0.00002660      -0.00000103      -0.00001372
Pd       4.69281162       3.31832142       8.12819334      -0.00002442       0.00001374       0.00002055
In      -0.00000004       0.00000007       0.00000000       0.00000445      -0.00000146      -0.00000053
O        1.72197172       1.21761656       5.41879487      -0.00334205      -0.00237592       0.00000718
O        4.53511443       3.20680920       5.41879336       0.00335465       0.00236431      -0.00001034
O        3.83182919       1.21761740       4.20066801       0.00168554      -0.00236683      -0.00289564
O        2.42525717       3.20680952       6.63692103      -0.00167003       0.00236803       0.00290252
O        2.42525808       3.20681047       4.20066755      -0.00166124       0.00237355      -0.00290313
O        3.83182863       1.21761686       6.63692035       0.00167961      -0.00237422       0.00289339
