9
Lattice="5.689589526196863 -3.345420314880763e-07 3.284886035390179 1.8965296672988488 5.364195640766793 3.2848857917902787 1.9745355343739692e-07 -1.5872691590775774e-07 6.569771728780775" Properties=species:S:1:pos:R:3:forces:R:3 energy=-30.32386016845703 free_energy=-30.32386016845703 stress="2.8068054234609008e-05 -9.832694658484797e-10 -3.788854741060277e-08 -9.832694658484797e-10 2.809390025504399e-05 3.928829528376809e-08 -3.788854741060277e-08 3.928829528376809e-08 2.8128579288022593e-05" pbc="T T T"
Pd       1.89653020       1.34104646       3.28488540       0.00000019      -0.00001184       0.00000096
Pd       5.68958919       4.02314892       9.85465898      -0.00000064       0.00001189       0.00000850
In       0.00000033       0.00000000      -0.00000126      -0.00000182      -0.00000215       0.00001458
Se       2.21799321       1.56835650       6.56977072       0.00088088       0.00061631       0.00000355
Se       5.36812495       3.79584023       6.56976996      -0.00088379      -0.00060976      -0.00000223
Se       4.58059335       1.56835765       5.20572596      -0.00042710       0.00060679       0.00075804
Se       3.00552595       3.79583927       7.93381992       0.00044600      -0.00062364      -0.00076544
Se       3.00552641       3.79583703       5.20572427       0.00043331      -0.00061029       0.00075227
Se       4.58059392       1.56835460       7.93382010      -0.00044703       0.00062273      -0.00077032
