9
Lattice="5.239067456880375 1.3844786938347718e-08 3.024776981487267 1.7463558404325576 4.939440152735747 3.0247769669043656 1.0587904349680757e-08 -1.0373548730617279e-08 6.049553944635735" Properties=species:S:1:pos:R:3:forces:R:3 energy=-38.891082763671875 free_energy=-38.891082763671875 stress="8.735853771213442e-05 -1.1899465413023336e-08 8.240530036118798e-09 -1.1899465413023336e-08 8.731178968446329e-05 -7.852853478595989e-09 8.240530036118798e-09 -7.852853478595989e-09 8.733055437915027e-05" pbc="T T T"
Pd       1.74635576       1.23486005       3.02477697      -0.00000182       0.00000099       0.00000019
Pd       5.23906752       3.70458004       9.07433107       0.00000019       0.00000061       0.00000410
Ir       0.00000002      -0.00000006      -0.00000014      -0.00000049       0.00000028       0.00000008
S        1.85103401       1.30887874       6.04955397       0.00766706       0.00542182      -0.00000022
S        5.13438928       3.63056140       6.04955388      -0.00766623      -0.00542092      -0.00000160
S        4.31355047       1.30887873       4.62781941      -0.00383210       0.00542128       0.00663859
S        2.67187278       3.63056155       7.47128852       0.00383249      -0.00542325      -0.00664085
S        2.67187289       3.63056148       4.62781942       0.00383410      -0.00542146       0.00664014
S        4.31355046       1.30887865       7.47128844      -0.00383279       0.00542033      -0.00663990
