9
Lattice="5.337665861125751 1.0280728711945645e-07 3.0817029064528225 1.7792220496998714 5.03239998562692 3.0817029080745586 2.677362465035748e-07 1.9130433502172004e-07 6.163405349172948" Properties=species:S:1:pos:R:3:forces:R:3 energy=-28.370800018310547 free_energy=-28.370800018310547 stress="5.824426989420317e-05 -1.6026532989599218e-08 -5.466799990472282e-08 -1.6026532989599218e-08 5.817238343297504e-05 -6.572160771156632e-08 -5.466799990472282e-08 -6.572160771156632e-08 5.828325811307877e-05" pbc="T T T"
Pd       1.77922266       1.25810052       3.08170393       0.00001022       0.00000543       0.00001592
Pd       5.33766908       3.77430062       9.24510819       0.00003447       0.00000457       0.00000105
Mg       0.00000009      -0.00000032       0.00000021       0.00000204      -0.00000020      -0.00000090
S        1.92475451       1.36100784       6.16340494       0.00202952       0.00144474      -0.00000689
S        5.19213311       3.67139356       6.16340611      -0.00203938      -0.00143789       0.00000322
S        4.37528780       1.36100690       4.74858913      -0.00102475       0.00143266       0.00176506
S        2.74159839       3.67139318       7.57822094       0.00100284      -0.00143538      -0.00177287
S        2.74159820       3.67139178       4.74858942       0.00099853      -0.00144780       0.00176233
S        4.37528879       1.36100710       7.57822185      -0.00101323       0.00143404      -0.00176658
