9
Lattice="4.337169510250425 4.237819344932096e-08 2.504065884558852 1.445723191917058 4.089122572378481 2.50406591594528 -8.121944807117403e-08 -1.8990461764465484e-08 5.0081319097939145" Properties=species:S:1:pos:R:3:forces:R:3 energy=-55.833858489990234 free_energy=-55.833858489990234 stress="0.00012866855831816792 -2.1179997133913275e-07 -6.235802629817044e-07 -2.1179997133913275e-07 0.00012806500308215618 1.1320405235437647e-07 -6.235802629817044e-07 1.1320405235437647e-07 0.00012902126763947308" pbc="T T T"
Pd       1.44572315       1.02228099       2.50406651       0.00001085      -0.00000503       0.00001449
Pd       4.33716951       3.06684201       7.51219842       0.00000075      -0.00000281       0.00001577
Mn      -0.00000044       0.00000102      -0.00000021       0.00003700      -0.00015540      -0.00006416
N        1.56157884       1.10420256       5.00813163       0.00100517       0.00075746       0.00000606
N        4.22131418       2.98491960       5.00813161      -0.00103474      -0.00067353       0.00000693
N        3.55637975       1.10420339       3.85643307      -0.00050569       0.00073695       0.00086308
N        2.22651259       2.98491913       6.15983099       0.00049877      -0.00070524      -0.00090027
N        2.22651278       2.98491891       3.85643265       0.00049496      -0.00069141       0.00090814
N        3.55638009       1.10420268       6.15983025      -0.00050569       0.00073838      -0.00085020
