9
Lattice="5.322767869389161 -4.2907787564952564e-08 3.0731015542857607 1.7742559405867775 5.018353991274365 3.0731015117161053 -2.2596300425789287e-08 -6.811494371571512e-08 6.146203147709529" Properties=species:S:1:pos:R:3:forces:R:3 energy=-41.635902404785156 free_energy=-41.635902404785156 stress="6.185768870636821e-05 -2.0612143103448943e-08 8.278869501054942e-08 -2.0612143103448943e-08 6.181842036312446e-05 -2.480604699428568e-08 8.278869501054942e-08 -2.480604699428568e-08 6.186788232298568e-05" pbc="T T T"
Pd       1.77425476       1.25458917       3.07309981      -0.00001227       0.00000647      -0.00001703
Pd       5.32276867       3.76376491       9.21930635       0.00001021      -0.00000518       0.00001684
Mo       0.00000016      -0.00000030       0.00000026       0.00000013      -0.00000035      -0.00000153
S        1.86936132       1.32183856       6.14620344      -0.00012136      -0.00008300       0.00000651
S        5.22766275       3.69651524       6.14620124       0.00012225       0.00007901      -0.00001306
S        4.38808861       1.32183899       4.69201645       0.00007522      -0.00007889      -0.00009912
S        2.70893697       3.69651619       7.60039016      -0.00005925       0.00008425       0.00010356
S        2.70893578       3.69651518       4.69201689      -0.00007060       0.00008678      -0.00010350
S        4.38808620       1.32183766       7.60039027       0.00005570      -0.00008908       0.00010750
