9
Lattice="5.5348444107900425 1.7316758533175415e-07 3.1955435864378194 1.8449482088372142 5.218301408050056 3.195543744672433 -5.215022928823014e-08 1.5692124594839123e-07 6.391087263202488" Properties=species:S:1:pos:R:3:forces:R:3 energy=-29.922222137451172 free_energy=-29.922222137451172 stress="0.00022777913545724005 2.4661044761842277e-08 1.8405874602223093e-09 2.4661044761842277e-08 0.00022746638569515198 -1.4758218647159538e-08 1.8405874602223093e-09 -1.4758218647159538e-08 0.00022777949925512075" pbc="T T T"
Pd       1.84494921       1.30457010       3.19554354       0.00000594      -0.00003297      -0.00000021
Pd       5.53484439       3.91373107       9.58663034      -0.00000040       0.00003102      -0.00000512
Mg      -0.00000014       0.00000007      -0.00000022      -0.00000009       0.00000176       0.00000077
Se       2.12401325       1.50190166       6.39108744      -0.00336537      -0.00239655       0.00000116
Se       5.25577914       3.71640003       6.39108788       0.00336571       0.00239881       0.00000364
Se       4.47283700       1.50190086       5.03499323       0.00167754      -0.00239915      -0.00291480
Se       2.90695528       3.71640133       7.74718160      -0.00168017       0.00239961       0.00291128
Se       2.90695530       3.71640051       5.03499277      -0.00168084       0.00239539      -0.00291221
Se       4.47283696       1.50190137       7.74718191       0.00167771      -0.00239789       0.00291535
