9
Lattice="5.223518077384609 -6.959974853196193e-08 3.015799704965871 1.7411726211936025 4.924779970173738 3.0157997147496767 5.877182067018394e-08 5.3540632748886556e-08 6.0315993081359585" Properties=species:S:1:pos:R:3:forces:R:3 energy=-39.57379150390625 free_energy=-39.57379150390625 stress="0.00010528054554015398 -7.995272000016485e-08 -1.1431993129917828e-08 -7.995272000016485e-08 0.00010543299140408635 1.131238924756417e-08 -1.1431993129917828e-08 1.131238924756417e-08 0.00010537872003624216" pbc="T T T"
Pd       1.74117268       1.23119548       3.01579962      -0.00000358       0.00000228      -0.00000062
Pd       5.22351839       3.69358596       9.04740105       0.00000529       0.00001316       0.00002375
Mn       0.00000001       0.00000010       0.00000107      -0.00000014      -0.00000091      -0.00001024
S        1.80478642       1.27617614       6.03159936      -0.00260913      -0.00185081      -0.00000204
S        5.15990431       3.64860286       6.03159876       0.00261492       0.00184500      -0.00001329
S        4.32112496       1.27617620       4.57879056       0.00130486      -0.00184679      -0.00226229
S        2.64356560       3.64860276       7.48440698      -0.00131956       0.00185275       0.00226456
S        2.64356621       3.64860398       4.57879063      -0.00130147       0.00184715      -0.00226295
S        4.32112433       1.27617640       7.48440700       0.00130937      -0.00186208       0.00226355
