9
Lattice="4.531526929502101 1.76717504529873e-07 2.6162782552796804 1.5105091389583594 4.272364673703719 2.6162782624732253 2.06756518079683e-07 1.550092337155208e-07 5.232556152446509" Properties=species:S:1:pos:R:3:forces:R:3 energy=-45.333412170410156 free_energy=-45.333412170410156 stress="-8.893723861547187e-05 1.129370517105599e-07 -1.4150178628824506e-07 1.129370517105599e-07 -8.90714509296231e-05 -5.26480326001888e-09 -1.4150178628824506e-07 -5.26480326001888e-09 -8.909375173971057e-05" pbc="T T T"
Pd       1.51050989       1.06809044       2.61627831       0.00001006      -0.00000938       0.00000127
Pd       4.53152795       3.20427476       7.84882994       0.00000649       0.00000878      -0.00004671
Mn      -0.00000006       0.00000009       0.00000008      -0.00000257       0.00000062       0.00000838
O        1.48210659       1.04800735       5.23255626       0.00150435       0.00106385       0.00000068
O        4.55992958       3.22435784       5.23255829      -0.00150822      -0.00106110       0.00001732
O        3.79047305       1.04800639       3.89982030      -0.00075998       0.00105678       0.00131139
O        2.25156282       3.22435760       6.56529334       0.00076022      -0.00106521      -0.00130451
O        2.25156134       3.22435751       3.89982026       0.00074527      -0.00106758       0.00131653
O        3.79047407       1.04800804       6.56529379      -0.00075592       0.00107309      -0.00130461
