9
Lattice="5.380637494220293 2.5094881492255996e-08 3.1065126902386515 1.7935458552239663 5.072913665991511 3.1065126899657685 -2.393787603258461e-08 -1.7260882969086415e-08 6.213025421938923" Properties=species:S:1:pos:R:3:forces:R:3 energy=-38.03551483154297 free_energy=-38.03551483154297 stress="-0.0001129623269662261 2.5941011116970003e-08 -9.532334033224288e-09 2.5941011116970003e-08 -0.00011298814933979884 3.5840930223685064e-08 -9.532334033224288e-09 3.5840930223685064e-08 -0.00011304072540951893" pbc="T T T"
Pd       1.79354653       1.26822905       3.10651292       0.00000543       0.00000298       0.00000108
Pd       5.38063713       3.80468592       9.31953854      -0.00000200       0.00000444       0.00000082
Mn      -0.00000019      -0.00000008      -0.00000018       0.00000124      -0.00000028      -0.00000071
Se       1.92755972       1.36299040       6.21302547       0.00050160       0.00035277       0.00000009
Se       5.24662415       3.70992284       6.21302530      -0.00050005      -0.00035691      -0.00000014
Se       4.41685701       1.36299020       4.77582794      -0.00025475       0.00035413       0.00043389
Se       2.75732591       3.70992328       7.65022288       0.00025180      -0.00035419      -0.00043312
Se       2.75732555       3.70992347       4.77582778       0.00025131      -0.00035621       0.00043416
Se       4.41685743       1.36298959       7.65022263      -0.00025465       0.00035334      -0.00043616
