9
Lattice="4.535852720940415 1.2117684908954273e-08 2.618775901499967 1.5119508975251612 4.276443091455817 2.6187759376645694 3.47359259027673e-08 6.885442581850175e-08 5.237551742835519" Properties=species:S:1:pos:R:3:forces:R:3 energy=-36.69550704956055 free_energy=-36.69550704956055 stress="-0.0008299907785840333 -9.862043270914e-08 -1.3032980916705128e-07 -9.862043270914e-08 -0.0008301640045829117 -5.0826077568899564e-08 -1.3032980916705128e-07 -5.0826077568899564e-08 -0.0008300027111545205" pbc="T T T"
Pd       1.51194849       1.06911200       2.61877419      -0.00002934       0.00001387      -0.00002277
Pd       4.53585196       3.20733191       7.85632966      -0.00001078      -0.00000571       0.00002238
Mg      -0.00000021       0.00000000       0.00000015      -0.00000273       0.00000150       0.00000176
O        1.60418739       1.13433143       5.23755278      -0.00585830      -0.00414513       0.00001257
O        4.44361749       3.14211051       5.23755051       0.00586861       0.00413096      -0.00001210
O        3.73376045       1.13433232       4.00804314       0.00294967      -0.00413701      -0.00507219
O        2.31404456       3.14211108       6.46706076      -0.00293167       0.00413738       0.00507635
O        2.31404495       3.14211163       4.00804276      -0.00292076       0.00414689      -0.00507648
O        3.73375956       1.13433185       6.46706043       0.00293514      -0.00414261       0.00507025
