9
Lattice="4.5315928344782055 5.540407408191974e-08 2.616316323247796 1.510530970661625 4.272426749898088 2.616316368973784 -3.884713501690522e-08 2.853358368054887e-08 5.232632713780803" Properties=species:S:1:pos:R:3:forces:R:3 energy=-45.333404541015625 free_energy=-45.333404541015625 stress="-0.00018698156054597348 1.244153366997125e-07 -1.754828637956507e-08 1.244153366997125e-07 -0.00018684066890273243 5.593129870362645e-08 -1.754828637956507e-08 5.593129870362645e-08 -0.00018690389697439969" pbc="T T T"
Pd       1.51052894       1.06810972       2.61631599      -0.00001879       0.00002884      -0.00000325
Pd       4.53159659       3.20431899       7.84894956       0.00003848      -0.00000978       0.00000426
Mn      -0.00000020      -0.00000010      -0.00000012      -0.00000078      -0.00000115       0.00000459
O        1.48201453       1.04794437       5.23263264       0.00561213       0.00398542       0.00000007
O        4.56010934       3.22448209       5.23263266      -0.00561497      -0.00398816      -0.00000001
O        3.79058575       1.04794302       3.89977999      -0.00280534       0.00397328       0.00487226
O        2.25153729       3.22448316       6.56548563       0.00279895      -0.00398174      -0.00487584
O        2.25153767       3.22448323       3.89977955       0.00280181      -0.00398373       0.00487383
O        3.79058516       1.04794288       6.56548575      -0.00281125       0.00397707      -0.00487585
