9
Lattice="5.381157860361011 -1.8500048773363103e-07 3.1068128620617914 1.7937192011104175 5.073403565167865 3.1068127083535435 1.3121956991941313e-07 -9.5467257873892e-08 6.213625496844632" Properties=species:S:1:pos:R:3:forces:R:3 energy=-38.035518646240234 free_energy=-38.035518646240234 stress="1.85826065717265e-05 -8.786563476803622e-09 -4.7059838692575795e-08 -8.786563476803622e-09 1.8691695004235953e-05 3.6706488515392266e-08 -4.7059838692575795e-08 3.6706488515392266e-08 1.863178113126196e-05" pbc="T T T"
Pd       1.79371948       1.26835084       3.10681213       0.00000179       0.00000013      -0.00000383
Pd       5.38115724       3.80505200       9.32043751      -0.00000223      -0.00000332      -0.00000590
Mn       0.00000019       0.00000022      -0.00000058      -0.00000060      -0.00000224       0.00000261
Se       1.92754203       1.36297770       6.21362610       0.00149205       0.00105526       0.00000186
Se       5.24733532       3.71042537       6.21362627      -0.00149083      -0.00105543       0.00000331
Se       4.41738677       1.36297813       4.77611285      -0.00074549       0.00105527       0.00128919
Se       2.75749072       3.71042522       7.65113802       0.00074674      -0.00105464      -0.00129008
Se       2.75749024       3.71042568       4.77611333       0.00074507      -0.00105301       0.00129256
Se       4.41738687       1.36297799       7.65113856      -0.00074647       0.00105786      -0.00128973
