9
Lattice="4.454901544633064 1.1965165001643661e-07 2.572038557646442 1.4849672466694366 4.200121734755005 2.5720386402368094 7.53424449040506e-08 1.5442728520141296e-07 5.144076984795962" Properties=species:S:1:pos:R:3:forces:R:3 energy=-37.718711853027344 free_energy=-37.718711853027344 stress="-4.278032520232955e-06 -6.380817296758323e-08 1.3131361242813e-07 -6.380817296758323e-08 -4.208419341011904e-06 5.052705631669596e-08 1.3131361242813e-07 5.052705631669596e-08 -4.553236522042425e-06" pbc="T T T"
Pd       1.48497563       1.05003643       2.57203524       0.00009562       0.00006779      -0.00003846
Pd       4.45489685       3.15008732       7.71612877      -0.00005392      -0.00004695       0.00015098
Ni      -0.00000013      -0.00000001      -0.00000042      -0.00000305       0.00000001       0.00000146
O        1.48319316       1.04877637       5.14407800       0.00047101       0.00033696       0.00001114
O        4.45667564       3.15134540       5.14407128      -0.00047815      -0.00033928      -0.00005927
O        3.71330460       1.04878003       3.85651792      -0.00024194       0.00037281       0.00036928
O        2.22656184       3.15134232       6.43163381       0.00022064      -0.00037493      -0.00040500
O        2.22656721       3.15134410       3.85651817       0.00026815      -0.00035110       0.00036947
O        3.71330071       1.04877607       6.43163406      -0.00027858       0.00033440      -0.00039999
