9
Lattice="4.648860132025309 1.257206290983662e-07 2.6840208550549787 1.5496201433757735 4.382987484211319 2.6840208882466476 1.0825343619890618e-07 1.1719805045601964e-07 5.368041522609542" Properties=species:S:1:pos:R:3:forces:R:3 energy=-50.9637451171875 free_energy=-50.9637451171875 stress="-9.071831300389022e-05 -7.88677994023601e-08 -9.188094196588281e-08 -7.88677994023601e-08 -9.073393448488787e-05 1.1099735530706312e-07 -9.188094196588281e-08 1.1099735530706312e-07 -9.085818601306528e-05" pbc="T T T"
Pd       1.54962014       1.09574671       2.68402261       0.00000125      -0.00000299       0.00002282
Pd       4.64886216       3.28723953       8.05206538       0.00002766      -0.00001729       0.00004095
Nb       0.00000045      -0.00000003      -0.00000039      -0.00000149       0.00000141       0.00000123
O        1.63387804       1.15532756       5.36804101      -0.00094926      -0.00065780      -0.00000982
O        4.56460186       3.22766055       5.36804053       0.00094247       0.00066376      -0.00001783
O        3.83192025       1.15532762       4.09900053       0.00047034      -0.00066155      -0.00083125
O        2.36655855       3.22766130       6.63708074      -0.00048661       0.00067538       0.00080729
O        2.36655929       3.22766100       4.09900133      -0.00047541       0.00066769      -0.00082058
O        3.83192086       1.15532666       6.63708145       0.00047058      -0.00066918       0.00080734
