9
Lattice="4.45451340072431 9.42868981557065e-08 2.571814444350705 1.4848378652026357 4.199755498096171 2.57181448580447 3.15833876418706e-08 7.310311764169266e-08 5.143628833997386" Properties=species:S:1:pos:R:3:forces:R:3 energy=-37.71869659423828 free_energy=-37.71869659423828 stress="3.622945223469287e-05 1.0002395356423222e-07 -3.0616170931807574e-08 1.0002395356423222e-07 3.609200211940333e-05 2.5583684504226767e-08 -3.0616170931807574e-08 2.5583684504226767e-08 3.606573227443732e-05" pbc="T T T"
Pd       1.48483843       1.04993876       2.57181402       0.00000844      -0.00000154      -0.00000507
Pd       4.45451343       3.14981733       7.71544021      -0.00000120       0.00000445      -0.00003228
Ni       0.00000005       0.00000013       0.00000021      -0.00000452      -0.00001144      -0.00000007
O        1.48355930       1.04903486       5.14362900      -0.00662877      -0.00468791       0.00000107
O        4.45579165       3.15072075       5.14363022       0.00663550       0.00469443       0.00001283
O        3.71273344       1.04903437       3.85661479       0.00330914      -0.00469202      -0.00573243
O        2.22661829       3.15072055       6.43064375      -0.00331054       0.00469077       0.00574921
O        2.22661699       3.15072073       3.85661492      -0.00332035       0.00468695      -0.00573680
O        3.71273353       1.04903517       6.43064386       0.00331199      -0.00468339       0.00574386
