9
Lattice="5.207432955781487 4.930303329163576e-08 3.0065128214410617 1.7358110184914 4.909615135279933 3.0065128443949174 -1.6740019631307138e-08 1.627567257669694e-08 6.013025671876704" Properties=species:S:1:pos:R:3:forces:R:3 energy=-35.58543395996094 free_energy=-35.58543395996094 stress="-9.968459380615968e-06 -1.533390303620763e-08 -4.6342627513240586e-08 -1.533390303620763e-08 -1.000114298221888e-05 -1.043589126226152e-08 -4.6342627513240586e-08 -1.043589126226152e-08 -9.934933586919215e-06" pbc="T T T"
Pd       1.73581145       1.22740442       3.00651201       0.00000208       0.00000598      -0.00001029
Pd       5.20743325       3.68221099       9.01953945       0.00000497      -0.00000275       0.00001298
Ni      -0.00000034       0.00000025      -0.00000026       0.00001378      -0.00000959       0.00000783
S        1.75455131       1.24065566       6.01302556       0.00201917       0.00143105       0.00000168
S        5.18869248       3.66895997       6.01302485      -0.00202525      -0.00143406      -0.00000839
S        4.33015769       1.24065504       4.52599899      -0.00100957       0.00143391       0.00175598
S        2.61308613       3.66895937       7.50005262       0.00100480      -0.00143394      -0.00174937
S        2.61308698       3.66895997       4.52599903       0.00101009      -0.00142601       0.00174558
S        4.33015685       1.24065516       7.50005302      -0.00101982       0.00143558      -0.00175628
