9
Lattice="5.363278592945077 -2.9163247967524087e-07 3.096490981409177 1.7877590048344745 5.056546538895476 3.0964914164890094 4.474431739033474e-07 8.492516420803055e-07 6.192981187824236" Properties=species:S:1:pos:R:3:forces:R:3 energy=-34.60960388183594 free_energy=-34.60960388183594 stress="-2.8182261303300038e-05 -1.412570043157757e-07 -2.5774218670449045e-07 -1.412570043157757e-07 -2.7782994948211126e-05 -2.9811936030910147e-08 -2.5774218670449045e-07 -2.9811936030910147e-08 -2.768022022792138e-05" pbc="T T T"
Pd       1.78776471       1.26413675       3.09649905       0.00002890       0.00000082       0.00004679
Pd       5.36330034       3.79240669       9.28946163       0.00012310      -0.00002170      -0.00005956
Ni      -0.00000199      -0.00000020       0.00000043       0.00000262       0.00000435      -0.00000052
Se       1.92726899       1.36279788       6.19298143      -0.00006971       0.00001386      -0.00000649
Se       5.22376310       3.69375496       6.19298626       0.00003263       0.00001888       0.00002587
Se       4.39963131       1.36278634       4.76556446      -0.00001360      -0.00005965      -0.00003919
Se       2.75139567       3.69376124       7.62039511      -0.00004709       0.00005217       0.00001743
Se       2.75138893       3.69375260       4.76556424      -0.00007609       0.00001533      -0.00002345
Se       4.39964111       1.36279204       7.62040194       0.00001922      -0.00002410       0.00003922
