9
Lattice="5.340024240214203 1.314836562019497e-07 3.0830644839357237 1.78000814187359 5.034623517264995 3.08306459160311 -7.936073780990678e-08 7.5748554512585e-08 6.16612910532833" Properties=species:S:1:pos:R:3:forces:R:3 energy=-41.704627990722656 free_energy=-41.704627990722656 stress="-7.990066660568118e-05 -7.023609072120962e-08 -2.3723396580521694e-08 -7.023609072120962e-08 -7.98799010226503e-05 1.7781568217856147e-08 -2.3723396580521694e-08 1.7781568217856147e-08 -7.98814871814102e-05" pbc="T T T"
Pd       1.78001055       1.25865524       3.08306271       0.00002682      -0.00000537      -0.00001858
Pd       5.34002205       3.77596715       9.24919276      -0.00002217      -0.00000895      -0.00000578
Nb       0.00000009      -0.00000040       0.00000012      -0.00000169       0.00000705       0.00000841
S        1.91211370       1.35206882       6.16612936       0.00045934       0.00032312       0.00000406
S        5.20791815       3.68255614       6.16612889      -0.00046763      -0.00031634      -0.00000139
S        4.38396697       1.35206937       4.73900346      -0.00023028       0.00032479       0.00039056
S        2.73606568       3.68255366       7.59325578       0.00023799      -0.00033334      -0.00038844
S        2.73606581       3.68255486       4.73900352       0.00023761      -0.00032115       0.00039457
S        4.38396620       1.35207009       7.59325610      -0.00023988       0.00033000      -0.00038345
