9
Lattice="4.296446855144992 -8.786666046276544e-10 2.4805549154975566 1.432148997414237 4.0507290078884814 2.480554834909276 1.6623888449280516e-07 1.8848575727466983e-08 4.9611095430609025" Properties=species:S:1:pos:R:3:forces:R:3 energy=-45.273277282714844 free_energy=-45.273277282714844 stress="0.0008114285301417112 -3.99457462663122e-07 -4.941305746797298e-07 -3.99457462663122e-07 0.0008104494772851467 -1.8661380352114065e-07 -4.941305746797298e-07 -1.8661380352114065e-07 0.000810465426184237" pbc="T T T"
Pd       1.43215211       1.01268156       2.48055591       0.00006201      -0.00001661       0.00002866
Pd       4.29644030       3.03805028       7.44165894      -0.00012072       0.00006502      -0.00009912
Ni      -0.00000000       0.00000033       0.00000007      -0.00000312       0.00000140      -0.00001108
N        1.54124841       1.08982000       4.96110806      -0.00237715      -0.00180380      -0.00003410
N        4.18734942       2.96090686       4.96111472       0.00240234       0.00176906       0.00008666
N        3.52581927       1.08982254       3.81531125       0.00113032      -0.00176155      -0.00212558
N        2.20277838       2.96090518       6.10690985      -0.00110300       0.00174288       0.00216400
N        2.20277321       2.96090350       3.81530978      -0.00118297       0.00170651      -0.00214955
N        3.52582303       1.08982579       6.10690855       0.00119225      -0.00170296       0.00213985
