9
Lattice="5.206614723289333 1.682328826428149e-07 3.0060405283987306 1.7355383587364868 4.908843584552731 3.006040599363257 8.765068901248057e-08 1.4889192223530037e-07 6.01208090498201" Properties=species:S:1:pos:R:3:forces:R:3 energy=-35.585426330566406 free_energy=-35.585426330566406 stress="-0.00023844548559281975 -1.9611961477039586e-07 -3.67107730880889e-08 -1.9611961477039586e-07 -0.00023856738698668778 -5.121886559322775e-08 -3.67107730880889e-08 -5.121886559322775e-08 -0.0002383806131547317" pbc="T T T"
Pd       1.73553534       1.22721581       3.00603923      -0.00003191       0.00005096      -0.00001657
Pd       5.20661766       3.68162970       9.01812399       0.00003316      -0.00003480       0.00002473
Ni       0.00000011      -0.00000001      -0.00000012       0.00000071      -0.00000117      -0.00000488
S        1.75445974       1.24059273       6.01208113       0.00226256       0.00162274       0.00000390
S        5.18769375       3.66825095       6.01207971      -0.00226101      -0.00162926      -0.00001216
S        4.32938647       1.24059274       4.52544844      -0.00111492       0.00161722       0.00196540
S        2.61276649       3.66824978       7.49871396       0.00110839      -0.00162259      -0.00195959
S        2.61276783       3.66825188       4.52544858       0.00112332      -0.00160992       0.00196448
S        4.32938532       1.24059219       7.49871317      -0.00112003       0.00160655      -0.00196543
