9
Lattice="5.36339020329466 -5.992668772215908e-08 3.0965548907288833 1.7877967310226863 5.056652539879258 3.096554798773412 1.373051274369983e-07 -1.5532627950712292e-08 6.193109543638346" Properties=species:S:1:pos:R:3:forces:R:3 energy=-34.60960006713867 free_energy=-34.60960006713867 stress="2.431421307846904e-06 -4.1065089106950836e-08 3.2267040150912862e-09 -4.1065089106950836e-08 2.5447175175941084e-06 1.2744092892091885e-08 3.2267040150912862e-09 1.2744092892091885e-08 2.4237749585154234e-06" pbc="T T T"
Pd       1.78779835       1.26416577       3.09655316       0.00000907       0.00001587      -0.00000998
Pd       5.36338862       3.79248660       9.28966465      -0.00000931      -0.00001683      -0.00000047
Ni       0.00000014      -0.00000008      -0.00000007      -0.00000046       0.00000043       0.00000233
Se       1.92717461       1.36271893       6.19310932       0.00077724       0.00055236       0.00000140
Se       5.22401295       3.69393319       6.19310884      -0.00077733      -0.00055468      -0.00000159
Se       4.39980295       1.36271987       4.76553678      -0.00038674       0.00055572       0.00067046
Se       2.75138463       3.69393215       7.62068325       0.00039127      -0.00055818      -0.00066671
Se       2.75138453       3.69393340       4.76553713       0.00038996      -0.00055194       0.00067112
Se       4.39980154       1.36271998       7.62068380      -0.00039385       0.00055736      -0.00066650
