9
Lattice="5.45994283198545 1.0620281291263694e-08 3.1522993805870194 1.819980958234836 5.147683303703396 3.1522993732659907 -1.2441766194004641e-08 -1.7764061749055537e-08 6.304598782723817" Properties=species:S:1:pos:R:3:forces:R:3 energy=-39.38078308105469 free_energy=-39.38078308105469 stress="-0.0002615674748085439 1.604824184653353e-08 1.74254584095479e-08 1.604824184653353e-08 -0.0002615753037389368 -8.15945799814699e-09 1.74254584095479e-08 -8.15945799814699e-09 -0.0002615900302771479" pbc="T T T"
Pd       1.81998074       1.28692080       3.15229944      -0.00000150      -0.00000080       0.00000010
Pd       5.45994291       3.86076259       9.45689876      -0.00000023       0.00000124       0.00000377
Os      -0.00000012      -0.00000008      -0.00000024      -0.00000101       0.00000066       0.00000292
Se       2.01365401       1.42386837       6.30459892       0.00705177       0.00498617       0.00000093
Se       5.26626984       3.72381506       6.30459856      -0.00705096      -0.00498667      -0.00000145
Se       4.45311585       1.42386841       4.89617490      -0.00352488       0.00498629       0.00610796
Se       2.82680776       3.72381520       7.71302257       0.00352755      -0.00498787      -0.00610995
Se       2.82680823       3.72381483       4.89617473       0.00352642      -0.00498599       0.00610575
Se       4.45311587       1.42386798       7.71302249      -0.00352699       0.00498727      -0.00610974
