9
Lattice="4.635694642205093 2.8325969084048894e-08 2.6764195917547555 1.545231524679079 4.370575105553352 2.6764196773675795 -7.678938992049295e-08 5.055557893182972e-08 5.352839316512638" Properties=species:S:1:pos:R:3:forces:R:3 energy=-50.60291290283203 free_energy=-50.60291290283203 stress="0.00022261482081376016 -7.18601071980629e-08 7.970707649462838e-09 -7.18601071980629e-08 0.00022258356329984963 -7.583359717955318e-08 7.970707649462838e-09 -7.583359717955318e-08 0.00022256017837207764" pbc="T T T"
Pd       1.54523105       1.09264428       2.67642089      -0.00000684       0.00000523       0.00001298
Pd       4.63569175       3.27792961       8.02925628      -0.00003354      -0.00001724      -0.00003028
Os      -0.00000026       0.00000007       0.00000014       0.00000225       0.00000936      -0.00000147
O        1.52304203       1.07695279       5.35283824       0.00055683       0.00038797      -0.00000707
O        4.65788494       3.29362181       5.35284052      -0.00055850      -0.00039721       0.00001299
O        3.87417436       1.07695387       3.99541241      -0.00027078       0.00039643       0.00048083
O        2.30675341       3.29362210       6.71026690       0.00029388      -0.00039417      -0.00047773
O        2.30675293       3.29362192       3.99541215       0.00028640      -0.00039405       0.00048202
O        3.87417416       1.07695431       6.71026681      -0.00026932       0.00040340      -0.00047266
