9
Lattice="5.153798355411299 -7.068123142364172e-09 2.9755467743634076 1.717932792094699 4.859047451248844 2.975546750770262 -7.209446328994717e-09 -3.3993406175682636e-08 5.951093561213932" Properties=species:S:1:pos:R:3:forces:R:3 energy=-40.603172302246094 free_energy=-40.603172302246094 stress="-7.3323528340552e-05 -7.521096279106132e-08 4.37208278469825e-08 -7.521096279106132e-08 -7.306893530767411e-05 -3.324185016140291e-08 4.37208278469825e-08 -3.324185016140291e-08 -7.310847286134958e-05" pbc="T T T"
Pd       1.71793282       1.21476191       2.97554618      -0.00000173       0.00000009      -0.00000518
Pd       5.15379806       3.64428499       8.92663999      -0.00000310      -0.00000677      -0.00000543
Os      -0.00000061      -0.00000015       0.00000028      -0.00000200      -0.00000109       0.00000293
S        1.85738142       1.31336785       5.95109363      -0.00006521      -0.00003713       0.00000159
S        5.01434971       3.54568046       5.95109342       0.00006080       0.00004131      -0.00000088
S        4.22510792       1.31336709       4.58408650       0.00003469      -0.00003958      -0.00004750
S        2.64662335       3.54568025       7.31810099      -0.00003022       0.00003815       0.00005513
S        2.64662383       3.54567997       4.58408625      -0.00002706       0.00004226      -0.00005347
S        4.22510793       1.31336732       7.31810106       0.00003386      -0.00003725       0.00005287
