9
Lattice="5.301960633811991 -1.6570035743356012e-07 3.0610884728155634 1.767320141478835 4.998736035844763 3.0610883231108112 -1.7552348553212877e-07 -3.074639170414609e-07 6.1221772496467155" Properties=species:S:1:pos:R:3:forces:R:3 energy=-35.90325927734375 free_energy=-35.90325927734375 stress="-3.431013465160504e-05 -1.4559360383969988e-09 1.0344242440396556e-07 -1.4559360383969988e-09 -3.4304437576793134e-05 1.894203194297006e-08 1.0344242440396556e-07 1.894203194297006e-08 -3.431901859585196e-05" pbc="T T T"
Pd       1.76732115       1.24968439       3.06108822       0.00001020       0.00000885      -0.00000283
Pd       5.30195917       3.74905178       9.18326103      -0.00001228       0.00000096      -0.00004615
Pt      -0.00000001       0.00000017      -0.00000002       0.00000333      -0.00000142      -0.00000354
S        1.84907386       1.30749244       6.12217717       0.00072938       0.00051332       0.00000017
S        5.22020784       3.69124233       6.12217930      -0.00072801      -0.00052172       0.00002246
S        4.37742222       1.30749151       4.66243384      -0.00037599       0.00050980       0.00063628
S        2.69185851       3.69124298       7.58192131       0.00037608      -0.00051397      -0.00062066
S        2.69185677       3.69124301       4.66243343       0.00036159      -0.00051767       0.00063235
S        4.37742298       1.30749342       7.58192178      -0.00036463       0.00052202      -0.00061804
