9
Lattice="5.302582178747181 -2.2944231755354235e-08 3.0614471913913595 1.7675273616948426 4.999322392108151 3.061447207999733 1.659303464904446e-09 2.151434805514704e-08 6.122894379908732" Properties=species:S:1:pos:R:3:forces:R:3 energy=-35.903255462646484 free_energy=-35.903255462646484 stress="0.00020993000362068415 2.051485203935499e-08 -2.2604243810064872e-08 2.051485203935499e-08 0.00020999473053961992 -2.5578923423807964e-09 -2.2604243810064872e-08 -2.5578923423807964e-09 0.00021001772256568074" pbc="T T T"
Pd       1.76752824       1.24982996       3.06144735       0.00000802      -0.00000481       0.00000120
Pd       5.30258125       3.74949221       9.18434125      -0.00000893       0.00000366      -0.00000264
Pt      -0.00000003       0.00000005      -0.00000017      -0.00000034       0.00000152       0.00000619
S        1.84926453       1.30762731       6.12289428      -0.00119495      -0.00084901      -0.00000058
S        5.22084474       3.69169530       6.12289431       0.00119424       0.00085092      -0.00000031
S        4.37794932       1.30762736       4.66295706       0.00059471      -0.00085026      -0.00104070
S        2.69216026       3.69169511       7.58283213      -0.00059062       0.00084507       0.00103849
S        2.69216000       3.69169507       4.66295726      -0.00059670       0.00084811      -0.00103885
S        4.37794990       1.30762735       7.58283168       0.00059491      -0.00084496       0.00103700
