9
Lattice="5.4306957193030945 7.237227798084104e-08 3.1354136706859363 1.8102319994361673 5.120109132485235 3.1354136277855233 2.1537557304913853e-08 -3.731270788896377e-08 6.270827304067638" Properties=species:S:1:pos:R:3:forces:R:3 energy=-33.91691207885742 free_energy=-33.91691207885742 stress="-0.0001449583942303434 8.991511890599213e-08 -2.5333801723093075e-09 8.991511890599213e-08 -0.00014507537707686424 -2.14722124525224e-08 -2.5333801723093075e-09 -2.14722124525224e-08 -0.00014513792120851576" pbc="T T T"
Pd       1.81023099       1.28002679       3.13541400      -0.00000736      -0.00000362       0.00000335
Pd       5.43069505       3.84008137       9.40624304      -0.00000442      -0.00000369       0.00001532
P       -0.00000004      -0.00000016      -0.00000030      -0.00000027       0.00000521       0.00001554
Se       1.87522963       1.32598735       6.27082719       0.00051376       0.00036189      -0.00000059
Se       5.36569825       3.79412141       6.27082598      -0.00051656      -0.00036579      -0.00000871
Se       4.49308150       1.32598804       4.75940963      -0.00025485       0.00036949       0.00044465
Se       2.74784622       3.79412245       7.78224465       0.00026202      -0.00036986      -0.00045910
Se       2.74784752       3.79412211       4.75940959       0.00026500      -0.00036450       0.00044562
Se       4.49308184       1.32598735       7.78224453      -0.00025728       0.00037080      -0.00045612
