9
Lattice="4.588790767148559 -4.448659705644209e-08 2.6493395953382293 1.5295968672437275 4.326353567816898 2.649339618195682 -1.2929697052315427e-08 1.8851874901757978e-08 5.298679213071341" Properties=species:S:1:pos:R:3:forces:R:3 energy=-41.03374481201172 free_energy=-41.03374481201172 stress="-0.0005074397195130587 -8.690332009564372e-08 -6.361726700987447e-10 -8.690332009564372e-08 -0.0005073230713605881 5.7819459442498555e-08 -6.361726700987447e-10 5.7819459442498555e-08 -0.0005073777865618467" pbc="T T T"
Pd       1.52959644       1.08158805       2.64933946      -0.00000477      -0.00000323      -0.00000034
Pd       4.58879108       3.24476562       7.94801981       0.00000361       0.00000417       0.00001179
Pt      -0.00000008       0.00000002      -0.00000012       0.00000034       0.00000160      -0.00000389
O        1.57354600       1.11266518       5.29867929      -0.00178505      -0.00126308       0.00000051
O        4.54484159       3.21368848       5.29867863       0.00178574       0.00126172      -0.00000526
O        3.80201790       1.11266500       4.01207065       0.00089394      -0.00126396      -0.00154828
O        2.31636980       3.21368851       6.58528766      -0.00089661       0.00126649       0.00154743
O        2.31637011       3.21368855       4.01207060      -0.00089139       0.00126353      -0.00154725
O        3.80201764       1.11266476       6.58528765       0.00089414      -0.00126736       0.00154524
