9
Lattice="4.228016717296797 -6.241834432634741e-06 2.4410315353292265 1.409328156343805 3.9862979462454597 2.4410399605683404 -7.705684984033074e-06 4.870856040425091e-06 4.8820764166666795" Properties=species:S:1:pos:R:3:forces:R:3 energy=-49.65912628173828 free_energy=-49.65912628173828 stress="0.0006627196562476456 -1.0628862582962029e-05 -2.134087662852835e-05 -1.0628862582962029e-05 0.000633341958746314 -1.4795483366469853e-05 -2.134087662852835e-05 -1.4795483366469853e-05 0.0006437612464651465" pbc="T T T"
Pd       1.40897774       0.99668904       2.44093616      -0.00273085       0.00074676      -0.00067229
Pd       4.22755077       2.98989576       7.32253639      -0.00406381       0.00172251      -0.00496695
P        0.00013805      -0.00000417       0.00006075       0.00094721      -0.00053612       0.00099054
N        1.42683753       1.00864971       4.88210940       0.00364530       0.00073481       0.00032054
N        4.21068602       2.97750584       4.88227152      -0.00214064      -0.00223601       0.00162192
N        3.51470341       1.00868451       3.67669289      -0.00057369       0.00097746       0.00324774
N        2.12292997       2.97746537       6.08772519       0.00309038      -0.00168484      -0.00118935
N        2.12266825       2.97738285       3.67659458       0.00161612      -0.00202549       0.00256348
N        3.51486191       1.00891940       6.08761309       0.00020993       0.00230050      -0.00191641
