9
Lattice="5.482183013331338 -5.746081543240213e-08 3.165139850049502 1.8273942906631566 5.168651572851825 3.1651398378201248 2.1145239926611977e-09 -1.348266359671534e-08 6.330279696436508" Properties=species:S:1:pos:R:3:forces:R:3 energy=-34.95071029663086 free_energy=-34.95071029663086 stress="-0.00019016963778994977 3.629587741471596e-09 7.060503737221779e-09 3.629587741471596e-09 -0.0001901436480693519 -6.629338855645983e-09 7.060503737221779e-09 -6.629338855645983e-09 -0.00019014865392819047" pbc="T T T"
Pd       1.82739373       1.29216302       3.16513986      -0.00000472      -0.00000010       0.00000029
Pd       5.48218264       3.87648830       9.49541977      -0.00000185      -0.00000345      -0.00000005
Pt      -0.00000014       0.00000009       0.00000001       0.00000107      -0.00000007      -0.00000041
Se       2.05326464       1.45187744       6.33027981      -0.00458371      -0.00324053      -0.00000006
Se       5.25631259       3.71677405       6.33027978       0.00458560       0.00324264       0.00000064
Se       4.45555097       1.45187753       4.94331930       0.00229368      -0.00324078      -0.00396991
Se       2.85402672       3.71677393       7.71724003      -0.00229242       0.00324149       0.00397112
Se       2.85402702       3.71677407       4.94331910      -0.00229196       0.00324152      -0.00397164
Se       4.45555106       1.45187754       7.71723986       0.00229422      -0.00324073       0.00396998
