9
Lattice="5.481562709851126 7.387367037698187e-08 3.164781904847643 1.8271876357980297 5.168066790596479 3.164781911431508 -1.970831848993756e-08 -5.872320203775348e-09 6.329563843831121" Properties=species:S:1:pos:R:3:forces:R:3 energy=-34.95069885253906 free_energy=-34.95069885253906 stress="-0.0003875419788528234 -2.964748446743215e-08 1.3856522151911577e-08 -2.964748446743215e-08 -0.0003875431721098721 1.7485604075773153e-08 1.3856522151911577e-08 1.7485604075773153e-08 -0.0003874644171446562" pbc="T T T"
Pd       1.82718614       1.29201435       3.16478264      -0.00000844      -0.00001140       0.00000183
Pd       5.48156375       3.87605205       9.49434977       0.00000429       0.00001065       0.00002069
Pt       0.00000014       0.00000013      -0.00000007       0.00000038      -0.00000125      -0.00000258
Se       2.05269872       1.45147639       6.32956413      -0.00237231      -0.00168115       0.00000116
Se       5.25605139       3.71659042       6.32956205       0.00237217       0.00168100      -0.00000698
Se       4.45521386       1.45147750       4.94247148       0.00119146      -0.00167913      -0.00205784
Se       2.85353599       3.71659086       7.71665476      -0.00119165       0.00168531       0.00205071
Se       2.85353790       3.71659022       4.94247119      -0.00118410       0.00168299      -0.00205762
Se       4.45521341       1.45147550       7.71665469       0.00118820      -0.00168698       0.00205047
