9
Lattice="4.49329005633436 -5.40435389433006e-08 2.594200352703452 1.4977633088823057 4.236313423481834 2.594200339326276 2.1227897375079132e-07 1.3372008201680533e-07 5.188400337729252" Properties=species:S:1:pos:R:3:forces:R:3 energy=-46.641944885253906 free_energy=-46.641944885253906 stress="-0.0001937588822329417 1.6531048459000885e-06 -4.721346158476081e-07 1.6531048459000885e-06 -0.0001955376355908811 -2.0279580326132418e-07 -4.721346158476081e-07 -2.0279580326132418e-07 -0.0001876718015410006" pbc="T T T"
Pd       1.49773188       1.05904488       2.59420781      -0.00038415      -0.00040690       0.00010001
Pd       4.49333229       3.17726290       7.78259533       0.00054216       0.00035174      -0.00005994
P        0.00000218       0.00000423       0.00000079      -0.00003701      -0.00008015      -0.00001499
O        1.38828361       0.98167117       5.18839972       0.00049424       0.00039399      -0.00002146
O        4.60276477       3.25464733       5.18839952      -0.00046802      -0.00029147       0.00000351
O        3.79914441       0.98165255       3.79650544      -0.00023031       0.00019050       0.00053501
O        2.19190065       3.25465625       6.58029439       0.00014162      -0.00016654      -0.00054157
O        2.19190337       3.25465162       3.79649968       0.00013328      -0.00023532       0.00051332
O        3.79915142       0.98166197       6.58029944      -0.00019169       0.00024354      -0.00051451
