9
Lattice="5.49381151242199 1.101102797779654e-09 3.1718534970230357 1.831270492243559 5.179615047696424 3.1718535194275086 1.104765889653333e-08 3.5251651394900116e-08 6.34370697491099" Properties=species:S:1:pos:R:3:forces:R:3 energy=-40.822147369384766 free_energy=-40.822147369384766 stress="-0.0002741441421676427 -4.111374352078201e-09 1.469311339263868e-08 -4.111374352078201e-09 -0.0002741304924711585 -4.042633605649826e-08 1.469311339263868e-08 -4.042633605649826e-08 -0.0002741855278145522" pbc="T T T"
Pd       1.83127064       1.29490362       3.17185361       0.00000039       0.00000040       0.00000158
Pd       5.49381111       3.88471127       9.51556064      -0.00000263      -0.00000040       0.00000273
Re      -0.00000009       0.00000023      -0.00000078       0.00000094       0.00000043       0.00001017
Se       2.00220396       1.41577196       6.34370713       0.00523335       0.00370038       0.00000127
Se       5.32287789       3.76384300       6.34370724      -0.00523400      -0.00369957      -0.00000178
Se       4.49270937       1.41577247       4.90581262      -0.00261727       0.00370228       0.00452876
Se       2.83237247       3.76384325       7.78160136       0.00261807      -0.00370398      -0.00453568
Se       2.83237284       3.76384266       4.90581305       0.00261775      -0.00370017       0.00452864
Se       4.49270988       1.41577182       7.78160113      -0.00261644       0.00370076      -0.00453502
