9
Lattice="4.617747352032698 5.6412406566973136e-08 2.666057755348036 1.5392491515755369 4.353653946378075 2.6660577881787946 -6.555879897777105e-10 3.974571642921892e-08 5.332115511831569" Properties=species:S:1:pos:R:3:forces:R:3 energy=-46.453094482421875 free_energy=-46.453094482421875 stress="4.325866757426411e-05 2.629942841281263e-08 -1.93607507803506e-09 2.629942841281263e-08 4.3128591642016545e-05 1.3467362336427868e-08 -1.93607507803506e-09 1.3467362336427868e-08 4.318690480431542e-05" pbc="T T T"
Pd       1.53924921       1.08841312       2.66605784       0.00000083      -0.00000622      -0.00000386
Pd       4.61774796       3.26524081       7.99817284       0.00000789       0.00000425      -0.00001090
Ru       0.00000029       0.00000006      -0.00000118       0.00000035       0.00000045      -0.00000255
O        1.53627678       1.08631216       5.33211656      -0.00392425      -0.00277421       0.00000573
O        4.62071946       3.26734233       5.33211668       0.00392264       0.00277734       0.00000836
O        3.84960862       1.08631114       3.99651265       0.00195861      -0.00277781      -0.00339532
O        2.30738746       3.26734255       6.66771808      -0.00196120       0.00277606       0.00339460
O        2.30738733       3.26734226       3.99651245      -0.00196415       0.00277376      -0.00339335
O        3.84960890       1.08631179       6.66771822       0.00195974      -0.00277346       0.00339663
