9
Lattice="5.277236685323053 -5.641709915454807e-08 3.0468140593847592 1.7590788671111315 4.975426449805884 3.0468140157474797 2.9622855996520372e-08 -3.249801783114055e-08 6.093628067461204" Properties=species:S:1:pos:R:3:forces:R:3 energy=-43.320770263671875 free_energy=-43.320770263671875 stress="0.000218777873669751 -8.42717895466194e-09 -1.4844724560703071e-08 -8.42717895466194e-09 0.00021869367628823966 7.615317088038864e-08 -1.4844724560703071e-08 7.615317088038864e-08 0.000218737666727975" pbc="T T T"
Pd       1.75907886       1.24385596       3.04681415      -0.00000119      -0.00000693       0.00000274
Pd       5.27723649       3.73157023       9.14044497      -0.00000235       0.00000363       0.00002550
Re      -0.00000006      -0.00000019      -0.00000016       0.00000034       0.00000039      -0.00000098
S        1.87882669       1.32853057       6.09362803      -0.00438380      -0.00310349      -0.00000091
S        5.15748896       3.64689589       6.09362656       0.00438619       0.00310469      -0.00001363
S        4.33782396       1.32853151       4.67392543       0.00219846      -0.00309861      -0.00380230
S        2.69849242       3.64689573       7.51333013      -0.00219345       0.00310463       0.00379688
S        2.69849232       3.64689561       4.67392531      -0.00219131       0.00310254      -0.00379962
S        4.33782275       1.32853004       7.51333018       0.00218743      -0.00310755       0.00379235
