9
Lattice="2.275509545289651 0.39756765414733647 1.7499913839890913 0.4774830767143987 2.7967009770046336 1.4238798170115505 -0.056711450669574746 0.3588134300009409 2.791088073048614" Properties=species:S:1:pos:R:3:forces:R:3 energy=-24108337152.0 free_energy=-24108337152.0 stress="0.0 -899093184.0 268781280.0 -899093184.0 0.0 -1267590400.0 268781280.0 -1267590400.0 0.0" pbc="T T T"
Pd       2.25106246       2.88835051       0.69641928 -3846821120.00000000 1587628032.00000000 1751926784.00000000
Pd       3.08523944       4.87270581       4.61271764 -32968640.00000000 1316639360.00000000 -7387929600.00000000
Rh      -0.37596901       2.22504667       0.21292038 -1725347840.00000000 76940902400.00000000 -28850300928.00000000
O        0.47164417       3.72840615       3.92077732 -1867810688.00000000 -1524513792.00000000 -7265864704.00000000
O        3.72412826       4.96205512       3.85541264 -11396040704.00000000 -2695212544.00000000 7954800640.00000000
O        1.86851076       4.04138575       2.65168020 -8955267072.00000000 -2900675072.00000000 3423576832.00000000
O        1.67911149       3.17704787       4.48127087 34282536960.00000000 -59032530944.00000000 52714274816.00000000
O        2.32689109       5.47363283       3.30528504 -16715541504.00000000 -26691063808.00000000 -21813372928.00000000
O        1.34787896       3.57339921       2.87702887 10257252352.00000000 12998880256.00000000 -527126880.00000000
