9
Lattice="4.588823600111737 4.948403517828971e-08 2.649358562969843 1.5296079430086067 4.326384403572051 2.6493585116133507 7.540531158053083e-08 -9.579010932053687e-09 5.2987169953338515" Properties=species:S:1:pos:R:3:forces:R:3 energy=-52.98948669433594 free_energy=-52.98948669433594 stress="1.074854935723124e-05 5.2953673446154426e-08 -2.6664608299142856e-08 5.2953673446154426e-08 1.078769037121674e-05 6.629096382937405e-09 -2.6664608299142856e-08 6.629096382937405e-09 1.0525978723308071e-05" pbc="T T T"
Pd       1.52960839       1.08159653       2.64935713       0.00001578       0.00000731      -0.00001799
Pd       4.58882582       3.24478878       7.94807560       0.00002700       0.00000506      -0.00000419
Re       0.00000122       0.00000008      -0.00000129       0.00000487       0.00000322       0.00000117
O        1.55188540       1.09734885       5.29871766       0.00293481       0.00207877       0.00001167
O        4.56654584       3.22903639       5.29871687      -0.00294495      -0.00207877      -0.00000061
O        3.81288059       1.09734842       3.99333076      -0.00147259       0.00207400       0.00254834
O        2.30555008       3.22903493       6.60410400       0.00146157      -0.00208962      -0.00254810
O        2.30554887       3.22903536       3.99333155       0.00145614      -0.00207794       0.00255644
O        3.81288027       1.09734839       6.60410408      -0.00148231       0.00207818      -0.00254881
