9
Lattice="5.229518489755705 1.197998159670943e-08 3.019263883634318 1.7431728288390214 4.930437317243886 3.0192639050673717 -1.6076921207955893e-08 1.4881926747974651e-08 6.038527795114684" Properties=species:S:1:pos:R:3:forces:R:3 energy=-37.61865234375 free_energy=-37.61865234375 stress="-0.0004566008865367621 2.5631134548120826e-08 1.2953169203910875e-08 2.5631134548120826e-08 -0.00045654154382646084 2.3067075360927447e-08 1.2953169203910875e-08 2.3067075360927447e-08 -0.00045661412877961993" pbc="T T T"
Pd       1.74317285       1.23260935       3.01926379       0.00000059      -0.00000040      -0.00000214
Pd       5.22951847       3.69782802       9.05779179      -0.00000036       0.00000171       0.00000147
Rh      -0.00000004       0.00000003       0.00000012      -0.00000071       0.00000006      -0.00000157
S        1.84482922       1.30449128       6.03852780       0.00035471       0.00025034      -0.00000073
S        5.12786209       3.62594608       6.03852770      -0.00035536      -0.00024980      -0.00000100
S        4.30710391       1.30449132       4.61693295      -0.00017703       0.00025141       0.00030863
S        2.66558745       3.62594592       7.46012262       0.00017753      -0.00025141      -0.00030625
S        2.66558745       3.62594609       4.61693287       0.00017807      -0.00025165       0.00030822
S        4.30710380       1.30449128       7.46012268      -0.00017783       0.00024951      -0.00030667
