9
Lattice="5.42263595839293 2.281691068892471e-08 3.1307602999014637 1.8075453325264295 5.112510173230241 3.130760314537023 -5.143826265892499e-08 -1.8447516748936485e-08 6.2615206888966" Properties=species:S:1:pos:R:3:forces:R:3 energy=-38.22564697265625 free_energy=-38.22564697265625 stress="2.4109285732265562e-05 1.5827198440732104e-09 1.834394858235555e-08 1.5827198440732104e-09 2.4072080123005435e-05 2.1338522060432297e-08 1.834394858235555e-08 2.1338522060432297e-08 2.408054751867894e-05" pbc="T T T"
Pd       1.80754566       1.27812786       3.13076009       0.00000274       0.00000234      -0.00000200
Pd       5.42263598       3.83438253       9.39228141       0.00000057      -0.00000031       0.00000313
Ru       0.00000002      -0.00000003       0.00000003       0.00000081      -0.00000077       0.00000003
Se       1.98801951       1.40574220       6.26152075      -0.00007538      -0.00005282      -0.00000084
Se       5.24216162       3.70676822       6.26152029       0.00007629       0.00005427      -0.00000206
Se       4.42862640       1.40574209       4.85243566       0.00003872      -0.00005266      -0.00006606
Se       2.80155497       3.70676791       7.67060566      -0.00004043       0.00005332       0.00006765
Se       2.80155499       3.70676802       4.85243561      -0.00003830       0.00005151      -0.00006634
Se       4.42862581       1.40574191       7.67060567       0.00003506      -0.00005478       0.00006659
