9
Lattice="4.353943350806175 -5.149703845094356e-08 2.5137503998163577 1.4513144199086399 4.104937072572511 2.513750368307263 6.700990346883972e-09 -3.3852293737193356e-08 5.027500788026264" Properties=species:S:1:pos:R:3:forces:R:3 energy=-48.75780487060547 free_energy=-48.75780487060547 stress="-0.0002253793500130996 -2.685201572205642e-08 -1.0019626017765404e-07 -2.685201572205642e-08 -0.00022525008535012603 -4.29482618358179e-08 -1.0019626017765404e-07 -4.29482618358179e-08 -0.00022519730555359274" pbc="T T T"
Pd       1.45131488       1.02623470       2.51375049       0.00000793       0.00000923       0.00000467
Pd       4.35394354       3.07870254       7.54125108       0.00000004      -0.00000511      -0.00000008
Rh       0.00000005      -0.00000004       0.00000000      -0.00000394      -0.00000006      -0.00000061
N        1.58784464       1.12277577       5.02750081       0.00293857       0.00208109      -0.00000088
N        4.21741299       2.98216134       5.02750091      -0.00293911      -0.00208127       0.00000249
N        3.56002068       1.12277575       3.88886403      -0.00147204       0.00208335       0.00254112
N        2.24523659       2.98216109       6.16613741       0.00146769      -0.00208294      -0.00254489
N        2.24523666       2.98216105       3.88886410       0.00147188      -0.00208478       0.00254168
N        3.56002101       1.12277573       6.16613738      -0.00147112       0.00208054      -0.00254346
