9
Lattice="5.165216068729637 -1.5238887154850886e-08 2.9821387350574553 1.7217386637452603 4.869812195121064 2.9821387549135214 -6.932512167934935e-08 -2.4701698490570045e-08 5.9642775901896155" Properties=species:S:1:pos:R:3:forces:R:3 energy=-39.36820602416992 free_energy=-39.36820602416992 stress="-0.00010573992767604068 2.7505798527727165e-08 2.276813226842478e-08 2.7505798527727165e-08 -0.00010551484592724591 -2.100500573476438e-08 2.276813226842478e-08 -2.100500573476438e-08 -0.00010572984319878742" pbc="T T T"
Pd       1.72173704       1.21745300       2.98213866      -0.00001635       0.00000132      -0.00000307
Pd       5.16521599       3.65236009       8.94641460      -0.00000114       0.00001068      -0.00001428
Ru       0.00000003       0.00000000       0.00000014      -0.00000175       0.00000046      -0.00000156
S        1.84191565       1.30243093       5.96427760       0.00159758       0.00112671       0.00000088
S        5.04503938       3.56738116       5.96427827      -0.00159270      -0.00112951       0.00000562
S        4.24425868       1.30243012       4.57728478      -0.00079414       0.00112367       0.00139159
S        2.64269663       3.56738140       7.35127100       0.00080070      -0.00112826      -0.00138044
S        2.64269627       3.56738126       4.57728460       0.00079787      -0.00112975       0.00138462
S        4.24425897       1.30243064       7.35127056      -0.00079027       0.00112480      -0.00138313
