9
Lattice="5.3123774073547105 -2.8705956151719755e-07 3.0671028328904715 1.7707922750228127 5.008556971536839 3.0671027003072173 -1.649095067881112e-07 -2.789893281693069e-07 6.134205951412739" Properties=species:S:1:pos:R:3:forces:R:3 energy=-30.355594635009766 free_energy=-30.355594635009766 stress="-2.320675548617146e-06 -1.667970934704499e-07 5.784026768651529e-08 -1.667970934704499e-07 -2.2271981379162753e-06 1.70974114865885e-08 5.784026768651529e-08 1.70974114865885e-08 -2.3150894321588567e-06" pbc="T T T"
Pd       1.77079575       1.25213758       3.06710204       0.00003911      -0.00002028      -0.00001350
Pd       5.31237385       3.75641640       9.20130987      -0.00004120      -0.00001161       0.00001781
Se      -0.00000001      -0.00000005       0.00000011      -0.00001050      -0.00000859      -0.00000608
S        1.79167985       1.26690769       6.13420631       0.00187790       0.00131512       0.00000501
S        5.29148887       3.74164901       6.13420468      -0.00187218      -0.00129557      -0.00001200
S        4.41653705       1.26691015       4.61874231      -0.00093681       0.00133324       0.00159562
S        2.66663357       3.74164748       7.64966840       0.00094429      -0.00131428      -0.00159961
S        2.66663439       3.74164788       4.61874256       0.00095353      -0.00131249       0.00159770
S        4.41653469       1.26690931       7.64966945      -0.00095382       0.00131422      -0.00158477
