9
Lattice="4.0573906776048485 8.747398992941265e-08 2.342535596012871 1.3524636209620775 3.8253447091689976 2.3425356318850508 -5.4556059745474165e-08 5.357359022535786e-09 4.6850712865195865" Properties=species:S:1:pos:R:3:forces:R:3 energy=-49.75625991821289 free_energy=-49.75625991821289 stress="0.00014710468531120569 1.37969308866559e-07 -8.312019872391829e-08 1.37969308866559e-07 0.0001474015152780339 -6.798112650585608e-08 -8.312019872391829e-08 -6.798112650585608e-08 0.00014735061267856508" pbc="T T T"
Pd       1.35246375       0.95633639       2.34253461      -0.00000071      -0.00000302      -0.00000011
Pd       4.05739074       2.86900852       7.02760592       0.00000174       0.00000218      -0.00000406
Si      -0.00000016       0.00000005       0.00000005       0.00000376      -0.00000397       0.00001274
N        1.47673632       1.04421055       4.68507157       0.00733405       0.00518367       0.00000635
N        3.93311781       2.78113433       4.68507183      -0.00733376      -0.00518417      -0.00000236
N        3.31902287       1.04421061       3.62142701      -0.00366288       0.00518212       0.00634599
N        2.09083225       2.78113436       5.74871618       0.00366747      -0.00518680      -0.00635079
N        2.09083122       2.78113441       3.62142744       0.00366496      -0.00518215       0.00634336
N        3.31902207       1.04421008       5.74871569      -0.00367583       0.00519204      -0.00635239
