9
Lattice="4.646626045808315 7.245216768507375e-09 2.682730799231179 1.5488753333775718 4.380881032657332 2.6827308374333403 -5.907615944735013e-08 5.01472641040601e-09 5.365461700785303" Properties=species:S:1:pos:R:3:forces:R:3 energy=-44.565773010253906 free_energy=-44.565773010253906 stress="-0.00022676915978081524 -4.4284870881483585e-08 9.428266167788024e-08 -4.4284870881483585e-08 -0.00022675440413877368 8.361278958091134e-08 9.428266167788024e-08 8.361278958091134e-08 -0.0002266556693939492" pbc="T T T"
Pd       1.54887529       1.09521926       2.68273132      -0.00000040      -0.00001490       0.00000818
Pd       4.64662502       3.28565942       8.04819034      -0.00001364      -0.00001849      -0.00003415
Sc      -0.00000008       0.00000018      -0.00000026       0.00000072      -0.00000145       0.00000319
O        1.65323377       1.16901327       5.36546164      -0.00340194      -0.00240067      -0.00000145
O        4.54226721       3.21186846       5.36546248       0.00339848       0.00240976       0.00001450
O        3.82000879       1.16901318       4.11447356       0.00169826      -0.00240615      -0.00294873
O        2.37549328       3.21186840       6.61645024      -0.00168668       0.00241235       0.00295162
O        2.37549235       3.21186819       4.11447371      -0.00170404       0.00241068      -0.00294504
O        3.82000965       1.16901376       6.61645048       0.00170912      -0.00239080       0.00295195
