9
Lattice="4.345874095410841 5.183643582479411e-08 2.5090915911804155 1.4486247386289528 4.097329480554882 2.5090916062721007 -3.5362953176430655e-08 -6.521937414886763e-09 5.018183243611244" Properties=species:S:1:pos:R:3:forces:R:3 energy=-45.222862243652344 free_energy=-45.222862243652344 stress="0.0002813785686157644 -3.479411248008546e-08 7.839972226975078e-08 -3.479411248008546e-08 0.00028126974939368665 -3.102538670418653e-08 7.839972226975078e-08 -3.102538670418653e-08 0.0002810913138091564" pbc="T T T"
Pd       1.44862469       1.02433267       2.50909152       0.00000272       0.00000096      -0.00000575
Pd       4.34587407       3.07299779       7.52727396       0.00000066       0.00000324      -0.00000798
S       -0.00000178      -0.00000029       0.00000512      -0.00002032      -0.00000261       0.00005860
N        1.39761704       0.98826395       5.01818256      -0.00091493      -0.00064993      -0.00000863
N        4.39688272       3.10906538       5.01818293       0.00092292       0.00065100      -0.00000664
N        3.64706603       0.98826369       3.71946206       0.00046033      -0.00065267      -0.00080335
N        2.14743358       3.10906524       6.31690280      -0.00045758       0.00065184       0.00078928
N        2.14743303       3.10906554       3.71946210      -0.00045842       0.00064921      -0.00080347
N        3.64706581       0.98826431       6.31690266       0.00046337      -0.00065136       0.00078905
