9
Lattice="5.199996389499949 8.253307424373213e-08 3.00221948768048 1.7333322061296483 4.902604093127897 3.0022194903072905 2.3972218527291692e-08 2.016811922373881e-08 6.004438933839854" Properties=species:S:1:pos:R:3:forces:R:3 energy=-34.154266357421875 free_energy=-34.154266357421875 stress="0.00014475973148364574 5.515048684401336e-08 -3.632623979399341e-09 5.515048684401336e-08 0.00014471958274953067 8.619012170640872e-09 -3.632623979399341e-09 8.619012170640872e-09 0.00014466072025243193" pbc="T T T"
Pd       1.73332927       1.22565487       3.00221874      -0.00003625       0.00004761      -0.00000887
Pd       5.19999612       3.67695263       9.00665256      -0.00000521      -0.00000988      -0.00007012
Si      -0.00000002       0.00000026       0.00000025       0.00000114      -0.00000454      -0.00000155
S        1.78714765       1.26370475       6.00443858      -0.00349778      -0.00247148      -0.00000262
S        5.14618224       3.63889758       6.00444148       0.00351864       0.00244978       0.00003325
S        4.30642345       1.26370342       4.54993604       0.00175890      -0.00248286      -0.00300950
S        2.62690669       3.63889884       7.45894399      -0.00174108       0.00246251       0.00304675
S        2.62690508       3.63889855       4.54993544      -0.00176439       0.00246194      -0.00302580
S        4.30642408       1.26370585       7.45894446       0.00176594      -0.00245345       0.00303897
