9
Lattice="4.5107124071293585 -1.4429730021797128e-08 2.604261174834505 1.503570785611668 4.252740563047721 2.604261180308294 -4.21576185180105e-08 -2.310593927083494e-08 5.208522422688165" Properties=species:S:1:pos:R:3:forces:R:3 energy=-39.557106018066406 free_energy=-39.557106018066406 stress="0.0006305424030870199 9.355966668067595e-09 -7.387065181774233e-08 9.355966668067595e-09 0.0006305351853370667 -9.99576776905542e-09 -7.387065181774233e-08 -9.99576776905542e-09 0.0006307967705652118" pbc="T T T"
Pd       1.50357495       1.06318626       2.60426005       0.00005689       0.00001659      -0.00001555
Pd       4.51071392       3.18955706       7.81278260       0.00002429       0.00002265      -0.00001103
Se       0.00000221       0.00000071       0.00000034       0.00003600       0.00001271      -0.00000429
O        1.52468809       1.07811760       5.20852266      -0.00364912      -0.00257564       0.00000697
O        4.48959320       3.17462213       5.20852269       0.00362539       0.00257313       0.00000492
O        3.74836589       1.07811673       3.92468107       0.00179428      -0.00258827      -0.00314891
O        2.26591406       3.17462193       6.49236421      -0.00183934       0.00256014       0.00315237
O        2.26591455       3.17462194       3.92468070      -0.00183809       0.00256288      -0.00314820
O        3.74836559       1.07811775       6.49236485       0.00178993      -0.00258362       0.00316262
