9
Lattice="4.408315879357419 1.8189866136490372e-07 2.545142765243944 1.469438708233036 4.156200591193349 2.5451429206351577 -2.425760278608203e-07 1.8787438580911374e-08 5.090285950641849" Properties=species:S:1:pos:R:3:forces:R:3 energy=-42.9843864440918 free_energy=-42.9843864440918 stress="-0.00034715229412540793 -6.015542908244242e-08 3.982552954084895e-09 -6.015542908244242e-08 -0.00034777296241372824 1.308895889451378e-07 3.982552954084895e-09 1.308895889451378e-07 -0.00034748573671095073" pbc="T T T"
Pd       1.46943966       1.03905057       2.54514282       0.00001040       0.00000137      -0.00000247
Pd       4.40831483       3.11715064       7.63543104      -0.00001068       0.00000259       0.00001818
S        0.00000030       0.00000000      -0.00000021      -0.00000227      -0.00000695       0.00000270
O        1.32792807       0.93898667       5.09028604       0.00253224       0.00179517      -0.00000148
O        4.54982625       3.21721394       5.09028525      -0.00252604      -0.00179505      -0.00000620
O        3.74435150       0.93898700       3.69516157      -0.00126529       0.00179553       0.00219190
O        2.13340286       3.21721342       6.48540941       0.00126314      -0.00179315      -0.00219440
O        2.13340320       3.21721381       3.69516172       0.00126922      -0.00179815       0.00219667
O        3.74435118       0.93898639       6.48540922      -0.00127161       0.00179780      -0.00220561
