9
Lattice="5.693780817893753 -4.679513525744245e-08 3.287305803710384 1.8979269175203006 5.368147926637118 3.2873057650141755 6.28247257845157e-08 -2.969164324030838e-09 6.574611498605185" Properties=species:S:1:pos:R:3:forces:R:3 energy=-31.747671127319336 free_energy=-31.747671127319336 stress="-0.00020316058362368494 1.799999971296984e-08 3.7050276180394803e-09 1.799999971296984e-08 -0.000203172821784392 -2.053375069976937e-08 3.7050276180394803e-09 -2.053375069976937e-08 -0.00020316084555815905" pbc="T T T"
Pd       1.89792688       1.34203352       3.28730270       0.00000223      -0.00001613      -0.00000898
Pd       5.69377767       4.02611207       9.86191519      -0.00001250       0.00000760      -0.00000245
Sn       0.00000062       0.00000065       0.00000221       0.00000040      -0.00000296      -0.00001132
Se       2.21735600       1.56790562       6.57461095       0.00280284       0.00197323       0.00000602
Se       5.37435287       3.80024419       6.57461028      -0.00281225      -0.00197653       0.00000342
Se       4.58510330       1.56790561       5.20759158      -0.00139704       0.00197944       0.00243305
Se       3.00660427       3.80024244       7.94163389       0.00141266      -0.00198384      -0.00242429
Se       3.00660591       3.80024247       5.20759207       0.00140765      -0.00196839       0.00243044
Se       4.58510368       1.56790493       7.94163338      -0.00140394       0.00198759      -0.00242588
