9
Lattice="4.40982161130033 -2.3942150907035284e-08 2.546011566077107 1.4699405221671273 4.15761965748774 2.5460115528443907 -1.06241546992242e-07 -9.133080910262308e-08 5.09202331616996" Properties=species:S:1:pos:R:3:forces:R:3 energy=-42.9843864440918 free_energy=-42.9843864440918 stress="0.00010049821139546111 7.420094050303305e-08 9.092868680227184e-08 7.420094050303305e-08 0.00010021636262536049 -3.870944453865377e-08 9.092868680227184e-08 -3.870944453865377e-08 0.00010066377581097186" pbc="T T T"
Pd       1.46993911       1.03940477       2.54601149      -0.00001125      -0.00000167      -0.00000440
Pd       4.40982118       3.11821481       7.63803403      -0.00000397       0.00000279      -0.00000722
S        0.00000015       0.00000009      -0.00000002      -0.00000051       0.00000430       0.00000040
O        1.32796269       0.93901072       5.09202370       0.00406742       0.00287449       0.00000225
O        4.55179965       3.21860868       5.09202334      -0.00406671      -0.00287580       0.00000309
O        3.74584092       0.93901095       3.69606080      -0.00203121       0.00287819       0.00352705
O        2.13392164       3.21860849       6.48798594       0.00203884      -0.00288165      -0.00352561
O        2.13392182       3.21860845       3.69606060       0.00203395      -0.00287819       0.00352335
O        3.74584114       0.93901104       6.48798576      -0.00202727       0.00287759      -0.00351930
