9
Lattice="5.413524126637305 3.0880013698571256e-08 3.125499625578326 1.8045080879666149 5.103919630774097 3.1254995967565438 -2.0903022934287975e-07 -1.8310600114949867e-07 6.2509996132076795" Properties=species:S:1:pos:R:3:forces:R:3 energy=-35.0596923828125 free_energy=-35.0596923828125 stress="-3.481100748103927e-06 -3.141563453823437e-08 5.504584166260429e-08 -3.141563453823437e-08 -3.5425048281467753e-06 3.0427493413753837e-08 5.504584166260429e-08 3.0427493413753837e-08 -3.6742007978318725e-06" pbc="T T T"
Pd       1.80450923       1.27597796       3.12550059       0.00001983      -0.00002499       0.00000565
Pd       5.41352208       3.82794195       9.37650254      -0.00002562       0.00002796       0.00004821
Sc       0.00000032      -0.00000040      -0.00000014      -0.00000635       0.00000568       0.00000046
S        1.96365195       1.38850982       6.25100020       0.00006908       0.00002436       0.00000752
S        5.25437922       3.71541011       6.25099651      -0.00007293      -0.00001581      -0.00003135
S        4.43169808       1.38851169       4.82607116      -0.00003369       0.00004220       0.00004345
S        2.78633435       3.71540908       7.67592767       0.00003967      -0.00003701      -0.00005329
S        2.78633574       3.71540846       4.82607026       0.00005711      -0.00003767       0.00003777
S        4.43169703       1.38850917       7.67592656      -0.00004728       0.00001523      -0.00005859
