9
Lattice="5.559380434805386 -2.2788688731155864e-07 3.209709468329516 1.8531267735484938 5.241433485353812 3.2097091621020755 9.357630361308838e-07 2.866339480469853e-07 6.4194173158698895" Properties=species:S:1:pos:R:3:forces:R:3 energy=-35.05889129638672 free_energy=-35.05889129638672 stress="-3.8223748560994864e-05 2.571411528151657e-07 -4.6417838461820793e-07 2.571411528151657e-07 -3.7784706364618614e-05 -2.765356725831225e-07 -4.6417838461820793e-07 -2.765356725831225e-07 -3.7501151382457465e-05" pbc="T T T"
Pd       1.85312364       1.31035906       3.20971001      -0.00002781       0.00000417       0.00001462
Pd       5.55938212       3.93107357       9.62912196       0.00001301      -0.00000938      -0.00004079
Sc       0.00000064      -0.00000025       0.00000072      -0.00000378       0.00000161      -0.00000537
Se       2.09221186       1.47941866       6.41941533      -0.00736604      -0.00519175      -0.00002076
Se       5.32029648       3.76201401       6.41942340       0.00736993       0.00518722       0.00003905
Se       4.51327564       1.47941597       5.02161910       0.00368449      -0.00521141      -0.00635894
Se       2.89923433       3.76201773       7.81721681      -0.00367392       0.00521675       0.00636353
Se       2.89922930       3.76201626       5.02161908      -0.00370673       0.00519393      -0.00635791
Se       4.51327860       1.47941914       7.81721731       0.00371119      -0.00519121       0.00636645
