9
Lattice="4.655454998736479 -3.73701941467315e-08 2.687828174699023 1.5518183126695722 4.389204746511314 2.6878281487349525 1.0061698131689786e-07 3.934756774484308e-08 5.375656175124287" Properties=species:S:1:pos:R:3:forces:R:3 energy=-39.77140426635742 free_energy=-39.77140426635742 stress="-0.00010812796972459182 4.054420088550614e-08 -1.6318944062732044e-07 4.054420088550614e-08 -0.00010789046791614965 -6.554997611374347e-08 -1.6318944062732044e-07 -6.554997611374347e-08 -0.00010789189400384203" pbc="T T T"
Pd       1.55181972       1.09729828       2.68782794       0.00002050      -0.00003814      -0.00000499
Pd       4.65545575       3.29190412       8.06349043       0.00000663       0.00000728       0.00008476
Sn      -0.00000018      -0.00000007       0.00000037       0.00000016       0.00000260      -0.00001528
O        1.65805832       1.17242445       5.37565631      -0.00037438      -0.00026107       0.00000090
O        4.54921474       3.21678129       5.37565362       0.00036222       0.00027215      -0.00003792
O        3.82642550       1.17242524       4.12374747       0.00018129      -0.00024623      -0.00033140
O        2.38084703       3.21678120       6.62756253      -0.00019985       0.00027353       0.00030780
O        2.38084872       3.21678198       4.12374850      -0.00016519       0.00027478      -0.00031841
O        3.82642424       1.17242255       6.62756280       0.00016832      -0.00028479       0.00031328
