9
Lattice="4.5096023000211725 9.525389546099285e-08 2.603620261983433 1.5032007830091432 4.251694231876079 2.603620389238598 -9.721032951760709e-08 8.71170747073167e-08 5.207240692340074" Properties=species:S:1:pos:R:3:forces:R:3 energy=-39.55712890625 free_energy=-39.55712890625 stress="-5.090228660264984e-05 2.0739381767498344e-08 9.576148762846515e-09 2.0739381767498344e-08 -5.099512418382801e-05 -7.00597269087666e-08 9.576148762846515e-09 -7.00597269087666e-08 -5.097238317830488e-05" pbc="T T T"
Pd       1.50319915       1.06292317       2.60361596      -0.00001043      -0.00000738      -0.00007114
Pd       4.50960444       3.18877248       7.81085698       0.00003459       0.00001922      -0.00006884
Se       0.00000301      -0.00000032      -0.00000781       0.00003103      -0.00000072      -0.00009800
O        1.52433254       1.07786593       5.20724354      -0.00052643      -0.00037193       0.00004615
O        4.48846973       3.17382929       5.20724349       0.00050819       0.00037026       0.00004435
O        3.74743677       1.07786447       3.92373371       0.00026166      -0.00037885      -0.00040734
O        2.26536577       3.17382782       6.49075292      -0.00026858       0.00035787       0.00048196
O        2.26536475       3.17382947       3.92373342      -0.00027978       0.00037467      -0.00040805
O        3.74743582       1.07786589       6.49075260       0.00024939      -0.00036418       0.00048196
