9
Lattice="5.434087508711763 6.070425343480188e-08 3.1373717517741073 1.811362519782289 5.123306534781218 3.1373718216695514 1.0129092756832497e-08 9.276643489615556e-08 6.274743486004136" Properties=species:S:1:pos:R:3:forces:R:3 energy=-33.76878356933594 free_energy=-33.76878356933594 stress="-9.846153989201412e-05 5.498876354259608e-10 1.2758581746652453e-08 5.498876354259608e-10 -9.848074842011556e-05 -1.343643640794312e-09 1.2758581746652453e-08 -1.343643640794312e-09 -9.843440057011321e-05" pbc="T T T"
Pd       1.81135991       1.28082533       3.13737240      -0.00001392      -0.00000626       0.00000305
Pd       5.43408587       3.84248262       9.41211493      -0.00000818       0.00001155      -0.00000178
Si       0.00000017      -0.00000003      -0.00000011       0.00000283      -0.00000148       0.00000189
Se       2.02284888       1.43036869       6.27474358      -0.00130810      -0.00093241      -0.00000055
Se       5.22260230       3.69293636       6.27474387       0.00131607       0.00092644       0.00000064
Se       4.42266384       1.43036922       4.88920995       0.00065811      -0.00093010      -0.00113400
Se       2.82278769       3.69293804       7.66027671      -0.00065217       0.00093202       0.00113646
Se       2.82278747       3.69293749       4.88921008      -0.00065426       0.00093139      -0.00113825
Se       4.42266397       1.43036902       7.66027683       0.00065960      -0.00093120       0.00113256
