9
Lattice="5.46450424885858 1.5615399645405375e-07 3.1549329840585973 1.821501447254267 5.15198423699061 3.15493318541869 -7.113315218424706e-08 1.9631603646541585e-07 6.309866091323317" Properties=species:S:1:pos:R:3:forces:R:3 energy=-30.885665893554688 free_energy=-30.885665893554688 stress="8.51388685987331e-05 8.933866979532468e-08 -5.252270440792017e-08 8.933866979532468e-08 8.499543037032709e-05 5.775159195309243e-08 -5.252270440792017e-08 5.775159195309243e-08 8.496034570271149e-05" pbc="T T T"
Pd       1.82150212       1.28799505       3.15493391       0.00001107      -0.00001247       0.00000664
Pd       5.46450582       3.86398832       9.46479751       0.00001383       0.00000215      -0.00001438
Sn       0.00000009      -0.00000043       0.00000003      -0.00000079       0.00001319       0.00000495
S        2.00895474       1.42054566       6.30986629      -0.00346905      -0.00245226      -0.00000217
S        5.27705057       3.73144065       6.30986765       0.00345344       0.00246120       0.00001827
S        4.46002602       1.42054510       4.89473846       0.00172229      -0.00246116      -0.00300491
S        2.82597776       3.73144001       7.72499352      -0.00173154       0.00245212       0.00298897
S        2.82597767       3.73143926       4.89473811      -0.00173606       0.00244617      -0.00299248
S        4.46002755       1.42054484       7.72499348       0.00173663      -0.00244912       0.00299519
