9
Lattice="5.4974896790060965 4.757227686098838e-08 3.1739779694946617 1.8324965994293854 5.183083140073436 3.1739779783125814 -5.748217400439706e-08 -2.9846301048809706e-08 6.347956038551344" Properties=species:S:1:pos:R:3:forces:R:3 energy=-37.79784393310547 free_energy=-37.79784393310547 stress="6.856286199763417e-05 -7.234733701011464e-09 -1.2531187199016358e-10 -7.234733701011464e-09 6.852357182651758e-05 2.8442618926760588e-08 -1.2531187199016358e-10 2.8442618926760588e-08 6.832513463450596e-05" pbc="T T T"
Pd       1.83249705       1.29577107       3.17397781       0.00000462       0.00000358      -0.00000080
Pd       5.49748910       3.88731191       9.52193439      -0.00000632      -0.00000461       0.00000225
Ti      -0.00000002      -0.00000004      -0.00000028       0.00000141      -0.00000040       0.00000126
Se       2.00126737       1.41510982       6.34795621       0.00045775       0.00032298       0.00000050
Se       5.32871870       3.76797330       6.34795563      -0.00045741      -0.00032252      -0.00000120
Se       4.49685598       1.41511023       4.90712597      -0.00022889       0.00032511       0.00039459
Se       2.83313049       3.76797316       7.78878599       0.00023059      -0.00032569      -0.00039518
Se       2.83313059       3.76797321       4.90712585       0.00023091      -0.00032587       0.00039536
Se       4.49685564       1.41511003       7.78878632      -0.00023271       0.00032730      -0.00039692
