9
Lattice="5.4963620317127 1.1822606468811307e-08 3.1733262010526997 1.8321207225610256 5.182019862500511 3.173326141856411 8.072489241744692e-08 -1.541923547020459e-08 6.3466522622857795" Properties=species:S:1:pos:R:3:forces:R:3 energy=-37.797828674316406 free_energy=-37.797828674316406 stress="-0.00023130841145757586 2.3097639356706168e-08 -2.5525439539819672e-08 2.3097639356706168e-08 -0.00023119240358937532 -1.578514208233628e-08 -2.5525439539819672e-08 -1.578514208233628e-08 -0.00023123306164052337" pbc="T T T"
Pd       1.83212040       1.29550582       3.17332678      -0.00000376       0.00000456       0.00000486
Pd       5.49636270       3.88651434       9.51997805       0.00000369      -0.00000283      -0.00000062
Ti      -0.00000031       0.00000000       0.00000047       0.00000249      -0.00000012      -0.00000621
Se       2.00130104       1.41513406       6.34665274      -0.00427315      -0.00301831       0.00000243
Se       5.32718166       3.76688573       6.34665325       0.00427286       0.00302022       0.00000578
Se       4.49571164       1.41513388       4.90650367       0.00213491      -0.00301812      -0.00369918
Se       2.83277109       3.76688665       7.78680009      -0.00213923       0.00302336       0.00369751
Se       2.83277096       3.76688528       4.90650343      -0.00213742       0.00301351      -0.00370170
Se       4.49571212       1.41513367       7.78679996       0.00213968      -0.00302232       0.00369719
