9
Lattice="5.278852596910673 5.017946495001512e-08 3.0477467548652677 1.7596175565796024 4.976949944758716 3.0477467947605756 -3.342270665551577e-08 2.5228155271618025e-08 6.095493567620391" Properties=species:S:1:pos:R:3:forces:R:3 energy=-39.42129898071289 free_energy=-39.42129898071289 stress="8.587142474425491e-06 7.291307468904051e-08 -4.188427027429498e-08 7.291307468904051e-08 8.510305633535609e-06 -1.2578546204622398e-08 -4.188427027429498e-08 -1.2578546204622398e-08 8.523742508259602e-06" pbc="T T T"
Pd       1.75961648       1.24423706       3.04774832      -0.00001448      -0.00000167       0.00001887
Pd       5.27885304       3.73271297       9.14324019       0.00000315       0.00000467      -0.00000519
Ti       0.00000047       0.00000077      -0.00000109      -0.00000755      -0.00000851       0.00001174
S        1.87527105       1.32601666       6.09549324       0.00008646       0.00006011      -0.00000272
S        5.16319903       3.65093216       6.09549421      -0.00006935      -0.00005591       0.00000863
S        4.34121669       1.32601705       4.67177902      -0.00004001       0.00005129       0.00006548
S        2.69725308       3.65093429       7.51920800       0.00004502      -0.00005423      -0.00008288
S        2.69725292       3.65093262       4.67177901       0.00003500      -0.00005691       0.00006741
S        4.34121788       1.32601666       7.51920757      -0.00003810       0.00006121      -0.00008145
