9
Lattice="5.278229646786505 -1.4264693709412896e-09 3.0473874528294136 1.7594099139690296 4.976362452211778 3.0473873955820623 2.1114337837174527e-08 -5.518330764520863e-08 6.094774869087733" Properties=species:S:1:pos:R:3:forces:R:3 energy=-39.421295166015625 free_energy=-39.421295166015625 stress="-0.00010829107486642897 -3.9353565739475016e-08 2.847415991880098e-08 -3.9353565739475016e-08 -0.00010807026410475373 -1.6999941010453767e-08 2.847415991880098e-08 -1.6999941010453767e-08 -0.00010816835856530815" pbc="T T T"
Pd       1.75941049       1.24409009       3.04738747       0.00000387      -0.00000620      -0.00000169
Pd       5.27822959       3.73227198       9.14216277      -0.00000111       0.00000275       0.00000170
Ti      -0.00000016       0.00000084      -0.00000049      -0.00000029      -0.00001253       0.00000805
S        1.87531862       1.32605011       6.09477457      -0.00710487      -0.00502661       0.00000045
S        5.16232046       3.65031170       6.09477412       0.00711474       0.00502989      -0.00000226
S        4.34056989       1.32605065       4.67146098       0.00355378      -0.00503089      -0.00615814
S        2.69706957       3.65031202       7.51808831      -0.00355461       0.00502834       0.00616160
S        2.69706986       3.65031191       4.67146228      -0.00356002       0.00503981      -0.00616568
S        4.34057004       1.32605030       7.51808881       0.00354870      -0.00502472       0.00615609
