9
Lattice="4.373047021277792 1.1206092362496186e-08 2.5247798358453686 1.4576823154673495 4.122948341302957 2.5247798973743687 -8.808117533556634e-08 1.3074539466884421e-08 5.049559824251815" Properties=species:S:1:pos:R:3:forces:R:3 energy=-51.488807678222656 free_energy=-51.488807678222656 stress="0.00013264814333524555 -6.423594811622024e-08 -1.6901048338624491e-09 -6.423594811622024e-08 0.00013294174277689308 -2.7535025370895028e-09 -1.6901048338624491e-09 -2.7535025370895028e-09 0.00013285421300679445" pbc="T T T"
Pd       1.45768289       1.03073633       2.52478009       0.00000518      -0.00000745       0.00000120
Pd       4.37304688       3.09221182       7.57433988      -0.00000004       0.00000387       0.00000195
Ti      -0.00000002       0.00000003       0.00000023      -0.00000104       0.00000030      -0.00000000
N        1.59309391       1.12648773       5.04955981       0.00714260       0.00504929      -0.00000198
N        4.23763504       2.99646078       5.04955949      -0.00714177      -0.00504804      -0.00000179
N        3.57649978       1.12648757       3.90443975      -0.00357559       0.00505018       0.00618529
N        2.25422950       2.99646092       6.19467947       0.00357240      -0.00504696      -0.00618660
N        2.25422956       2.99646090       3.90443986       0.00357410      -0.00504780       0.00618720
N        3.57649941       1.12648729       6.19467960      -0.00357640       0.00504649      -0.00618565
