9
Lattice="4.646554293490426 -2.5174895979019963e-07 2.6826893313808866 1.548851202836508 4.3808137912782135 2.6826893157505722 -1.2484526564559815e-07 -1.0742215679700142e-07 5.365378879000126" Properties=species:S:1:pos:R:3:forces:R:3 energy=-48.977779388427734 free_energy=-48.977779388427734 stress="8.636923666927032e-06 -1.3694302936073655e-07 7.53104956174866e-08 -1.3694302936073655e-07 8.727109161554836e-06 -4.3968249485715205e-08 7.53104956174866e-08 -4.3968249485715205e-08 8.800102477835026e-06" pbc="T T T"
Pd       1.54885081       1.09520167       2.68268886      -0.00000505      -0.00001907      -0.00000649
Pd       4.64655424       3.28560710       8.04807050       0.00000270      -0.00003383       0.00003158
Ti      -0.00000026      -0.00000023       0.00000036       0.00000111       0.00000156      -0.00000855
O        1.54877402       1.09515058       5.36537910      -0.00382239      -0.00268382      -0.00000036
O        4.64663032       3.28566472       5.36537708       0.00380802       0.00270131      -0.00001617
O        3.87216745       1.09515024       4.02396731       0.00191283      -0.00268260      -0.00330925
O        2.32323853       3.28566405       6.70678903      -0.00191560       0.00271070       0.00329947
O        2.32323961       3.28566529       4.02396789      -0.00189981       0.00270408      -0.00330096
O        3.87216668       1.09515036       6.70678953       0.00191832      -0.00269800       0.00331140
