9
Lattice="4.5179910927136175 7.60390129955797e-09 2.6084633957612557 1.505997019411685 4.259602959249314 2.608463428084578 -1.4443572872774288e-09 3.8566520708922475e-08 5.216926794024198" Properties=species:S:1:pos:R:3:forces:R:3 energy=-46.98722839355469 free_energy=-46.98722839355469 stress="0.0005676706205122173 2.8548281960638633e-08 -1.801619831098833e-08 2.8548281960638633e-08 0.000567638489883393 -5.3215941875350836e-08 -1.801619831098833e-08 -5.3215941875350836e-08 0.0005677238223142922" pbc="T T T"
Pd       1.50599430       1.06489996       2.60846927      -0.00003521      -0.00001394       0.00007729
Pd       4.51799284       3.19470276       7.82539464       0.00002349       0.00000825       0.00006358
V        0.00000010       0.00000037       0.00000016       0.00000019      -0.00000192      -0.00000361
O        1.53506963       1.08545810       5.21692406      -0.00722742      -0.00510997      -0.00003313
O        4.48891826       3.17414516       5.21692451       0.00722963       0.00511074      -0.00002788
O        3.75045663       1.08545843       3.93787226       0.00361654      -0.00510544      -0.00627220
O        2.27353140       3.17414514       6.49597907      -0.00362432       0.00512606       0.00623697
O        2.27353155       3.17414466       3.93787257      -0.00361729       0.00511038      -0.00627363
O        3.75045781       1.08545766       6.49597824       0.00363374      -0.00512379       0.00623196
