9
Lattice="5.171800339636743 -3.842143256247359e-08 2.9859402620739646 1.723933440725224 4.876020152380287 2.985940209413218 -1.27957308643179e-07 -1.54975520742385e-07 5.971880745776481" Properties=species:S:1:pos:R:3:forces:R:3 energy=-40.363197326660156 free_energy=-40.363197326660156 stress="-3.9515613025287166e-05 4.6499103234509676e-08 1.0031254049636118e-07 4.6499103234509676e-08 -3.96044306398835e-05 -8.454787803202635e-08 1.0031254049636118e-07 -8.454787803202635e-08 -3.960886169807054e-05" pbc="T T T"
Pd       1.72393282       1.21900444       2.98594059      -0.00000781      -0.00000514       0.00000609
Pd       5.17180183       3.65701676       8.95782153       0.00001786       0.00001772       0.00000768
V       -0.00000001      -0.00000025      -0.00000001      -0.00000527       0.00000102      -0.00000140
S        1.81749064       1.28515939       5.97188003      -0.00124902      -0.00088748      -0.00000578
S        5.07824299       3.59085963       5.97187983       0.00125426       0.00088644      -0.00000690
S        4.26305515       1.28515901       4.55993387       0.00062406      -0.00088957      -0.00107539
S        2.63267797       3.59086084       7.38382767      -0.00062853       0.00088227       0.00107062
S        2.63267837       3.59086008       4.55993360      -0.00063044       0.00088605      -0.00107813
S        4.26305481       1.28515991       7.38382770       0.00062478      -0.00089106       0.00108320
