9
Lattice="5.403402492733812 -1.0925929120323544e-07 3.119655964944577 1.801134094134109 5.09437661360264 3.119655907959895 -1.815343259023692e-08 -8.262813274437509e-08 6.2393119613318735" Properties=species:S:1:pos:R:3:forces:R:3 energy=-38.285400390625 free_energy=-38.285400390625 stress="1.5706615158705972e-05 1.3217899663686694e-08 3.890077948653925e-08 1.3217899663686694e-08 1.5689780411776155e-05 4.203513270795156e-08 3.890077948653925e-08 4.203513270795156e-08 1.5707104466855526e-05" pbc="T T T"
Pd       1.80113463       1.27359351       3.11965575       0.00000124      -0.00000295      -0.00000112
Pd       5.40340262       3.82078267       9.35896904       0.00000288       0.00000199       0.00000464
V       -0.00000012      -0.00000009       0.00000006       0.00000019       0.00000056       0.00000046
Se       1.96498960       1.38945743       6.23931208      -0.00044185      -0.00031191       0.00000026
Se       5.23954696       3.70491921       6.23931169       0.00043985       0.00031255      -0.00000105
Se       4.42090753       1.38945746       4.82138680       0.00021924      -0.00031169      -0.00038278
Se       2.78362852       3.70491913       7.65723660      -0.00022334       0.00031212       0.00038075
Se       2.78362928       3.70491929       4.82138681      -0.00021866       0.00031325      -0.00038171
Se       4.42090729       1.38945703       7.65723655       0.00022055      -0.00031391       0.00038052
