9
Lattice="5.403137751082699 5.906315174882268e-08 3.119503013745206 1.8010459808479802 5.094126897894661 3.119502999654591 -1.3938410089802123e-07 -1.158167765910786e-07 6.239006268910731" Properties=species:S:1:pos:R:3:forces:R:3 energy=-38.285400390625 free_energy=-38.285400390625 stress="-7.731742516625673e-05 2.891659534043356e-08 3.838590245663909e-08 2.891659534043356e-08 -7.7375843829941e-05 1.038429786603956e-08 3.838590245663909e-08 1.038429786603956e-08 -7.745681068627164e-05" pbc="T T T"
Pd       1.80104693       1.27353047       3.11950233       0.00000670      -0.00000782      -0.00000493
Pd       5.40313705       3.82059450       9.35850999      -0.00000315      -0.00000384       0.00000514
V       -0.00000026       0.00000011      -0.00000022       0.00000181       0.00000071       0.00000185
Se       1.96477924       1.38930895       6.23900590       0.00160998       0.00113894      -0.00000139
Se       5.23940376       3.70481872       6.23900496      -0.00161365      -0.00113693      -0.00000635
Se       4.42074840       1.38930861       4.82105155      -0.00080568       0.00114179       0.00139773
Se       2.78343586       3.70481830       7.65696075       0.00080749      -0.00114065      -0.00139466
Se       2.78343602       3.70481892       4.82105195       0.00080830      -0.00113620       0.00139755
Se       4.42074733       1.38930882       7.65696194      -0.00081180       0.00114389      -0.00139490
