9
Lattice="5.172292378122149 -2.5197493965228903e-07 2.9862244124230757 1.7240972343791172 4.876484220798015 2.9862243906523687 2.1286051011493532e-09 -2.5158489207212118e-08 5.9724488211592295" Properties=species:S:1:pos:R:3:forces:R:3 energy=-40.36319351196289 free_energy=-40.36319351196289 stress="0.00016650688485242426 -7.469053997510855e-08 7.460929651870174e-08 -7.469053997510855e-08 0.000166449710377492 -5.6831478190133566e-08 7.460929651870174e-08 -5.6831478190133566e-08 0.00016664307622704655" pbc="T T T"
Pd       1.72409817       1.21912079       2.98622258       0.00001097      -0.00000132      -0.00001883
Pd       5.17229564       3.65736346       8.95867710       0.00003708       0.00000388       0.00004220
V        0.00000025       0.00000028       0.00000028      -0.00000290      -0.00000606      -0.00000959
S        1.81774929       1.28534357       5.97244900      -0.00635201      -0.00448322      -0.00000046
S        5.07863882       3.59114074       5.97244637       0.00634778       0.00449345      -0.00002528
S        4.26341777       1.28534308       4.56044254       0.00317585      -0.00448844      -0.00549543
S        2.63297081       3.59113927       7.38445458      -0.00320065       0.00448743       0.00550193
S        2.63297210       3.59114119       4.56044343      -0.00318351       0.00450051      -0.00549799
S        4.26341563       1.28534322       7.38445481       0.00316715      -0.00450608       0.00550383
