9
Lattice="4.323558079429136 -3.272858428067501e-08 2.4962074086556254 1.4411859856687455 4.076289421907382 2.496207425890949 -1.623008698613896e-08 9.632466028371515e-09 4.992414845422598" Properties=species:S:1:pos:R:3:forces:R:3 energy=-52.673255920410156 free_energy=-52.673255920410156 stress="-0.0005999255809001625 -1.2047729924802297e-08 1.7378120276134723e-08 -1.2047729924802297e-08 -0.0005997313419356942 3.6837792816157844e-09 1.7378120276134723e-08 3.6837792816157844e-09 -0.0005999794811941683" pbc="T T T"
Pd       1.44118509       1.01907267       2.49620745      -0.00001675       0.00001206       0.00000021
Pd       4.32355797       3.05721888       7.48862180       0.00000046       0.00002382      -0.00000651
V       -0.00000009       0.00000033       0.00000016       0.00000030      -0.00000194      -0.00000404
N        1.62696971       1.15044063       4.99241481      -0.00516275      -0.00365961      -0.00000095
N        4.13777460       2.92584709       4.99241493       0.00516954       0.00364214       0.00000359
N        3.51007358       1.15044060       3.90520501       0.00258850      -0.00366062      -0.00446102
N        2.25467087       2.92584815       6.07962514      -0.00258367       0.00365248       0.00446957
N        2.25467070       2.92584836       3.90520464      -0.00258696       0.00365052      -0.00446594
N        3.51007378       1.15044092       6.07962487       0.00259142      -0.00365940       0.00446552
