9
Lattice="5.5547133115600325 5.425134105950976e-09 3.2070150813422043 1.8515710227879636 5.237033930325472 3.2070152306107413 -9.925687036744638e-08 1.1263069156271624e-07 6.414030334602316" Properties=species:S:1:pos:R:3:forces:R:3 energy=-41.68498992919922 free_energy=-41.68498992919922 stress="-6.903176199557493e-07 -1.698171381292468e-08 -2.019023881416615e-08 -1.698171381292468e-08 -6.357366828524391e-07 6.390468598738153e-08 -2.019023881416615e-08 6.390468598738153e-08 -6.000157668495376e-07" pbc="T T T"
Pd       1.85157081       1.30925961       3.20701522      -0.00000286       0.00000535       0.00000088
Pd       5.55471419       3.92777543       9.62104618       0.00000565       0.00000039       0.00000339
W       -0.00000026       0.00000015      -0.00000020       0.00000344      -0.00000327      -0.00000343
Se       1.96986468       1.39290523       6.41403035      -0.00105374      -0.00074227       0.00000035
Se       5.43641947       3.84412846       6.41403017       0.00105341       0.00074124      -0.00000091
Se       4.56978066       1.39290512       4.91296848       0.00052755      -0.00074515      -0.00091261
Se       2.83650325       3.84412895       7.91509222      -0.00053104       0.00074789       0.00091603
Se       2.83650333       3.84412890       4.91296820      -0.00052828       0.00074202      -0.00091285
Se       4.56978077       1.39290435       7.91509205       0.00052588      -0.00074631       0.00090919
