9
Lattice="5.322873934765885 -1.1760339546106509e-07 3.0731627607570235 1.7742912036845377 5.018453719988922 3.073162755606847 -7.14041941306394e-10 -6.812559449242763e-09 6.14632552275081" Properties=species:S:1:pos:R:3:forces:R:3 energy=-44.17500686645508 free_energy=-44.17500686645508 stress="0.0002592379751149565 -1.519503882718709e-07 1.4672651982294838e-09 -1.519503882718709e-07 0.0002593094250187278 -3.621443056545104e-08 1.4672651982294838e-09 -3.621443056545104e-08 0.00025939842453226447" pbc="T T T"
Pd       1.77429225       1.25461362       3.07316169       0.00000839       0.00000083      -0.00000862
Pd       5.32287340       3.76384073       9.21948565      -0.00000288       0.00000597      -0.00002775
W       -0.00000014       0.00000001       0.00000032      -0.00000058       0.00000174      -0.00000802
S        1.86270325       1.31712988       6.14632562      -0.00370413      -0.00262043       0.00000345
S        5.23446193       3.70132374       6.14632679       0.00370264       0.00261830       0.00001379
S        4.39152181       1.31712972       4.68631194       0.00185484      -0.00262728      -0.00320798
S        2.70564358       3.70132317       7.60634017      -0.00185367       0.00262478       0.00322139
S        2.70564294       3.70132321       4.68631185      -0.00185826       0.00262314      -0.00320977
S        4.39152152       1.31713031       7.60634014       0.00185376      -0.00262725       0.00322336
