9
Lattice="4.6348436157808175 -5.7736472135801087e-08 2.675928180882231 1.5449478487072998 4.369772491530398 2.6759281268165505 -2.8221349140097582e-08 -8.617217547508037e-08 5.351856410645262" Properties=species:S:1:pos:R:3:forces:R:3 energy=-48.135677337646484 free_energy=-48.135677337646484 stress="0.000300506129860878 5.670700176096943e-08 7.922827904849328e-08 5.670700176096943e-08 0.00030029317713342607 3.35183329980282e-08 7.922827904849328e-08 3.35183329980282e-08 0.00030052513466216624" pbc="T T T"
Pd       1.54494739       1.09244411       2.67593080      -0.00000538       0.00001090       0.00003416
Pd       4.63484157       3.27732666       8.02778328      -0.00002915      -0.00003326      -0.00001171
W        0.00000012      -0.00000010       0.00000038      -0.00000215       0.00000029      -0.00000437
O        1.58322052       1.11950611       5.35185531      -0.00524700      -0.00370240      -0.00001068
O        4.59657160       3.25026561       5.35185644       0.00525391       0.00370485       0.00000244
O        3.84323180       1.11950701       4.04703549       0.00261682      -0.00369841      -0.00455886
O        2.33655924       3.25026640       6.65667618      -0.00260657       0.00370789       0.00455052
O        2.33655821       3.25026699       4.04703762      -0.00261986       0.00370818      -0.00454211
O        3.84323509       1.11950652       6.65667494       0.00263852      -0.00369805       0.00454026
