9
Lattice="5.746678463344772 -2.4767783377162398e-08 3.317846540786426 1.915559492230276 5.418020636354064 3.3178464926354163 -1.4117064433323506e-07 -1.5879539453927397e-07 6.6356933260875754" Properties=species:S:1:pos:R:3:forces:R:3 energy=-33.707252502441406 free_energy=-33.707252502441406 stress="-6.503431450255448e-06 2.0686298896066546e-08 7.853545014313568e-08 2.0686298896066546e-08 -6.640201718255412e-06 7.211105668147866e-08 7.853545014313568e-08 7.211105668147866e-08 -6.641790605499409e-06" pbc="T T T"
Pd       1.91555791       1.35450555       3.31784698      -0.00001321       0.00000345       0.00000089
Pd       5.74667808       4.06351546       9.95353906      -0.00000256       0.00000394      -0.00000413
Y        0.00000098      -0.00000089       0.00000028      -0.00000830       0.00000788      -0.00000057
S        2.13177777       1.50739466       6.63569290       0.00034848       0.00024429      -0.00000330
S        5.53046055       3.91062525       6.63569358      -0.00034252      -0.00025058       0.00000358
S        4.68078979       1.50739495       5.16402100      -0.00016965       0.00024362       0.00030360
S        2.98144807       3.91062594       8.10736618       0.00017679      -0.00024760      -0.00030339
S        2.98144842       3.91062646       5.16402020       0.00017729      -0.00025038       0.00030506
S        4.68078957       1.50739445       8.10736533      -0.00016631       0.00024533      -0.00030151
