9
Lattice="5.822667388113563 3.2537060230084167e-07 3.361719090281408 1.9408895325176412 5.489663065183572 3.3617189233392546 4.1064702345206216e-07 8.590971082245603e-08 6.723437469301413" Properties=species:S:1:pos:R:3:forces:R:3 energy=-33.561439514160156 free_energy=-33.561439514160156 stress="0.0001100376175600104 -1.8629044973295095e-07 -8.79514487905908e-08 -1.8629044973295095e-07 0.00011034477938665077 -3.1551039114674495e-08 -8.79514487905908e-08 -3.1551039114674495e-08 0.00010962858505081385" pbc="T T T"
Pd       1.94089069       1.37241714       3.36171717       0.00001563       0.00001032      -0.00001288
Pd       5.82266797       4.11724594      10.08515557      -0.00000455      -0.00001532      -0.00001529
Y       -0.00000070       0.00000027       0.00000179       0.00000075       0.00000005      -0.00000260
Se       2.24558260       1.58786858       6.72343813      -0.00599808      -0.00422259       0.00000471
Se       5.51797387       3.90179656       6.72343903       0.00599070       0.00423625       0.00001136
Se       4.69987679       1.58786586       5.30644782       0.00299767      -0.00423948      -0.00521173
Se       3.06368492       3.90179119       8.14042428      -0.00296974       0.00419793       0.00520490
Se       3.06367954       3.90179716       5.30645099      -0.00300607       0.00423336      -0.00519440
Se       4.69987366       1.58787118       8.14042707       0.00297365      -0.00420056       0.00521603
