9
Lattice="5.48761611379619 2.511766181957957e-08 3.168276874565783 1.8292054163783618 5.173774199578822 3.1682768374447265 -4.7421257422449514e-08 -7.899570048785265e-08 6.336553831267558" Properties=species:S:1:pos:R:3:forces:R:3 energy=-29.0452938079834 free_energy=-29.0452938079834 stress="-9.001338912639767e-05 -2.0397425970486438e-08 1.035192376264149e-08 -2.0397425970486438e-08 -8.996653195936233e-05 6.815962905193373e-08 1.035192376264149e-08 6.815962905193373e-08 -8.997620170703158e-05" pbc="T T T"
Pd       1.82920589       1.29344335       3.16827722       0.00000349      -0.00000075       0.00000279
Pd       5.48761815       3.88032967       9.50483387       0.00001070      -0.00000650       0.00001889
Zn      -0.00000008      -0.00000023       0.00000018      -0.00000006       0.00000161      -0.00000327
Se       2.06304697       1.45879525       6.33655369      -0.00397202      -0.00280482      -0.00000078
Se       5.25377424       3.71497943       6.33655194       0.00396781       0.00280511      -0.00000901
Se       4.45609195       1.45879589       4.95492806       0.00198425      -0.00280196      -0.00344211
Se       2.86072753       3.71497875       7.71817782      -0.00199432       0.00280656       0.00343494
Se       2.86072904       3.71497997       4.95492840      -0.00198289       0.00280831      -0.00343776
Se       4.45609223       1.45879452       7.71817904       0.00198307      -0.00280758       0.00343630
