9
Lattice="5.272459532263301 -6.131047728075379e-08 3.0440558232516866 1.7574864382830084 4.970922811685881 3.0440558486564298 -3.538868114307516e-08 6.09068752976205e-09 6.0881117077982125" Properties=species:S:1:pos:R:3:forces:R:3 energy=-28.442705154418945 free_energy=-28.442705154418945 stress="3.6093792914471123e-06 4.690359034498215e-08 5.984660589319901e-08 4.690359034498215e-08 3.417679863559897e-06 2.2929684817540874e-08 5.984660589319901e-08 2.2929684817540874e-08 3.7557699670287548e-06" pbc="T T T"
Pd       1.75749061       1.24273339       3.04405563       0.00005740       0.00003605      -0.00000003
Pd       5.27245729       3.72818489       9.13216142      -0.00003153      -0.00009296      -0.00008516
Zn       0.00000044       0.00000033      -0.00000060      -0.00000613      -0.00000280       0.00000670
S        1.86156244       1.31632540       6.08811152       0.00004826       0.00006500      -0.00000715
S        5.16838253       3.65459859       6.08811510      -0.00005488      -0.00004315       0.00004621
S        4.34167610       1.31632600       4.65621480      -0.00005077       0.00006766       0.00002236
S        2.68826984       3.65459737       7.52000919       0.00005580      -0.00006196      -0.00001586
S        2.68826686       3.65459657       4.65621601       0.00001297      -0.00006994       0.00003516
S        4.34167765       1.31632852       7.52001048      -0.00003103       0.00010226      -0.00000264
