9
Lattice="5.455457226036164 -4.177737413796193e-09 3.1497097459798247 1.8184857193131123 5.1434543310290755 3.149709778473333 5.518737424234559e-08 7.881962372899174e-08 6.299419396372308" Properties=species:S:1:pos:R:3:forces:R:3 energy=-31.791425704956055 free_energy=-31.791425704956055 stress="-1.466210960643366e-05 2.7141173752909253e-09 -6.6933281139824885e-09 2.7141173752909253e-09 -1.4667186405858956e-05 1.3646974217351726e-08 -6.6933281139824885e-09 1.3646974217351726e-08 -1.46188849612372e-05" pbc="T T T"
Pt       1.81848464       1.28586117       3.14970994      -0.00000455      -0.00001257       0.00000050
Pt       5.45545947       3.85759001       9.44912820       0.00001168      -0.00000406      -0.00000459
Ag      -0.00000027      -0.00000013       0.00000060       0.00000033       0.00000375      -0.00000488
Se       2.10644726       1.48948412       6.29941955      -0.00140867      -0.00098902      -0.00000087
Se       5.16749532       3.65397135       6.29942029       0.00140178       0.00099495       0.00000200
Se       4.40223370       1.48948292       4.97394743       0.00070199      -0.00099188      -0.00121427
Se       2.87170921       3.65397238       7.62489099      -0.00070634       0.00100064       0.00121212
Se       2.87170896       3.65397211       4.97394727      -0.00070070       0.00099307      -0.00120854
Se       4.40223372       1.48948371       7.62489143       0.00070454      -0.00099489       0.00121862
