9
Lattice="5.48205073895504 2.197239163255333e-07 3.165063458367424 1.8273504361899313 5.168527266946365 3.1650634883079514 -1.4745471248932363e-07 -6.75967755857889e-08 6.3301271721338805" Properties=species:S:1:pos:R:3:forces:R:3 energy=-32.24798583984375 free_energy=-32.24798583984375 stress="-0.0003568182291928679 2.2175819514025363e-10 1.8645573973685714e-08 2.2175819514025363e-10 -0.00035683062742464244 -3.35588778987983e-09 1.8645573973685714e-08 -3.35588778987983e-09 -0.00035683540045283735" pbc="T T T"
Pt       1.82735074       1.29213188       3.16506586       0.00000143      -0.00000022       0.00000766
Pt       5.48205148       3.87639417       9.49518870       0.00000263      -0.00000489      -0.00000728
Au       0.00000013       0.00000023       0.00000024      -0.00000069      -0.00000079      -0.00000009
Se       2.12006699       1.49911482       6.33012663      -0.00625698      -0.00442161      -0.00000282
Se       5.18933361       3.66941278       6.33012844       0.00626025       0.00442649       0.00000061
Se       4.42201659       1.49911374       5.00109529       0.00312388      -0.00442135      -0.00541800
Se       2.88738419       3.66941373       7.65915764      -0.00313319       0.00442980       0.00541915
Se       2.88738349       3.66941321       5.00109549      -0.00312700       0.00442040      -0.00541927
Se       4.42201694       1.49911514       7.65915813       0.00312967      -0.00442778       0.00542003
