9
Lattice="5.100699305230484 -2.5238284224456316e-07 2.944889975493628 1.7002330365336806 4.808985794994233 2.944889676300818 -8.224424568547284e-08 -4.2459029953618566e-07 5.889780093438506" Properties=species:S:1:pos:R:3:forces:R:3 energy=-31.114521026611328 free_energy=-31.114521026611328 stress="-9.567746747052297e-05 1.0910370207284359e-07 6.092836457582962e-08 1.0910370207284359e-07 -9.568183304509148e-05 -9.721389204742081e-08 6.092836457582962e-08 -9.721389204742081e-08 -9.55037830863148e-05" pbc="T T T"
Pt       1.70022972       1.20224676       2.94489116      -0.00003057       0.00000086       0.00000764
Pt       5.10069876       3.60673721       8.83466728      -0.00000423      -0.00001118      -0.00001911
Au       0.00000007       0.00000029       0.00000034       0.00000328       0.00000131       0.00000001
S        1.89125495       1.33732021       5.88978048      -0.00315937      -0.00220890       0.00000490
S        4.90967761       3.47166513       5.88978166       0.00315669       0.00221831       0.00002643
S        4.15507268       1.33731959       4.58276537       0.00158368      -0.00222169      -0.00271595
S        2.64586110       3.47166735       7.19679482      -0.00156559       0.00223814       0.00271478
S        2.64585949       3.47166511       4.58276490      -0.00159469       0.00221308      -0.00272572
S        4.15507457       1.33731885       7.19679296       0.00161034      -0.00223036       0.00270730
