9
Lattice="4.665379619231968 -1.207487702753214e-07 2.693558052294685 1.5551264574217112 4.398562047224478 2.6935579976991337 -8.539453638157949e-08 -1.2724866840801624e-07 5.387116252497048" Properties=species:S:1:pos:R:3:forces:R:3 energy=-32.247825622558594 free_energy=-32.247825622558594 stress="0.00010341621964471415 1.597097991634655e-07 1.5465525393665303e-07 1.597097991634655e-07 0.00010336624836781994 1.0283798701493652e-07 1.5465525393665303e-07 1.0283798701493652e-07 0.00010368639777880162" pbc="T T T"
Pt       1.55512509       1.09964060       2.69356039      -0.00003333       0.00000213       0.00005254
Pt       4.66537533       3.29892042       8.08067388      -0.00009654      -0.00002250      -0.00000453
Ag      -0.00000028      -0.00000017       0.00000014      -0.00000144       0.00000285       0.00000420
O        1.62403011       1.14836304       5.38711589      -0.00588155      -0.00416607      -0.00001899
O        4.59647701       3.25019797       5.38711748       0.00590158       0.00414169       0.00001490
O        3.85336399       1.14836326       4.10000828       0.00294110      -0.00414902      -0.00511497
O        2.36714354       3.25020057       6.67422286      -0.00289631       0.00418580       0.00510305
O        2.36714385       3.25019894       4.10000751      -0.00289872       0.00415504      -0.00513077
O        3.85336525       1.14836260       6.67422273       0.00296521      -0.00414968       0.00509447
