9
Lattice="5.103814207312192 -1.0539933088668778e-07 2.9466878318743692 1.7012712131590768 4.811921703607872 2.946687987597597 6.057286211725735e-08 2.3355273522503497e-07 5.893375558833411" Properties=species:S:1:pos:R:3:forces:R:3 energy=-29.349246978759766 free_energy=-29.349246978759766 stress="-0.00016011869593057781 3.3462652027083095e-07 3.9090114256623565e-08 3.3462652027083095e-07 -0.00015962874749675393 -7.763423326423435e-08 3.9090114256623565e-08 -7.763423326423435e-08 -0.00015927864296827465" pbc="T T T"
Pt       1.70128436       1.20296990       2.94668320       0.00015991      -0.00013988      -0.00006146
Pt       5.10381656       3.60893168       8.84005869       0.00004623      -0.00012928      -0.00006389
Ag      -0.00000089       0.00000137       0.00000054      -0.00000736       0.00001116       0.00001358
S        1.82895502       1.29327214       5.89337831       0.00026906       0.00025775       0.00003323
S        4.97612337       3.51865968       5.89337719      -0.00036100      -0.00013340       0.00002497
S        4.18933231       1.29327075       4.53060981      -0.00019592       0.00025337       0.00024597
S        2.61575143       3.51865613       7.25614133       0.00016968      -0.00018392      -0.00024416
S        2.61574965       3.51865488       4.53061215       0.00014141      -0.00019040       0.00026476
S        4.18933015       1.29327091       7.25614412      -0.00022195       0.00025364      -0.00021274
