9
Lattice="4.709610810020356 1.4321923962622052e-08 2.71909523989105 1.5698702783449068 4.440264055135526 2.71909524883662 -4.788777443576583e-07 -3.2766168738145784e-07 5.438191309222695" Properties=species:S:1:pos:R:3:forces:R:3 energy=-34.17593765258789 free_energy=-34.17593765258789 stress="0.0004174210480414331 -7.330239100156177e-07 1.281097752325877e-06 -7.330239100156177e-07 0.0004172760236542672 9.424732638763089e-07 1.281097752325877e-06 9.424732638763089e-07 0.00041556224459782243" pbc="T T T"
Pt       1.56986449       1.11006354       2.71910376      -0.00011468      -0.00004285       0.00016737
Pt       4.70961715       3.33020017       8.15727737       0.00014067       0.00004341      -0.00018144
Au       0.00000008      -0.00000004       0.00000002      -0.00000094       0.00000069       0.00000252
O        1.62869187       1.15166005       5.43818594      -0.00207865      -0.00145137      -0.00009847
O        4.65078848       3.28860456       5.43819696       0.00207222       0.00145900       0.00011617
O        3.89526415       1.15165693       4.12958662       0.00102493      -0.00152683      -0.00175035
O        2.38421545       3.28860666       6.74679471      -0.00103658       0.00152004       0.00174612
O        2.38421138       3.28860408       4.12958744      -0.00113878       0.00146085      -0.00174028
O        3.89526941       1.15165917       6.74679434       0.00113198      -0.00146306       0.00173831
