9
Lattice="3.580597487347828 -1.0474561928057871e-06 2.0672590685502583 1.193531473373338 3.3758198870872675 2.0672591289311795 3.015919124298912e-07 2.8720980937938874e-07 4.134517614730314" Properties=species:S:1:pos:R:3:forces:R:3 energy=-49.94413757324219 free_energy=-49.94413757324219 stress="0.000700212549418211 -1.3651499102707021e-05 4.1007233448908664e-06 -1.3651499102707021e-05 0.0007162095280364156 3.2688099054212216e-06 4.1007233448908664e-06 3.2688099054212216e-06 0.0006674884934909642" pbc="T T T"
Pt       1.19352409       0.84395337       2.06726109       0.00567656      -0.00032622      -0.00134353
Pt       3.58060289       2.53187549       6.20177404      -0.00360465      -0.00910852       0.00163919
Be       0.00000020      -0.00000142      -0.00000000      -0.00015163       0.00068410       0.00001488
O        1.27211627       0.89951147       4.13451606      -0.00120926       0.00632858       0.00128352
O        3.50202981       2.47630184       4.13452024      -0.00884056      -0.00127172      -0.00148341
O        2.94454170       0.89950787       3.16895291      -0.00133920       0.00845337      -0.00634384
O        1.82958034       2.47631000       5.10010462       0.00528646      -0.00656462      -0.00534201
O        1.82957760       2.47630803       3.16893160       0.00701189      -0.00544834       0.00527573
O        2.94454382       0.89950942       5.10008287      -0.00283170       0.00724745       0.00630283
