9
Lattice="4.86106693407647 3.6024509296917515e-07 2.806538853215731 1.6203559972446724 4.583058162381865 2.806538830854507 7.718605726930697e-07 5.184010162574459e-07 5.613076369529971" Properties=species:S:1:pos:R:3:forces:R:3 energy=-35.69074249267578 free_energy=-35.69074249267578 stress="-0.0002892410266213119 -2.3404339799526497e-07 -4.418212995460635e-08 -2.3404339799526497e-07 -0.0002893538330681622 1.098107738073395e-08 -4.418212995460635e-08 1.098107738073395e-08 -0.0002892333432100713" pbc="T T T"
Pt       1.62035502       1.14576977       2.80652268      -0.00001376       0.00002603      -0.00008531
Pt       4.86106407       3.43729540       8.41961039      -0.00002032       0.00001653      -0.00005882
Be      -0.00000082       0.00000045      -0.00000018       0.00001147      -0.00000644      -0.00000746
S        1.65418898       1.16968705       5.61308234      -0.00097358      -0.00069267       0.00002444
S        4.82723643       3.41337082       5.61307226       0.00096738       0.00066307      -0.00000603
S        4.03397062       1.16968507       4.23911210       0.00047612      -0.00071305      -0.00081325
S        2.44745538       3.41336654       6.98705314      -0.00046000       0.00068626       0.00089538
S        2.44744924       3.41337164       4.23911417      -0.00050768       0.00069711      -0.00080860
S        4.03397559       1.16968943       6.98704949       0.00052017      -0.00067696       0.00085941
