9
Lattice="5.367698357094812 -1.222939137808586e-07 3.0990415746655318 1.7892324618102076 5.0607125763384655 3.0990419359509507 -8.942153583050994e-07 -1.8982326249341105e-07 6.198084698157534" Properties=species:S:1:pos:R:3:forces:R:3 energy=-34.515464782714844 free_energy=-34.515464782714844 stress="-0.00016221043188124895 -1.614870193122897e-08 -2.9199396234247388e-09 -1.614870193122897e-08 -0.00016169072478078306 3.953613543217216e-07 -2.9199396234247388e-09 3.953613543217216e-07 -0.00016226261504925787" pbc="T T T"
Pt       1.78923308       1.26517454       3.09904614       0.00000735      -0.00002010       0.00002036
Pt       5.36770019       3.79553842       9.29712187       0.00001702       0.00002533      -0.00001921
Be       0.00000044       0.00000017       0.00000008       0.00001046      -0.00000072       0.00000525
Se       1.58568292       1.12124588       6.19808411       0.00546962       0.00386214      -0.00000720
Se       5.57124743       3.93946803       6.19808597      -0.00547296      -0.00385648       0.00001431
Se       4.57485359       1.12124365       4.47228415      -0.00274345       0.00383818       0.00472647
Se       2.58207413       3.93946877       7.92388242       0.00272879      -0.00383896      -0.00473434
Se       2.58207213       3.93946637       4.47228367       0.00272673      -0.00387359       0.00474924
Se       4.57485589       1.12124320       7.92388430      -0.00274357       0.00386423      -0.00475478
