9
Lattice="5.305394978355325 7.797602556853538e-08 3.0630713297294254 1.7684650124703107 5.001976061025002 3.0630714229678824 9.523669022169218e-08 1.8153584914185478e-07 6.1261424945040694" Properties=species:S:1:pos:R:3:forces:R:3 energy=-39.4753303527832 free_energy=-39.4753303527832 stress="-5.3059931815369055e-05 8.667849549226503e-09 1.9204733359146076e-09 8.667849549226503e-09 -5.319204137776978e-05 -3.8441029914793035e-08 1.9204733359146076e-09 -3.8441029914793035e-08 -5.31148980371654e-05" pbc="T T T"
Pt       1.76846554       1.25049380       3.06307175       0.00000362       0.00000245       0.00000227
Pt       5.30539534       3.75148267       9.18921332      -0.00000006      -0.00000042      -0.00000232
Cr      -0.00000041      -0.00000006       0.00000006       0.00000017       0.00000041      -0.00000045
Se       1.95871148       1.38501897       6.12614253      -0.00121877      -0.00086278      -0.00000108
Se       5.11514897       3.61695610       6.12614346       0.00121954       0.00086008       0.00000102
Se       4.32603895       1.38501929       4.75936471       0.00060543      -0.00086127      -0.00105861
Se       2.74782083       3.61695741       7.49292023      -0.00060935       0.00086369       0.00105220
Se       2.74782057       3.61695717       4.75936490      -0.00060906       0.00086181      -0.00105250
Se       4.32603906       1.38501991       7.49292005       0.00060831      -0.00086389       0.00105950
