9
Lattice="4.3038114048759475 -1.1960176705999772e-07 2.4848069031062896 1.4346037629284203 4.057672422808999 2.4848067748223386 -3.3098654795051633e-08 -1.8051934486332113e-07 4.969613863541129" Properties=species:S:1:pos:R:3:forces:R:3 energy=-44.321258544921875 free_energy=-44.321258544921875 stress="-5.8208264817949384e-05 -1.1043023562251619e-07 3.157924766128417e-08 -1.1043023562251619e-07 -5.855590643477626e-05 -2.4841368073680314e-08 3.157924766128417e-08 -2.4841368073680314e-08 -5.841765596414916e-05" pbc="T T T"
Pt       1.43460109       1.01441842       2.48480212      -0.00005012       0.00000567      -0.00005971
Pt       4.30380731       3.04325473       7.45441838      -0.00006078       0.00001303      -0.00004340
C       -0.00000384       0.00000074      -0.00000276      -0.00006961       0.00001442      -0.00006092
O        1.27680321       0.90283402       4.96961614      -0.00147843      -0.00107199       0.00003106
O        4.46161560       3.15483737       4.96961470       0.00153446       0.00106090       0.00002673
O        3.66541265       0.90283412       3.59055057       0.00078505      -0.00107127      -0.00127929
O        2.07300610       3.15483708       6.34868036      -0.00071907       0.00105566       0.00133055
O        2.07300636       3.15483777       3.59055051      -0.00072259       0.00106138      -0.00127614
O        3.66541219       0.90283425       6.34867995       0.00078213      -0.00106770       0.00133210
