9
Lattice="4.920708111176765 -2.044337862490636e-08 2.840973210742036 1.6402357640060075 4.639291186368787 2.8409736502996594 -6.409675208890963e-07 8.511346084609101e-08 5.681947531672309" Properties=species:S:1:pos:R:3:forces:R:3 energy=-37.119319915771484 free_energy=-37.119319915771484 stress="0.00022639046073891222 -2.999054871111184e-08 -3.372714019178602e-08 -2.999054871111184e-08 0.00022614834597334266 -3.797494585455752e-08 -3.372714019178602e-08 -3.797494585455752e-08 0.0002262230118503794" pbc="T T T"
Pt       1.64023245       1.15982487       2.84097551      -0.00002129       0.00001983       0.00002415
Pt       4.92070737       3.47946545       8.52291604      -0.00000675      -0.00000197      -0.00001074
C       -0.00000063       0.00001795       0.00002754      -0.00002007       0.00041988       0.00065325
S        1.63381107       1.15528045       5.68194580       0.00546426       0.00383773      -0.00003248
S        4.92712697       3.48400577       5.68194910      -0.00558579      -0.00397389      -0.00003336
S        4.10380551       1.15527475       4.25589202      -0.00265355       0.00373970       0.00457636
S        2.45714884       3.48400204       7.10798490       0.00286604      -0.00406770      -0.00499684
S        2.45714083       3.48400778       4.25589585       0.00274152      -0.00389700       0.00468975
S        4.10380072       1.15528594       7.10799132      -0.00278431       0.00392346      -0.00487021
