9
Lattice="4.982004730503129 -9.70052202196024e-07 2.8763608212579417 1.6606674380324382 4.697078156833524 2.8763606322818567 -7.91901765331058e-08 -2.874433807166709e-07 5.75272177967731" Properties=species:S:1:pos:R:3:forces:R:3 energy=-33.56871795654297 free_energy=-33.56871795654297 stress="0.0004104773688595742 3.251638531764911e-07 -1.0680247441996471e-07 3.251638531764911e-07 0.00041070531005971134 -1.482353866322228e-07 -1.0680247441996471e-07 -1.482353866322228e-07 0.00041113808401860297" pbc="T T T"
Pt       1.66067179       1.17426614       2.87635420       0.00004923      -0.00004232      -0.00005784
Pt       4.98200174       3.52280179       8.62908772      -0.00003096      -0.00006598       0.00004098
Cu       0.00000012       0.00000030       0.00000066      -0.00000532       0.00001160       0.00000167
S        1.77688670       1.25644699       5.75272208      -0.00250232      -0.00176257       0.00000929
S        4.86578366       3.44063332       5.75271615       0.00248870       0.00180772      -0.00004828
S        4.09356197       1.25644895       4.41518804       0.00126453      -0.00175163      -0.00216880
S        2.54911116       3.44062898       7.09025847      -0.00124809       0.00175595       0.00218585
S        2.54911313       3.44063080       4.41518671      -0.00123696       0.00178614      -0.00217000
S        4.09355789       1.25645037       7.09025907       0.00122170      -0.00173923       0.00220722
