9
Lattice="4.456821099987884 -2.957943317816388e-08 2.573146860882338 1.4856069054545102 4.201931668666962 2.573147034064958 -1.4252769719155325e-07 1.113222023604791e-07 5.146293968629871" Properties=species:S:1:pos:R:3:forces:R:3 energy=-41.186309814453125 free_energy=-41.186309814453125 stress="-3.521866528899409e-05 -1.7384326156388852e-07 -8.113403993093016e-08 -1.7384326156388852e-07 -3.5481632949085906e-05 -7.30183700170528e-08 -8.113403993093016e-08 -7.30183700170528e-08 -3.497288707876578e-05" pbc="T T T"
Pt       1.48560761       1.05048218       2.57314643       0.00001491      -0.00002291      -0.00000502
Pt       4.45682121       3.15144507       7.71944168       0.00000877      -0.00007540       0.00001467
Co      -0.00000001      -0.00000020       0.00000004       0.00000912      -0.00000186      -0.00000707
O        1.47251790       1.04123015       5.14629411       0.00059515       0.00046113       0.00000227
O        4.46990807       3.16070372       5.14629299      -0.00062513      -0.00042447      -0.00001277
O        3.72056125       1.04122977       3.84838517      -0.00030577       0.00045508       0.00051361
O        2.22186669       3.16070274       6.44420168       0.00029558      -0.00042373      -0.00052691
O        2.22186700       3.16070328       3.84838686       0.00030670      -0.00041941       0.00052977
O        3.72056156       1.04123049       6.44420223      -0.00029925       0.00045156      -0.00050914
