9
Lattice="4.8898045011672595 1.102545502926238e-08 2.8231300257986147 1.6299348137689065 4.610151467899898 2.8231300783636013 1.9333593099229557e-07 2.010878424243902e-07 5.6462597167296" Properties=species:S:1:pos:R:3:forces:R:3 energy=-34.67759704589844 free_energy=-34.67759704589844 stress="0.00016454330761916935 2.0432520386748365e-07 -6.596658863600169e-07 2.0432520386748365e-07 0.0001654004299780354 -3.8184913364602835e-07 -6.596658863600169e-07 -3.8184913364602835e-07 0.00016491238784510642" pbc="T T T"
Pt       1.62993979       1.15253285       2.82313045       0.00006688      -0.00007332      -0.00000364
Pt       4.88980556       3.45761404       8.46940005       0.00001225       0.00001097       0.00014500
Ca      -0.00000009       0.00000032       0.00000013       0.00000027      -0.00000143       0.00000011
O        1.83089098       1.29463565       5.64625992       0.00260773       0.00184542       0.00000213
O        4.68884636       3.31551858       5.64625426      -0.00263580      -0.00180975      -0.00007179
O        3.97435719       1.29463685       4.40872608      -0.00132275       0.00186412       0.00223107
O        2.54537843       3.31551723       6.88378959       0.00127670      -0.00183227      -0.00228732
O        2.54538261       3.31551793       4.40872754       0.00133417      -0.00182398       0.00225322
O        3.97435713       1.29463326       6.88379138      -0.00133956       0.00182024      -0.00226884
