9
Lattice="4.791609400890869 1.2315327666129424e-08 2.7664370383883456 1.5972031087491403 4.517572759889228 2.766437101594608 1.1793694716705764e-10 7.749495496607334e-08 5.53287407657241" Properties=species:S:1:pos:R:3:forces:R:3 energy=-31.377891540527344 free_energy=-31.377891540527344 stress="0.0004225650627631694 -1.7023559450990433e-08 -1.5305487011119112e-07 -1.7023559450990433e-08 0.00042267091339454055 -7.252597100659841e-08 -1.5305487011119112e-07 -7.252597100659841e-08 0.00042242533527314663" pbc="T T T"
Pt       1.59720491       1.12939174       2.76643505       0.00002798      -0.00002406      -0.00003657
Pt       4.79161200       3.38817930       8.29931134       0.00004550      -0.00000383       0.00000720
Cd       0.00000037       0.00000014      -0.00000005      -0.00000087      -0.00000551       0.00000021
O        1.78120144       1.25949970       5.53287508      -0.00052649      -0.00036536       0.00001458
O        4.60760995       3.25807491       5.53287445       0.00051102       0.00039476       0.00000086
O        3.90100898       1.25949937       4.30900315       0.00026603      -0.00037190      -0.00044829
O        2.48780131       3.25807254       6.75674426      -0.00029620       0.00036463       0.00043944
O        2.48780347       3.25807371       4.30900348      -0.00026918       0.00038032      -0.00044078
O        3.90100770       1.25949998       6.75674609       0.00024213      -0.00036870       0.00046319
