9
Lattice="4.548924373266702 -7.239060345223835e-08 2.626322617524041 1.5163080707277312 4.288767201935361 2.626322592312332 -3.4045833047363074e-08 -5.495194166940808e-08 5.2526452940171975" Properties=species:S:1:pos:R:3:forces:R:3 energy=-44.01554870605469 free_energy=-44.01554870605469 stress="-0.00014733812713529915 1.9384954441648006e-07 2.7018850801141525e-07 1.9384954441648006e-07 -0.00014689243107568473 8.806064499822241e-08 2.7018850801141525e-07 8.806064499822241e-08 -0.00014669046504423022" pbc="T T T"
Pt       1.51630637       1.07217971       2.62632576      -0.00006741      -0.00031344       0.00006005
Pt       4.54891276       3.21656391       7.87896140      -0.00029265      -0.00030967      -0.00015418
Cr      -0.00000028       0.00000010      -0.00000042      -0.00000623      -0.00000997      -0.00000213
O        1.53110742       1.08265918       5.25264383       0.00043106       0.00036272      -0.00002758
O        4.53412285       3.20611363       5.25264773      -0.00047886      -0.00021279       0.00006715
O        3.78337188       1.08266032       3.95229979      -0.00017077       0.00040686       0.00033665
O        2.28186960       3.20611493       6.55299026       0.00039598      -0.00017828      -0.00036454
O        2.28186608       3.20611344       3.95230115       0.00032285      -0.00021261       0.00038743
O        3.78337303       1.08266319       6.55299261      -0.00013453       0.00046694      -0.00030249
