9
Lattice="5.332344346878893 1.3557741329552451e-07 3.0786305728974632 1.7774481982152606 5.027382756452677 3.0786306512462356 -7.168250689870257e-08 4.527002815433727e-08 6.157261269952684" Properties=species:S:1:pos:R:3:forces:R:3 energy=-36.9472770690918 free_energy=-36.9472770690918 stress="-6.063811724743573e-06 3.917368474048999e-08 -3.424419192654682e-09 3.917368474048999e-08 -5.931568466621684e-06 3.572055007339259e-08 -3.424419192654682e-09 3.572055007339259e-08 -5.9212602536717895e-06" pbc="T T T"
Pt       1.77744587       1.25684772       3.07862926      -0.00001595       0.00001560      -0.00001007
Pt       5.33234543       3.77053723       9.23589127       0.00000588       0.00000023      -0.00000442
Co      -0.00000023      -0.00000000      -0.00000023       0.00000089      -0.00000097      -0.00000017
Se       1.95535576       1.38264623       6.15726248       0.00202209       0.00143328       0.00000697
Se       5.15443732       3.64473558       6.15726107      -0.00201836      -0.00144015      -0.00000039
Se       4.35466727       1.38264543       4.77201976      -0.00100723       0.00142813       0.00175804
Se       2.75512541       3.64473662       7.54250357       0.00100911      -0.00143468      -0.00175235
Se       2.75512544       3.64473681       4.77201902       0.00100970      -0.00143431       0.00175509
Se       4.35466754       1.38264608       7.54250371      -0.00100596       0.00143288      -0.00175270
