9
Lattice="4.99168071290158 -3.941867278017982e-07 2.8819476366150245 1.6638931107866566 4.706201302494021 2.8819477899668606 8.041635007112662e-07 7.564463022713912e-07 5.763893880378284" Properties=species:S:1:pos:R:3:forces:R:3 energy=-42.032386779785156 free_energy=-42.032386779785156 stress="-0.0002949112968053669 4.207325332572509e-08 -3.7404373642857536e-07 4.207325332572509e-08 -0.0002946083259303123 -2.517409996016795e-07 -3.7404373642857536e-07 -2.517409996016795e-07 -0.0002941724960692227" pbc="T T T"
Pt       1.66386886       1.17656516       2.88195092      -0.00016254       0.00012372      -0.00005630
Pt       4.99168453       3.52966326       8.64580082      -0.00002404       0.00011089      -0.00027409
Cr       0.00000198      -0.00000215       0.00000323       0.00001664      -0.00002067       0.00003442
S        1.78019188       1.25878406       5.76389824      -0.00138509      -0.00101003       0.00005040
S        4.87538801       3.44741105       5.76390569       0.00142679       0.00096267       0.00005425
S        4.10158768       1.25877700       4.42364668       0.00072749      -0.00104508      -0.00117171
S        2.55399416       3.44741504       7.10415655      -0.00067145       0.00097248       0.00126114
S        2.55398833       3.44741021       4.42364179      -0.00067566       0.00094500      -0.00117031
S        4.10159346       1.25878309       7.10415358       0.00074787      -0.00103867       0.00127214
