9
Lattice="5.56357433307044 4.917560565021907e-07 3.2121323366823007 1.8545253391963323 5.245388162286943 3.2121321671592717 7.55206115683578e-07 3.2638895530394064e-07 6.424263365309288" Properties=species:S:1:pos:R:3:forces:R:3 energy=-30.333118438720703 free_energy=-30.333118438720703 stress="-7.22800032235682e-05 -2.969140382447222e-07 -3.3316749181722116e-07 -2.969140382447222e-07 -7.226123125292361e-05 -2.913459127285023e-07 -3.3316749181722116e-07 -2.913459127285023e-07 -7.321654993575066e-05" pbc="T T T"
Pt       1.85453280       1.31134691       3.21213277       0.00006626       0.00000339       0.00001801
Pt       5.56357165       3.93403639       9.63638853      -0.00004143      -0.00004458      -0.00006350
Ca      -0.00000033       0.00000067       0.00000101      -0.00000285       0.00000395      -0.00000212
Se       2.17553115       1.53833348       6.42426055      -0.00257002      -0.00181210      -0.00002566
Se       5.24256703       3.70705815       6.42426958       0.00255583       0.00183447       0.00004422
Se       4.47580421       1.53833420       5.09619381       0.00124139      -0.00180173      -0.00225171
Se       2.94229618       3.70705527       7.75233537      -0.00123865       0.00180553       0.00226244
Se       2.94229039       3.70705228       5.09619405      -0.00128531       0.00178447      -0.00225054
Se       4.47580866       1.53833858       7.75233581       0.00127491      -0.00177351       0.00226837
