9
Lattice="5.089451776209581 -9.840408131956115e-08 2.9383961864677257 1.6964840574577087 4.7983802685657215 2.9383957970493593 7.15862216635116e-07 2.925286458293135e-08 5.87679113302554" Properties=species:S:1:pos:R:3:forces:R:3 energy=-26.217784881591797 free_energy=-26.217784881591797 stress="0.00037037546280771494 6.463349677687802e-08 3.4871044363171677e-07 6.463349677687802e-08 0.0003698982181958854 1.09012567861555e-07 3.4871044363171677e-07 1.09012567861555e-07 0.0003709683078341186" pbc="T T T"
Pt       1.69650128       1.19957229       2.93836966       0.00032479      -0.00044149      -0.00051294
Pt       5.08947335       3.59877141       8.81518135       0.00040272      -0.00026096      -0.00009582
Cd      -0.00000008      -0.00000023      -0.00000047       0.00000850      -0.00000901       0.00000068
S        1.88250628       1.33113764       5.87681802      -0.00025732      -0.00006602       0.00066231
S        4.90341850       3.46725838       5.87680706       0.00003630       0.00038559       0.00025859
S        4.14819813       1.33114539       4.56868855       0.00010746       0.00004082      -0.00036213
S        2.63771913       3.46724739       7.18487426      -0.00049946       0.00020314      -0.00014756
S        2.63774136       3.46725900       4.56870493      -0.00001563       0.00042948       0.00000536
S        4.14818829       1.33112945       7.18488904      -0.00010738      -0.00028250       0.00019194
