9
Lattice="1.6988067053677336 -0.5959391385049327 1.9139626895297637 1.9057904325213841 1.6962315714083933 2.3707436874607435 -0.31311816822649335 -0.0332154610335308 3.8132144502126373" Properties=species:S:1:pos:R:3:forces:R:3 energy=-432823008.0 free_energy=-432823008.0 stress="154525472.0 -18988372.0 -108123640.0 -18988372.0 191219872.0 74772304.0 -108123640.0 74772304.0 116587880.0" pbc="T T T"
Pt      -1.54282321       0.37392688      -1.64797344 -49974960.00000000 -304725248.00000000 -19723424.00000000
Pt       0.35919623       1.52081731       3.70532528 -94145960.00000000 86629600.00000000 148717920.00000000
C       -1.47439562       0.14948234      -4.26818479 -9014364.00000000 247709216.00000000 -58580964.00000000
N       -1.02556531       0.54436650       0.95913859 -2067807104.00000000 -511070784.00000000 497939456.00000000
N        1.95552553       2.13790738       2.41306201 -297930304.00000000 684557248.00000000 222661280.00000000
N        0.10218078       0.79984992       0.23018031 -384862816.00000000 -519286176.00000000 -228489936.00000000
N        0.84072359       2.09931607       3.30578089 1055430208.00000000 -227719040.00000000 -636347904.00000000
N       -0.30566259       0.92564222       0.27411458 292914432.00000000 -45498624.00000000 -223032400.00000000
N        0.64418645      -0.09427653       2.83733688 1555390592.00000000 589404288.00000000 296856704.00000000
