9
Lattice="5.621892959826111 -8.991806158409327e-08 3.2458013483342705 1.873964329864943 5.300371549660668 3.2458011843116488 6.471788537987259e-08 -1.5512337247129226e-07 6.491602584573883" Properties=species:S:1:pos:R:3:forces:R:3 energy=-27.095115661621094 free_energy=-27.095115661621094 stress="-2.307518798261299e-06 -6.042205313860904e-08 -6.86600429844475e-08 -6.042205313860904e-08 -2.626574087116751e-06 -7.542992364051315e-08 -6.86600429844475e-08 -7.542992364051315e-08 -2.578179646661738e-06" pbc="T T T"
Pt       1.87396818       1.32509020       3.24579999       0.00006203      -0.00004417      -0.00001490
Pt       5.62188867       3.97527592       9.73739760      -0.00006988      -0.00002864      -0.00009628
Ca      -0.00000057       0.00000013      -0.00000085       0.00000405      -0.00000105       0.00001630
S        2.10340134       1.48732999       6.49160077       0.00014043       0.00010303      -0.00002326
S        5.39245287       3.81304510       6.49160405      -0.00018257      -0.00005159       0.00003068
S        4.57019010       1.48732693       5.06740184      -0.00010733       0.00007296       0.00012857
S        2.92566948       3.81304095       7.91580822       0.00014140      -0.00012043      -0.00007635
S        2.92566747       3.81304353       5.06740091       0.00009517      -0.00008392       0.00011718
S        4.57019171       1.48733247       7.91580796      -0.00008309       0.00015366      -0.00008228
