9
Lattice="2.4602780411200142 0.273198244056217 0.36141946358058413 0.9018720650867901 2.1524058337623075 0.007736632500669299 0.5790633707383381 -1.0898222541311418 2.203766385506932" Properties=species:S:1:pos:R:3:forces:R:3 energy=-24282433536.0 free_energy=-24282433536.0 stress="0.0 -679585728.0 254429008.0 -679585728.0 0.0 273591008.0 254429008.0 273591008.0 0.0" pbc="T T T"
Pt       1.88661782       4.34368344       0.48130714 32990885888.00000000 -18184009728.00000000 -8057156096.00000000
Pt       4.56877820       4.91276880       0.12846420 -3784764928.00000000 -2460880896.00000000 9181937664.00000000
Cr       0.65418160       2.98867853      -1.75339576 -14776901632.00000000 27697782784.00000000 6132273664.00000000
N        1.91083070       3.28270380      -0.07660034 -1920440832.00000000 982541312.00000000 -2976210176.00000000
N        2.75433559       4.15244480      -0.05350091 -7212462080.00000000 5949575680.00000000 -2158607872.00000000
N        4.53805415       2.32762167      -0.57493404 -1845814272.00000000 -485306368.00000000 -3213646592.00000000
N        1.17572780       2.79514291       0.56228210 -4021606912.00000000 -11253187584.00000000 4735044608.00000000
N        1.84020397       5.23110076      -1.42620043 1938909696.00000000 -5289924096.00000000 -564181504.00000000
N        3.94486926       3.98733196       1.41208010 -1367800832.00000000 3043409920.00000000 -3079451136.00000000
