9
Lattice="5.374749628700718 -3.5889266968362923e-07 3.103113647479401 1.7915830876547445 5.067362605586066 3.1031132725682604 1.3201388031298354e-07 -3.6582265115618616e-07 6.206227066303964" Properties=species:S:1:pos:R:3:forces:R:3 energy=-33.75020217895508 free_energy=-33.75020217895508 stress="-8.301292837131768e-06 -2.1930604887643312e-08 6.914087435916372e-08 -2.1930604887643312e-08 -8.348238225153182e-06 6.973503108298473e-09 6.914087435916372e-08 6.973503108298473e-09 -8.419117875746451e-06" pbc="T T T"
Pt       1.79158492       1.26684288       3.10311180       0.00000710       0.00001492      -0.00001019
Pt       5.37474655       3.80052282       9.30934195      -0.00001918       0.00000945       0.00000965
Cu      -0.00000032      -0.00000008       0.00000028       0.00000128      -0.00000278      -0.00000386
Se       2.02704689       1.43333795       6.20622776      -0.00003397      -0.00002956       0.00000334
Se       5.13928574       3.63402247       6.20622577       0.00004387       0.00002363      -0.00000608
Se       4.36122601       1.43333694       4.85858782       0.00001583      -0.00003067      -0.00003091
Se       2.80510731       3.63402256       7.55386677      -0.00001837       0.00002059       0.00003958
Se       2.80510891       3.63402335       4.85858732      -0.00001077       0.00002575      -0.00004053
Se       4.36122529       1.43333858       7.55386666       0.00001417      -0.00003141       0.00003892
