9
Lattice="5.504969830436469 -5.351215551178649e-08 3.1782960385496426 1.834989947586175 5.1901354811696985 3.1782959440505305 1.0859802522674814e-07 -3.894692048126361e-08 6.356591889001922" Properties=species:S:1:pos:R:3:forces:R:3 energy=-29.59735107421875 free_energy=-29.59735107421875 stress="-4.7382105549331754e-05 3.638182377585508e-08 -2.058149739525561e-08 3.638182377585508e-08 -4.741646262118593e-05 -1.6685792303405833e-08 -2.058149739525561e-08 -1.6685792303405833e-08 -4.744470788864419e-05" pbc="T T T"
Pt       1.83498874       1.29753506       3.17829708      -0.00000754       0.00000733       0.00000502
Pt       5.50497016       3.89260014       9.53488607       0.00000110      -0.00000875      -0.00000958
Cd       0.00000003       0.00000027       0.00000088       0.00000202      -0.00000264      -0.00000796
Se       2.13636974       1.51064163       6.35659183       0.00769025       0.00543764      -0.00000436
Se       5.20359061       3.67949361       6.35659379      -0.00768736      -0.00543925       0.00000362
Se       4.43678554       1.51064093       5.02844579      -0.00384848       0.00544685       0.00666681
Se       2.90317423       3.67949339       7.68473727       0.00383742      -0.00543347      -0.00665718
Se       2.90317377       3.67949362       5.02844512       0.00384647      -0.00544718       0.00666124
Se       4.43678675       1.51064284       7.68473773      -0.00383396       0.00543955      -0.00665748
