9
Lattice="1.938026352860394 -0.27209892266607594 1.1542083668727068 0.06326530434040677 2.974217147863184 1.5520518245066002 0.04273796334129028 -0.8147462348667519 1.7074987008822453" Properties=species:S:1:pos:R:3:forces:R:3 energy=-15078731776.0 free_energy=-15078731776.0 stress="0.0 267084112.0 -268764256.0 267084112.0 0.0 217445616.0 -268764256.0 217445616.0 0.0" pbc="T T T"
Pt       0.38211254       0.98411207       2.24094400 -18306387968.00000000 9830647808.00000000 -2579480064.00000000
Pt       1.48494485      -0.29925625       5.30154316 26578976768.00000000 9520432128.00000000 -1740760832.00000000
Co      -1.33112066       1.98907643       0.71974213 -5358482944.00000000 -8451931136.00000000 12436384768.00000000
N        0.96510082       0.89501639       3.25511172 -7334137856.00000000 7217148928.00000000 -15615609856.00000000
N        0.96682185       2.32523264       3.33714234 -2430710784.00000000 2191171584.00000000 1296345600.00000000
N        2.21416002       0.85444803       2.32849750 10509149184.00000000 3769674240.00000000 421516800.00000000
N        1.09180557       0.96645480       2.18365734 -3504491264.00000000 -15717176320.00000000 3386837504.00000000
N        1.16782831       0.77880450       2.43643035 12176173056.00000000 922349568.00000000 -126121216.00000000
N        0.67076942       0.40820646       2.81522672 -12330087424.00000000 -9282288640.00000000 2520893952.00000000
