9
Lattice="4.567997238405717 1.4465482527044983e-07 2.637334448067895 1.522665854215839 4.306749340912675 2.6373344970871746 -1.8114909048527575e-07 -6.805564409377765e-08 5.274669209895221" Properties=species:S:1:pos:R:3:forces:R:3 energy=-40.49871063232422 free_energy=-40.49871063232422 stress="-0.0002875790814869106 -2.608161366879358e-07 3.144386084841244e-07 -2.608161366879358e-07 -0.0002880549291148782 1.630101991167976e-07 3.144386084841244e-07 1.630101991167976e-07 -0.0002886215806938708" pbc="T T T"
Pt       1.52266323       1.07669125       2.63733449      -0.00003764       0.00009219      -0.00001045
Pt       4.56800325       3.23006647       7.91199756       0.00012070       0.00009946      -0.00012627
Fe       0.00000025       0.00000021      -0.00000029      -0.00000478       0.00000338       0.00000187
O        1.54116001       1.08976386       5.27466962      -0.00410694      -0.00292185       0.00000878
O        4.54950445       3.21698266       5.27467197       0.00414014       0.00286359       0.00006121
O        3.79741681       1.08976133       3.97202021       0.00204527      -0.00297484      -0.00350797
O        2.29324399       3.21698409       6.57731972      -0.00208700       0.00288418       0.00356042
O        2.29324178       3.21698367       3.97201975      -0.00213301       0.00287968      -0.00353146
O        3.79741790       1.08976404       6.57731954       0.00206289      -0.00292575       0.00354403
