9
Lattice="4.209818826442855 1.2436529805839147e-07 2.4305401326756724 1.403273097648158 3.969055352381303 2.4305400664285157 2.722258435866359e-07 1.1135687627233614e-07 4.86107979384236" Properties=species:S:1:pos:R:3:forces:R:3 energy=-63.78934860229492 free_energy=-63.78934860229492 stress="-5.3137824579607695e-05 7.365063083852874e-07 1.3202436548453989e-06 7.365063083852874e-07 -4.9804388254415244e-05 1.0294218100170838e-07 1.3202436548453989e-06 1.0294218100170838e-07 -5.054468783782795e-05" pbc="T T T"
Pt       1.40327284       0.99226388       2.43054034       0.00005382       0.00003158      -0.00006724
Pt       4.20981901       2.97679167       7.29162050       0.00007420       0.00001135      -0.00011065
Fe      -0.00000171      -0.00000034       0.00000138       0.00052024       0.00013273      -0.00049532
N        1.56940472       1.10973627       4.86107991      -0.00020504      -0.00008202       0.00005391
N        4.04368873       2.85931983       4.86108026      -0.00021839      -0.00015354      -0.00000817
N        3.42511750       1.10973575       3.78968295      -0.00011778       0.00016880       0.00021172
N        2.18797590       2.85931913       5.93247600      -0.00014734       0.00009155       0.00015068
N        2.18797495       2.85931968       3.78968283       0.00002050      -0.00010490       0.00014400
N        3.42511704       1.10973669       5.93247593       0.00001907      -0.00009155       0.00012207
