9
Lattice="5.275246839677101 5.7103955925204257e-08 3.0456653387619457 1.7584158119126811 4.973549726271441 3.0456650878763156 -5.1559328027101544e-08 -3.437288164995163e-07 6.091330766827261" Properties=species:S:1:pos:R:3:forces:R:3 energy=-38.46059799194336 free_energy=-38.46059799194336 stress="-9.11973893380491e-06 2.5052402818914743e-08 3.228493739015903e-08 2.5052402818914743e-08 -9.261297236662358e-06 2.1817513129462895e-08 3.228493739015903e-08 2.1817513129462895e-08 -9.211942597175948e-06" pbc="T T T"
Pt       1.75841876       1.24338647       3.04566677       0.00002177      -0.00000515       0.00001629
Pt       5.27524742       3.73016445       9.13699969       0.00001023       0.00002177       0.00003400
Fe       0.00000022       0.00000083       0.00000038      -0.00000234      -0.00000464      -0.00000561
Se       1.91487110       1.35401615       6.09132948      -0.00017095      -0.00012553      -0.00000737
Se       5.11879096       3.61953262       6.09132886       0.00016347       0.00012356      -0.00000889
Se       4.31781079       1.35401695       4.70399075       0.00007842      -0.00012031      -0.00015521
Se       2.71584908       3.61953224       7.47866866      -0.00009166       0.00011513       0.00013888
Se       2.71585146       3.61953284       4.70399136      -0.00008298       0.00012180      -0.00015312
Se       4.31781070       1.35401501       7.47866867       0.00007409      -0.00012672       0.00014108
