9
Lattice="4.962971590259833 5.855969078549276e-08 2.8653728767220974 1.6543238850808157 4.679134360905436 2.8653729348319583 3.794853233801782e-08 9.80033697582313e-08 5.730745687715358" Properties=species:S:1:pos:R:3:forces:R:3 energy=-40.87323760986328 free_energy=-40.87323760986328 stress="0.00018369503959547728 7.882621133603607e-08 -2.1417873696805145e-08 7.882621133603607e-08 0.00018368005112279207 -8.063610223985052e-09 -2.1417873696805145e-08 -8.063610223985052e-09 0.0001837584568420425" pbc="T T T"
Pt       1.65432645       1.16978252       2.86537082       0.00001459      -0.00001683      -0.00001507
Pt       4.96297089       3.50934672       8.59611795      -0.00000058      -0.00002928      -0.00000730
Fe       0.00000030      -0.00000085      -0.00000022      -0.00000240       0.00000918       0.00000150
S        1.74097083       1.23105294       5.73074562      -0.00083804      -0.00058767       0.00000096
S        4.87632442       3.44808341       5.73074553       0.00082821       0.00059602       0.00000441
S        4.09248601       1.23105396       4.37309760       0.00041662      -0.00058286      -0.00071993
S        2.52480819       3.44808229       7.08839564      -0.00041562       0.00058983       0.00072223
S        2.52480911       3.44808362       4.37309799      -0.00041953       0.00060020      -0.00071210
S        4.09248586       1.23105359       7.08839513       0.00041659      -0.00057878       0.00072527
