9
Lattice="4.9973609699327515 7.321601616455492e-08 2.8852280617537365 1.6657869262448088 4.711557159706232 2.8852282917033647 6.142008823471494e-08 3.250602011401358e-07 5.770456017124707" Properties=species:S:1:pos:R:3:forces:R:3 energy=-34.4371223449707 free_energy=-34.4371223449707 stress="-1.7824024325818755e-05 -6.349287673401705e-08 -4.08221474401671e-08 -6.349287673401705e-08 -1.7718395611154847e-05 -1.0829820951130387e-07 -4.08221474401671e-08 -1.0829820951130387e-07 -1.7794287487049587e-05" pbc="T T T"
Pt       1.66578868       1.17788677       2.88521941       0.00000918      -0.00002087      -0.00006982
Pt       4.99736021       3.53366486       8.65567460      -0.00000080      -0.00002431      -0.00007309
Ge       0.00000029      -0.00000050      -0.00000174       0.00000482      -0.00000971      -0.00000081
S        1.81900519       1.28623547       5.77045620      -0.00075208      -0.00050274      -0.00001551
S        4.84413909       3.42532757       5.77045744       0.00073330       0.00054654      -0.00001275
S        4.08785830       1.28622934       4.46053911       0.00037170      -0.00055393      -0.00059417
S        2.57529232       3.42531947       7.08038235      -0.00037415       0.00049745       0.00070344
S        2.57529136       3.42532810       4.46053974      -0.00036622       0.00055911      -0.00061917
S        4.08785640       1.28623895       7.08038251       0.00037444      -0.00049131       0.00068179
