9
Lattice="5.461083560432758 9.268865371169482e-08 3.1529582399108342 1.8203612997924699 5.148759164116143 3.152958195581054 1.5186402710214244e-07 5.3091347915372125e-08 6.305916216785417" Properties=species:S:1:pos:R:3:forces:R:3 energy=-34.024322509765625 free_energy=-34.024322509765625 stress="0.00014572445070371032 -2.5774218315177677e-08 1.2061808440932964e-08 -2.5774218315177677e-08 0.00014573177031707019 4.218185800652918e-09 1.2061808440932964e-08 4.218185800652918e-09 0.00014572707004845142" pbc="T T T"
Pt       1.82035715       1.28718663       3.15295780      -0.00001898      -0.00001142      -0.00000102
Pt       5.46108328       3.86157471       9.45887178      -0.00000196       0.00002228      -0.00001313
Ge       0.00000015       0.00000032       0.00000021       0.00000356      -0.00000459       0.00000094
Se       2.09592895       1.48204327       6.30591658      -0.00421041      -0.00298460       0.00000153
Se       5.18551735       3.66671483       6.30591754       0.00421400       0.00298232       0.00000405
Se       4.41312118       1.48204315       4.96808654       0.00211187      -0.00298592      -0.00364649
Se       2.86832597       3.66671542       7.64374726      -0.00210519       0.00298397       0.00365031
Se       2.86832501       3.66671514       4.96808590      -0.00210540       0.00298209      -0.00364634
Se       4.41312105       1.48204368       7.64374697       0.00211255      -0.00298414       0.00365016
