9
Lattice="5.140820982644003 -3.94616474437224e-07 2.968054415616376 1.7136065622322039 4.846809418012458 2.9680545194263317 -5.1347253240193875e-08 9.083266308274589e-08 5.936108920168801" Properties=species:S:1:pos:R:3:forces:R:3 energy=-25.962448120117188 free_energy=-25.962448120117188 stress="-9.117273293668404e-05 1.6254072932042618e-07 -4.2163765101577155e-07 1.6254072932042618e-07 -8.178358984878287e-05 -2.912565548740531e-07 -4.2163765101577155e-07 -2.912565548740531e-07 -9.085483907256275e-05" pbc="T T T"
Pt       1.71359356       1.21172782       2.96805509      -0.00021930       0.00046432       0.00000948
Pt       5.14080781       3.63509317       8.90415855      -0.00019653      -0.00026242      -0.00008434
Hg      -0.00000080       0.00000124      -0.00000039      -0.00001093       0.00001317      -0.00000825
S        1.92451892       1.36085896       5.93610523       0.00287498       0.00258151      -0.00010169
S        4.92991528       3.48593960       5.93611100      -0.00278987      -0.00276732       0.00004852
S        4.17856846       1.36085820       4.63474307      -0.00133654       0.00256553       0.00262484
S        2.67587186       3.48594504       7.23748995       0.00155347      -0.00266414      -0.00233586
S        2.67586613       3.48594596       4.63473000       0.00142251      -0.00265665       0.00238961
S        4.17856875       1.36086646       7.23747899      -0.00129722       0.00272586      -0.00254200
