9
Lattice="4.749587322541088 -2.1095624107492883e-07 2.742175204527132 1.583195595206191 4.4779537761018435 2.742175170029392 -7.308463789071183e-07 -5.590373496884399e-07 5.4843516749173045" Properties=species:S:1:pos:R:3:forces:R:3 energy=-29.969024658203125 free_energy=-29.969024658203125 stress="0.0005629726801998913 -1.5461134239558305e-07 1.8955347513838205e-06 -1.5461134239558305e-07 0.0005634182598441839 1.352834033241379e-06 1.8955347513838205e-06 1.352834033241379e-06 0.0005623907200060785" pbc="T T T"
Pt       1.58319244       1.11948527       2.74218487      -0.00005578      -0.00005691       0.00019069
Pt       4.74958809       3.35846651       8.22650829       0.00002724       0.00003717      -0.00035084
Hg      -0.00000000       0.00000000      -0.00000022      -0.00000229      -0.00000392       0.00000244
O        1.72407089       1.21910183       5.48434682      -0.00679463      -0.00481224      -0.00009437
O        4.60871171       3.25885087       5.48436078       0.00680029       0.00480957       0.00018443
O        3.88754865       1.21909785       4.23526680       0.00334401      -0.00489227      -0.00584763
O        2.44523573       3.25885505       6.73343671      -0.00330528       0.00488165       0.00588064
O        2.44522607       3.25885013       4.23526697      -0.00349304       0.00479078      -0.00584763
O        3.88755515       1.21910445       6.73343710       0.00347940      -0.00475419       0.00588226
