9
Lattice="5.09193568209131 7.185414143634759e-08 2.9398308512593823 1.6973117687011956 4.800723203107475 2.939831185673331 -1.2354532157380409e-06 -4.6402548304711555e-07 5.879663842386616" Properties=species:S:1:pos:R:3:forces:R:3 energy=-30.351274490356445 free_energy=-30.351274490356445 stress="-4.1703478927956894e-05 -3.5618387528302264e-07 2.235961886754012e-07 -3.5618387528302264e-07 -4.236968743498437e-05 8.233955668401904e-07 2.235961886754012e-07 8.233955668401904e-07 -4.2508781916694716e-05" pbc="T T T"
Pt       1.69731481       1.20017333       2.93982897       0.00002257      -0.00007999      -0.00001976
Pt       5.09192829       3.60054374       8.81950345      -0.00006511       0.00001021       0.00010130
In      -0.00000050       0.00000029      -0.00000063      -0.00000642       0.00000347       0.00000771
S        1.89016292       1.33654142       5.87966635      -0.00093957      -0.00076784       0.00006098
S        4.89908305       3.46417989       5.87965745       0.00095057       0.00075814      -0.00008934
S        4.14685368       1.33654687       4.57675925       0.00047526      -0.00070699      -0.00089323
S        2.64238994       3.46417769       7.18256425      -0.00052993       0.00070889       0.00084335
S        2.64240321       3.46418389       4.57675718      -0.00032404       0.00079391      -0.00087713
S        4.14684938       1.33654422       7.18256703       0.00041653      -0.00071999       0.00086680
