9
Lattice="4.751321759872582 -9.725301056456077e-08 2.7431767748693914 1.583773836267438 4.47958899094951 2.743176761011387 9.06878732090455e-08 4.715347962356615e-08 5.486353392662784" Properties=species:S:1:pos:R:3:forces:R:3 energy=-36.091705322265625 free_energy=-36.091705322265625 stress="0.00024215645680669695 2.0524048238712567e-07 -1.485979055360076e-07 2.0524048238712567e-07 0.00024194408615585417 -8.526572514711006e-08 -1.485979055360076e-07 -8.526572514711006e-08 0.00024261964426841587" pbc="T T T"
Pt       1.58377242       1.11989731       2.74318127      -0.00002563       0.00000393       0.00008502
Pt       4.75131720       3.35968931       8.22953657      -0.00008808      -0.00004392       0.00012138
In      -0.00000010      -0.00000011       0.00000041      -0.00000369       0.00000134       0.00000325
O        1.71695886       1.21407434       5.48635252      -0.00104102      -0.00072631      -0.00002994
O        4.61813736       3.26551446       5.48635127       0.00105128       0.00071922      -0.00005091
O        3.89284131       1.21407620       4.23010395       0.00051734      -0.00068611      -0.00094494
O        2.44225505       3.26551702       6.74259951      -0.00049610       0.00075513       0.00088891
O        2.44225691       3.26551508       4.23010419      -0.00045955       0.00072205      -0.00094390
O        3.89284367       1.21407209       6.74259799       0.00054546      -0.00074556       0.00087118
