9
Lattice="1.2875134609000718 0.6469281434323474 2.7231570652454655 -0.3123369519400531 2.5541008050728164 1.6530478787612148 -1.2860533415576638 -0.10237863195332318 2.435264605835026" Properties=species:S:1:pos:R:3:forces:R:3 energy=-211845984.0 free_energy=-211845984.0 stress="170432384.0 -11999400.0 -7239901.0 -11999400.0 157351232.0 15474143.0 -7239901.0 15474143.0 171928192.0" pbc="T T T"
Pt       0.88519273      -0.71712687       1.21885513 12247960.00000000 80968896.00000000 -76650792.00000000
Pt       0.98586606       2.14893709       5.34696295 -73102712.00000000 234916944.00000000 -371209824.00000000
Ir       0.92947113      -0.52475829       0.92296810 -55732296.00000000 -54580280.00000000 87205464.00000000
N       -0.33372783       1.17830935       3.10816742 108123792.00000000 -93453840.00000000 334987264.00000000
N        1.54801475       1.54059817       4.48921771 -144158224.00000000 -64710472.00000000 54116152.00000000
N        0.28572778       0.00087008       2.83295651 104478744.00000000 -24126526.00000000 -194483744.00000000
N       -0.05129552       1.41977138       3.55265047 -166179808.00000000 -3136808.25000000 -124097552.00000000
N        0.91895372       1.68141735       3.71051058 256440096.00000000 -9750500.00000000 98305336.00000000
N        0.10258905       0.49350582       4.07917760 -42117428.00000000 -66127632.00000000 191827424.00000000
