9
Lattice="4.18857245378231 -6.82718703379596e-07 2.418274089151684 1.3961907551406807 3.94902352092382 2.418273083026567 6.835477375616458e-07 -7.489053311524133e-07 4.836546994363957" Properties=species:S:1:pos:R:3:forces:R:3 energy=-88.50978088378906 free_energy=-88.50978088378906 stress="-5.931574196438305e-05 -9.513616532785818e-06 1.9936764147132635e-05 -9.513616532785818e-06 -5.318316107150167e-05 -2.7570617021410726e-05 1.9936764147132635e-05 -2.7570617021410726e-05 -4.579195592668839e-05" pbc="T T T"
Pt       1.39619058       0.98725535       2.41827401       0.00004587       0.00002061      -0.00004519
Pt       4.18857251       2.96176642       7.25482079       0.00005477       0.00001061      -0.00003285
Mn      -0.00000126      -0.00000030       0.00000108       0.00079495       0.00020448      -0.00052334
N        1.49307804       1.05576455       4.83654703       0.00239372       0.00169945       0.00002735
N        4.09168658       2.89325790       4.83654660      -0.00297165      -0.00205517       0.00006368
N        3.44203522       1.05576351       3.71131530      -0.00161409       0.00215435       0.00269794
N        2.14272947       2.89325869       5.96177831       0.00132656      -0.00191975      -0.00232506
N        2.14273243       2.89325465       3.71132038       0.00082397      -0.00123644       0.00152874
N        3.44203176       1.05576766       5.96177323      -0.00086546       0.00112867      -0.00139046
