9
Lattice="4.978169177505978 -1.1623904446051007e-08 2.8741471472929527 1.6593896534937913 4.693462467852109 2.874147253610371 -6.046409817930143e-08 8.745715598628075e-08 5.748294399312804" Properties=species:S:1:pos:R:3:forces:R:3 energy=-40.44416809082031 free_energy=-40.44416809082031 stress="6.828519872215111e-06 1.1593834869927377e-07 7.017707304157739e-08 1.1593834869927377e-07 7.113589163054712e-06 -5.9321376255638825e-08 7.017707304157739e-08 -5.9321376255638825e-08 6.658067832177039e-06" pbc="T T T"
Pt       1.65938939       1.17337141       2.87414918       0.00000519       0.00005254       0.00000614
Pt       4.97817190       3.52009375       8.62243514       0.00003166      -0.00001853      -0.00006452
Mn      -0.00000035       0.00000032       0.00000135      -0.00000434      -0.00000306       0.00000361
S        1.76780684       1.25002855       5.74829439      -0.00031590      -0.00021842       0.00000054
S        4.86975251       3.44343002       5.74829797       0.00032809       0.00019515       0.00002186
S        4.09426414       1.25002806       4.40511171       0.00013044      -0.00020859      -0.00026715
S        2.54329310       3.44343453       7.09147535      -0.00016610       0.00021780       0.00026914
S        2.54329143       3.44343398       4.40511409      -0.00016704       0.00020358      -0.00025284
S        4.09426611       1.25002978       7.09147615       0.00015767      -0.00022048       0.00028309
