9
Lattice="4.5503770458893005 6.854783857746989e-07 2.6271625419686875 1.5167930038496567 4.290137290039985 2.627162526476053 2.487509284971207e-07 1.569189675065625e-07 5.254324653088116" Properties=species:S:1:pos:R:3:forces:R:3 energy=-35.8569221496582 free_energy=-35.8569221496582 stress="-0.00010542764357523993 -2.6442191938258475e-06 -9.165241863229312e-07 -2.6442191938258475e-06 -0.0001077857450582087 -5.381103846957558e-07 -9.165241863229312e-07 -5.381103846957558e-07 -0.00011242839536862448" pbc="T T T"
Pt       1.51673558       1.07255550       2.62718528      -0.00174292       0.00068628       0.00074447
Pt       4.55036528       3.21763184       7.88152044      -0.00047648       0.00089068       0.00104016
Mg      -0.00000296       0.00000210       0.00000225      -0.00008592       0.00006163       0.00007170
O        1.58232717       1.11885342       5.25431587      -0.00222269      -0.00221832      -0.00033951
O        4.48486840       3.17125035       5.25430562       0.00300676       0.00114822      -0.00056350
O        3.75923351       1.11886626       3.99749755       0.00174896      -0.00183865      -0.00194204
O        2.30795111       3.17127320       6.51115578      -0.00125648       0.00189497       0.00207341
O        2.30795890       3.17126666       3.99748214      -0.00096451       0.00163117      -0.00249824
O        3.75924429       1.11885320       6.51113421       0.00199339      -0.00225575       0.00141373
