9
Lattice="5.34963800751585 1.6016435151468748e-07 3.0886151612058854 1.7832128157607938 5.0436871747035275 3.08861516885382 2.279150599173704e-07 1.705271062913282e-07 6.177229927651316" Properties=species:S:1:pos:R:3:forces:R:3 energy=-38.936988830566406 free_energy=-38.936988830566406 stress="-4.146404899074696e-05 -7.94967291994908e-08 -3.2226750157349215e-09 -7.94967291994908e-08 -4.152169276494533e-05 -2.1646586745305285e-08 -3.2226750157349215e-09 -2.1646586745305285e-08 -4.1623796278145164e-05" pbc="T T T"
Pt       1.78321565       1.26091860       3.08861380       0.00001512      -0.00002540      -0.00001107
Pt       5.34963316       3.78276174       9.26584330      -0.00003568      -0.00002897      -0.00001281
Mn       0.00000005       0.00000054       0.00000027       0.00000090       0.00000147      -0.00000005
Se       1.97973827       1.39988695       6.17723003      -0.00164539      -0.00115868       0.00000185
Se       5.15311185       3.64380279       6.17723073       0.00164470       0.00117838       0.00000588
Se       4.35976836       1.39988776       4.80311766       0.00082250      -0.00115708      -0.00143164
Se       2.77308427       3.64380085       7.55134339      -0.00081126       0.00116697       0.00143799
Se       2.77308407       3.64380225       4.80311885      -0.00081293       0.00117558      -0.00142848
Se       4.35976842       1.39988856       7.55134304       0.00082192      -0.00115228       0.00143847
