9
Lattice="4.961790463487598 1.709880446950607e-07 2.864691351164703 1.6539301359867673 4.678021038124712 2.864691662445726 -2.561148926887131e-07 2.0013923541656855e-07 5.729383145933437" Properties=species:S:1:pos:R:3:forces:R:3 energy=-31.52920150756836 free_energy=-31.52920150756836 stress="-1.4426115740207024e-05 8.925158567762992e-08 5.231963200458267e-07 8.925158567762992e-08 -1.345290456811199e-05 1.9108679794044292e-07 5.231963200458267e-07 1.9108679794044292e-07 -1.4498750715574715e-05" pbc="T T T"
Pt       1.65393632       1.16951172       2.86469993       0.00005728       0.00008054       0.00005135
Pt       4.96179433       3.50853402       8.59406641       0.00004493       0.00015825      -0.00004613
Mg      -0.00000077      -0.00000140       0.00000013      -0.00000689      -0.00001760       0.00002483
S        1.78852006       1.26466354       5.72938164       0.00045526       0.00024165       0.00000140
S        4.82720292       3.41334646       5.72938831      -0.00045004      -0.00035554       0.00003769
S        4.06752669       1.26466709       4.41359242      -0.00025424       0.00028132       0.00036977
S        2.54818692       3.41335156       7.04517025       0.00020997      -0.00032422      -0.00042650
S        2.54818528       3.41334475       4.41359330       0.00018921      -0.00034876       0.00037776
S        4.06752962       1.26466782       7.04517218      -0.00024550       0.00028439      -0.00038929
