9
Lattice="5.416498426225683 5.3248095950854797e-08 3.127216871323177 1.805499592773325 5.106722902549871 3.1272167549951932 9.841239562771142e-08 -7.288400146366698e-08 6.254433572191047" Properties=species:S:1:pos:R:3:forces:R:3 energy=-30.895645141601562 free_energy=-30.895645141601562 stress="-3.6879304389003664e-05 3.584751695484556e-08 -1.602978194625848e-08 3.584751695484556e-08 -3.67269130947534e-05 3.9973240717472436e-08 -1.602978194625848e-08 3.9973240717472436e-08 -3.687372736749239e-05" pbc="T T T"
Pt       1.80550343       1.27668517       3.12721801       0.00003408       0.00003264       0.00001067
Pt       5.41650407       3.83004106       9.38165342       0.00004236      -0.00000825       0.00002770
Mg      -0.00000080      -0.00000065      -0.00000028      -0.00000450      -0.00000106      -0.00000197
Se       2.08052139       1.47115380       6.25443296       0.00657192       0.00466326      -0.00000429
Se       5.14147386       3.63556915       6.25443278      -0.00657907      -0.00466302      -0.00000931
Se       4.37623559       1.47115276       4.92900186      -0.00330563       0.00465778       0.00569683
Se       2.84575910       3.63556922       7.57986302       0.00326799      -0.00466457      -0.00570244
Se       2.84576086       3.63556948       4.92900224       0.00328025      -0.00466728       0.00569108
Se       4.37623497       1.47115157       7.57986471      -0.00330740       0.00465053      -0.00570810
