9
Lattice="4.673997373191797 1.7124233590706918e-07 2.6985339065068064 1.5579992904312936 4.406687211194556 2.6985338985649956 1.3829934227068418e-07 8.806572199050697e-08 5.397067573472127" Properties=species:S:1:pos:R:3:forces:R:3 energy=-49.63151550292969 free_energy=-49.63151550292969 stress="9.421357390237972e-05 -2.920940289641294e-07 -3.5980491475129384e-07 -2.920940289641294e-07 9.390011837240309e-05 -2.3694910566973704e-07 -3.5980491475129384e-07 -2.3694910566973704e-07 9.385852899868041e-05" pbc="T T T"
Pt       1.55799829       1.10167475       2.69853371      -0.00001670       0.00005668       0.00000193
Pt       4.67400099       3.30501752       8.09560667       0.00006942       0.00004239       0.00010574
Nb       0.00000007      -0.00000024       0.00000025       0.00000108       0.00000092       0.00000133
O        1.63371232       1.15520935       5.39706845      -0.00107539      -0.00075644       0.00000416
O        4.59828424       3.25147728       5.39706595       0.00107992       0.00073761      -0.00003998
O        3.85714166       1.15520970       4.11337024       0.00053975      -0.00076026      -0.00093204
O        2.37485300       3.25147731       6.68076377      -0.00058681       0.00074106       0.00090581
O        2.37485544       3.25147700       4.11336946      -0.00054339       0.00073767      -0.00094283
O        3.85714116       1.15520720       6.68076299       0.00053185      -0.00079966       0.00089592
