9
Lattice="4.947156698614779 1.6699736540362872e-07 2.8562424693777135 1.6490523512290152 4.664224741088671 2.8562425370822764 1.9064615302301793e-07 2.1772794162741033e-07 5.712484608546568" Properties=species:S:1:pos:R:3:forces:R:3 energy=-37.093624114990234 free_energy=-37.093624114990234 stress="1.262056321138516e-05 -6.482143533048657e-08 -1.3387719377533358e-07 -6.482143533048657e-08 1.2644353773794137e-05 -4.864161695650182e-08 -1.3387719377533358e-07 -4.864161695650182e-08 1.2601289199665189e-05" pbc="T T T"
Pt       1.64905218       1.16605253       2.85624297       0.00000114      -0.00002845       0.00001353
Pt       4.94715817       3.49816702       8.56873354       0.00000876      -0.00001994       0.00004245
Ni      -0.00000028       0.00000034      -0.00000023       0.00000453       0.00000572      -0.00000776
S        1.71787919       1.21472638       5.71248516      -0.00017405      -0.00011218      -0.00000265
S        4.87832864       3.44950104       5.71248208       0.00016716       0.00012591      -0.00001052
S        4.08821738       1.21472638       4.34396913       0.00008187      -0.00011583      -0.00015563
S        2.50799167       3.44950141       7.08099804      -0.00008461       0.00013092       0.00014183
S        2.50799309       3.44950112       4.34396959      -0.00008766       0.00012940      -0.00015843
S        4.08821694       1.21472445       7.08099820       0.00008292      -0.00011559       0.00013712
