9
Lattice="4.367535489554235 -2.92804584449911e-08 2.521597836443081 1.4558451686866016 4.117751369638446 2.521597779098867 9.75858146601813e-08 -1.2284736604717378e-09 5.043195503862605" Properties=species:S:1:pos:R:3:forces:R:3 energy=-37.69239807128906 free_energy=-37.69239807128906 stress="1.373878421873087e-05 -1.2677008953687618e-07 -2.4954283617262263e-07 -1.2677008953687618e-07 1.4167151675792411e-05 -5.757496879255086e-08 -2.4954283617262263e-07 -5.757496879255086e-08 1.3486235729942564e-05" pbc="T T T"
Pt       1.45584070       1.02943313       2.52160401      -0.00008513      -0.00008000       0.00014427
Pt       4.36753282       3.08831389       7.56480378      -0.00006443      -0.00001249       0.00019881
Ni      -0.00000016      -0.00000008       0.00000016      -0.00000035      -0.00001051       0.00000361
O        1.45947569       1.03200294       5.04319333      -0.00136559      -0.00099155      -0.00006161
O        4.36390557       3.08574847       5.04319164       0.00138643       0.00099865      -0.00008401
O        3.63779993       1.03200672       3.78553813       0.00072023      -0.00093470      -0.00123857
O        2.18558194       3.08575030       6.30084769      -0.00069683       0.00104406       0.00114632
O        2.18558568       3.08574725       3.78553726      -0.00063486       0.00098160      -0.00124811
O        3.63780070       1.03200274       6.30084827       0.00074055      -0.00099493       0.00113922
