9
Lattice="5.151868253400803 -2.1716273840258588e-08 2.974432718551115 1.7172894924704885 4.857228296415381 2.9744325537560012 9.792264870881681e-08 -1.3259022788839926e-07 5.948865267495217" Properties=species:S:1:pos:R:3:forces:R:3 energy=-42.606422424316406 free_energy=-42.606422424316406 stress="0.00042765133548527956 -5.533275171387686e-09 1.4720404806212173e-07 -5.533275171387686e-09 0.00042754027526825666 -1.4690715488541173e-07 1.4720404806212173e-07 -1.4690715488541173e-07 0.00042759181815199554" pbc="T T T"
Pt       1.71729001       1.21430785       2.97443361       0.00000512       0.00001237       0.00001107
Pt       5.15186919       3.64292405       8.92329961       0.00000880       0.00002644       0.00001692
Nb       0.00000004      -0.00000011      -0.00000019      -0.00000418      -0.00000846      -0.00000617
S        1.87712723       1.32732944       5.94886524       0.00338572       0.00239667      -0.00000107
S        4.99203003       3.52989849       5.94886494      -0.00339380      -0.00239906      -0.00000113
S        4.21330392       1.32732867       4.60007243      -0.00170252       0.00239608       0.00293624
S        2.65585285       3.52989812       7.29765790       0.00169758      -0.00240639      -0.00294325
S        2.65585350       3.52989840       4.60007289       0.00169422      -0.00239617       0.00292802
S        4.21330471       1.32732764       7.29765579      -0.00169121       0.00237858      -0.00294042
