9
Lattice="5.4390631256045605 -1.5135732810438773e-08 3.1402446252802307 1.8130210353373326 5.127997975955447 3.1402446118754885 -1.8931541964429178e-07 -1.5028362437613635e-07 6.280489578464378" Properties=species:S:1:pos:R:3:forces:R:3 energy=-40.164772033691406 free_energy=-40.164772033691406 stress="3.6159948649583384e-05 3.7348087289501564e-08 4.271389286714111e-08 3.7348087289501564e-08 3.611292049754411e-05 9.364335085138009e-09 4.271389286714111e-08 9.364335085138009e-09 3.6044402804691344e-05" pbc="T T T"
Pt       1.81302313       1.28200061       3.14024314       0.00001372       0.00000762      -0.00001158
Pt       5.43906389       3.84599922       9.42073455       0.00000771       0.00000644       0.00000221
Nb       0.00000005       0.00000025       0.00000076      -0.00000568      -0.00000572      -0.00001572
Se       2.01988214       1.42827201       6.28048960       0.00153586       0.00108439      -0.00000025
Se       5.23220121       3.69972537       6.28048846      -0.00153661      -0.00108445      -0.00000335
Se       4.42912225       1.42827173       4.88951401      -0.00077374       0.00109088       0.00134054
Se       2.82296175       3.69972391       7.67146524       0.00076385      -0.00108856      -0.00132468
Se       2.82296134       3.69972572       4.88951403       0.00076814      -0.00109184       0.00133753
Se       4.42912006       1.42827241       7.67146549      -0.00077322       0.00108123      -0.00132471
