9
Lattice="2.167612979565895 -1.3130482830851138 1.1588257122080803 0.3753415765468619 2.5824130341393627 -0.35395222989385794 -0.03659017269166722 -0.20094339228375735 1.6742379137485963" Properties=species:S:1:pos:R:3:forces:R:3 energy=-80883458048.0 free_energy=-80883458048.0 stress="0.0 2288006656.0 103838896.0 2288006656.0 0.0 -2932404992.0 103838896.0 -2932404992.0 0.0" pbc="T T T"
Pt       1.61348101       0.42228137       0.75809146 -17500774400.00000000 116987281408.00000000 -57490792448.00000000
Pt       1.87086874       0.30260801       3.27186427 -3669039616.00000000 1345616896.00000000 41953812480.00000000
Ni       0.63656667       2.52656396      -0.33314008 -49688330240.00000000 -20986175488.00000000 4053564416.00000000
N        1.63783586       0.53088051       2.41439931 9686589440.00000000 -127105695744.00000000 8739079168.00000000
N        1.87691226      -0.68618409       1.18462820 20555333632.00000000 6105764864.00000000 -7757729792.00000000
N        1.51777742       0.18788375       2.43606170 60021415936.00000000 31950618624.00000000 36116525056.00000000
N        0.28295165       1.73901485       2.46019811 11217879040.00000000 17232891904.00000000 1541523968.00000000
N        1.17704938       1.71796433       1.45252178 -30838159360.00000000 18011963392.00000000 -14161732608.00000000
N        1.74819436       1.01696642       2.52941962 215065600.00000000 -43542245376.00000000 -12994235392.00000000
