9
Lattice="1.7685704836812592 -0.6471188914402616 2.628574026055192 0.6652052476891046 1.741624382837926 1.1819141895255092 -0.8882530181094845 -0.5112697019546332 1.959004467825762" Properties=species:S:1:pos:R:3:forces:R:3 energy=-17034771456.0 free_energy=-17034771456.0 stress="0.0 -425762592.0 -43519600.0 -425762592.0 0.0 723466752.0 -43519600.0 723466752.0 0.0" pbc="T T T"
Pt       0.29794777       0.06579635       0.39139651 -1147091456.00000000 -4917878784.00000000 1187015168.00000000
Pt       1.19314764       0.56986850       4.71407385 -21967374336.00000000 9675783168.00000000 2060174592.00000000
Os      -0.09396407       1.57869126       0.09000072 23745167360.00000000 9981007872.00000000 1774716160.00000000
N        0.52722538       0.26867412       3.05693980 2257917952.00000000 10025918464.00000000 1104762368.00000000
N        0.53540160       0.64182128       3.53512511 -1854676480.00000000 1818932608.00000000 -3227691264.00000000
N        0.94174906       2.25634088       3.10809413 -1760879104.00000000 -1965787776.00000000 1391251840.00000000
N       -0.66757409       1.52798905       2.55794685 -6091391488.00000000 -9006704640.00000000 -19557013504.00000000
N        1.56177115       1.77186030       3.23282497 3565531648.00000000 -6176353280.00000000 -1598252032.00000000
N        1.00421554       0.70151945       4.43924899 3252790272.00000000 -9434918912.00000000 16865055744.00000000
