9
Lattice="5.427216827084945 -1.3784260113821104e-08 3.133405037656695 1.8090722830697543 5.116828964631061 3.1334050023736393 8.136902602849511e-08 1.4323829552310144e-08 6.2668099343780925" Properties=species:S:1:pos:R:3:forces:R:3 energy=-35.353050231933594 free_energy=-35.353050231933594 stress="0.00010035607556346804 7.620537978425546e-09 1.0009001627508951e-08 7.620537978425546e-09 0.0001003030629362911 7.068535534671128e-09 1.0009001627508951e-08 7.068535534671128e-09 0.00010039659537142143" pbc="T T T"
Pt       1.80907055       1.27920403       3.13340458      -0.00000626      -0.00001356      -0.00000148
Pt       5.42721721       3.83762299       9.40021401      -0.00000024       0.00000561      -0.00000345
Pd       0.00000013       0.00000016      -0.00000018      -0.00000038       0.00000159       0.00000012
Se       2.06316415       1.45887698       6.26681016      -0.00071934      -0.00050831       0.00000035
Se       5.17312511       3.65795261       6.26681049       0.00071743       0.00051056       0.00000055
Se       4.39563510       1.45887652       4.92015822       0.00036214      -0.00050953      -0.00062072
Se       2.84065464       3.65795294       7.61346245      -0.00035739       0.00051126       0.00062060
Se       2.84065445       3.65795281       4.92015804      -0.00035675       0.00051163      -0.00062004
Se       4.39563536       1.45887689       7.61346215       0.00036079      -0.00050923       0.00062394
