9
Lattice="4.5589108851311515 2.6970674716172424e-08 2.632088427710133 1.5196370030172495 4.298182291284482 2.632088400207462 7.103433747207534e-09 -2.866084819067733e-08 5.264176843116749" Properties=species:S:1:pos:R:3:forces:R:3 energy=-38.349822998046875 free_energy=-38.349822998046875 stress="-0.0005948859034106135 7.015998448878236e-08 -1.1705930802463627e-07 7.015998448878236e-08 -0.0005949382903054357 5.744278652741741e-08 -1.1705930802463627e-07 5.744278652741741e-08 -0.0005953351501375437" pbc="T T T"
Pt       1.51963658       1.07454633       2.63208694       0.00000139       0.00001888      -0.00002710
Pt       4.55891205       3.22363854       7.89626465       0.00002388       0.00003046      -0.00001381
Pd       0.00000091      -0.00000062      -0.00000029      -0.00003900       0.00003041       0.00001475
O        1.58973236       1.12410999       5.26417735       0.00558697       0.00394195       0.00001043
O        4.48881571       3.17407154       5.26417751      -0.00557065      -0.00394656       0.00000754
O        3.76404502       1.12410955       4.00883828      -0.00277861       0.00391687       0.00483847
O        2.31450214       3.17407166       6.51951699       0.00278325      -0.00396799      -0.00484952
O        2.31450283       3.17407190       4.00883643       0.00278946      -0.00395781       0.00484611
O        3.76404398       1.12411020       6.51951677      -0.00279675       0.00393358      -0.00482726
