9
Lattice="5.081111554533406 -2.0919756213584174e-07 2.93358152599772 1.6937038082116602 4.790517273414247 2.933581259376408 2.894781967551674e-07 -1.218510754474493e-07 5.8671625506045" Properties=species:S:1:pos:R:3:forces:R:3 energy=-35.32618713378906 free_energy=-35.32618713378906 stress="-5.920587500440888e-05 -2.93288220376553e-08 -4.1194969213620425e-08 -2.93288220376553e-08 -5.917301314184442e-05 -4.7827334981320746e-08 -4.1194969213620425e-08 -4.7827334981320746e-08 -5.924588913330808e-05" pbc="T T T"
Pt       1.69370622       1.19763060       2.93358016       0.00001675       0.00000910      -0.00000050
Pt       5.08111060       3.59288561       8.80074909      -0.00000623      -0.00001744       0.00003440
Pd       0.00000008      -0.00000002      -0.00000024      -0.00000599      -0.00000251      -0.00001716
S        1.83528804       1.29774552       5.86716339      -0.00045168      -0.00031054       0.00000475
S        4.93952664       3.49277236       5.86716041       0.00044888       0.00032163      -0.00001325
S        4.16346784       1.29774681       4.52298640       0.00022879      -0.00030661      -0.00039655
S        2.61134743       3.49277038       7.21133795      -0.00023046       0.00030965       0.00039566
S        2.61134955       3.49277114       4.52298606      -0.00021896       0.00031602      -0.00040382
S        4.16346616       1.29774526       7.21133818       0.00021929      -0.00031918       0.00039697
