9
Lattice="4.238418572231914 8.640392920215915e-09 2.447052054093985 1.4128061894074775 3.996019364878006 2.4470520705185597 -7.910422138585732e-08 -3.5819218792983154e-08 4.894104245200501" Properties=species:S:1:pos:R:3:forces:R:3 energy=-47.42850875854492 free_energy=-47.42850875854492 stress="-2.5415478376089595e-05 -1.455591416288371e-07 2.535778662604571e-07 -1.455591416288371e-07 -2.564185888331849e-05 2.0639822650991846e-07 2.535778662604571e-07 2.0639822650991846e-07 -2.5442957849008963e-05" pbc="T T T"
Pt       1.41280625       0.99900515       2.44705278      -0.00000149       0.00000491       0.00001231
Pt       4.23841906       2.99701460       7.34115571       0.00001176       0.00000207      -0.00001317
Pd       0.00000010       0.00000015      -0.00000025       0.00000075      -0.00000236       0.00000908
N        1.58437218       1.12032064       4.89410353      -0.00032192      -0.00021893      -0.00001281
N        4.06685258       2.87569935       4.89410450       0.00031656       0.00022507       0.00000819
N        3.44623168       1.12031974       3.81915902       0.00015002      -0.00023633      -0.00027579
N        2.20499206       2.87569857       5.96904989      -0.00015968       0.00022095       0.00027627
N        2.20499159       2.87569869       3.81915884      -0.00016531       0.00022388      -0.00027484
N        3.44623321       1.12032047       5.96904947       0.00016853      -0.00021929       0.00027114
