9
Lattice="3.886180801810976 0.6074390915776489 1.836789937218867 2.4218422702921187 1.564270147176713 1.8978667191255996 0.4780563698450849 -0.4097564780853526 2.3310437408261713" Properties=species:S:1:pos:R:3:forces:R:3 energy=-121682116608.0 free_energy=-121682116608.0 stress="0.0 0.0 454045664.0 0.0 0.0 709226304.0 454045664.0 709226304.0 0.0" pbc="T T T"
Pt       0.37888237      -0.63234884       1.68762542 -18055436288.00000000 -96376627200.00000000 22305212416.00000000
Pt       2.75434769       0.58721831       3.69922024 89158410240.00000000 45508190208.00000000 18355222528.00000000
P       -1.14957738      -1.23638686       0.10306294 -83737346048.00000000 93930430464.00000000 -58314575872.00000000
N        1.79588421       0.40633190       0.84548977 15538426880.00000000 15019002880.00000000 23330641920.00000000
N        2.38294579       1.09818473       1.72155779 2067708928.00000000 -34914029568.00000000 -80710057984.00000000
N        4.59250416       1.45458541       1.91989774 34213339136.00000000 -18623778816.00000000 -106497826816.00000000
N        2.65891507       0.89718279       1.48994970 -68469260288.00000000 13601116160.00000000 -40248856576.00000000
N        0.86042885       0.79580652      -0.46313304 -16102449152.00000000 10921455616.00000000 97068531712.00000000
N        5.03083572       0.94483814       3.69835037 45386723328.00000000 -29065711616.00000000 124711616512.00000000
