9
Lattice="5.491367430849713 1.2469353910448278 1.7370868972248763 2.347279113373413 5.853552832627174 1.8791310626382758 -1.3304016300338557 -0.4712575476260291 5.882890818788156" Properties=species:S:1:pos:R:3:forces:R:3 energy=-64.79621887207031 free_energy=-64.79621887207031 stress="0.00038283041794784367 -0.00014658845611847937 0.000263297843048349 -0.00014658845611847937 0.0002870179887395352 -1.1060733413614798e-05 0.000263297843048349 -1.1060733413614798e-05 0.0005952215869911015" pbc="T T T"
Pt       2.92775429       3.05082480       2.47705905       0.00616091       0.00651431      -0.01727938
Pt       4.86445271       3.64280406       8.75976768      -0.00045842      -0.00033957       0.00476435
Rh      -0.63412537       0.34528494      -0.79431949       0.00446531      -0.00265434       0.00290903
N        3.45715143       1.50146799       3.88473507      -0.01213361       0.01509653       0.05694965
N        3.40463846       5.17072279       4.78076290       0.00555044       0.00159621       0.00830707
N        5.01848937       2.97777753       2.24654753      -0.00639641       0.00399908       0.00078759
N        0.56108433       3.97507446       7.48308582       0.00396505      -0.01425955       0.00823031
N        2.98207249       4.35843068       4.12498193      -0.00958294      -0.00517213      -0.01146978
N        3.45145828       1.49453085       5.03380930       0.00842984      -0.00478014      -0.05319905
