9
Lattice="1.3187620748609492 -0.0872276266327398 0.8904427501048918 -0.2741590596166241 2.6411019607943005 1.1089372423717547 -0.8178448572637556 -0.26325019734075333 3.0542265213510578" Properties=species:S:1:pos:R:3:forces:R:3 energy=-20639023104.0 free_energy=-20639023104.0 stress="0.0 -1922783488.0 1587051520.0 -1922783488.0 0.0 5760567296.0 1587051520.0 5760567296.0 0.0" pbc="T T T"
Pt      -0.20455451       0.37387971       4.69355561 160593166336.00000000 63513313280.00000000 -11308937216.00000000
Pt      -0.74587929       2.65714904       6.07519942 46326489088.00000000 -52422791168.00000000 111809028096.00000000
Ru      -1.01087959       0.73268287       1.80775757 3355793408.00000000 5294962176.00000000 17353957376.00000000
N       -0.83745855       1.61441455       4.99804054 -2460432384.00000000 42456023040.00000000 -21083766784.00000000
N        0.23103021       3.39802614       2.68645146 -40802824192.00000000 -34715389952.00000000 51481153536.00000000
N       -1.04168922       1.73631309       4.68652868 -20121444352.00000000 -18099222528.00000000 35321454592.00000000
N       -1.36790169       3.35786660       4.78618122 -8232091648.00000000 -8416199680.00000000 -22812213248.00000000
N       -0.92027502       4.49808748       2.31235635 -13906808832.00000000 40127787008.00000000 41632063488.00000000
N       -0.30501509       0.21833861       4.88902707 -124751912960.00000000 -37738586112.00000000 -202392698880.00000000
