9
Lattice="4.339681042369698 -1.4642282618221042e-08 2.5055162782304645 1.4465603756194536 4.091490810330072 2.5055162055401508 1.483098058231425e-08 -7.854001134912165e-08 5.0110325307729235" Properties=species:S:1:pos:R:3:forces:R:3 energy=-49.640647888183594 free_energy=-49.640647888183594 stress="-0.0004657824756577611 -5.016014625880416e-08 1.0171897990574053e-08 -5.016014625880416e-08 -0.00046629738062620163 -4.597061931121971e-08 1.0171897990574053e-08 -4.597061931121971e-08 -0.00046571335406042635" pbc="T T T"
Pt       1.44656044       1.02287360       2.50551717       0.00000221       0.00000835       0.00000784
Pt       4.33968110       3.06861805       7.51654934       0.00000311       0.00000325       0.00000835
S       -0.00001358      -0.00001171      -0.00001565      -0.00025254      -0.00022329      -0.00029794
N        1.35664531       0.95929298       5.01103284      -0.00324577      -0.00229043       0.00001476
N        4.42960972       3.13220587       5.01103274       0.00347018       0.00244439       0.00001044
N        3.66136037       0.95929340       3.68040349       0.00165629      -0.00230169      -0.00283712
N        2.12487707       3.13220540       6.34166919      -0.00170910       0.00242931       0.00297850
N        2.12488185       3.13219875       3.68040235      -0.00164005       0.00233185      -0.00285178
N        3.66136359       0.95928634       6.34166871       0.00171426      -0.00240135       0.00296706
