9
Lattice="3.3789467552977586 2.1511700304529344 1.660743594742219 1.8042765978726463 3.1946567294869888 1.273472299424208 0.7622883465735524 -0.2584166781978593 1.8928090321339235" Properties=species:S:1:pos:R:3:forces:R:3 energy=-81229316096.0 free_energy=-81229316096.0 stress="0.0 0.0 3652407296.0 0.0 0.0 28980816.0 3652407296.0 28980816.0 0.0" pbc="T T T"
Pt      -0.50180897      -0.65411078       0.88365304 176355196928.00000000 -128632070144.00000000 -228954947584.00000000
Pt       4.25963526       3.53638312       3.09109648 15168539648.00000000 -2990288896.00000000 -38120521728.00000000
Si      -0.48351801      -0.66632753       0.73310100 -81091108864.00000000 -5087520256.00000000 155525677056.00000000
N        2.01941889       0.90399117       2.86300235 -32559472640.00000000 21144809472.00000000 33390409728.00000000
N        3.40622016       2.73150062       3.52498682 7897670144.00000000 -4753544192.00000000 -3879039232.00000000
N        3.09601949       1.36098950       2.64651289 -170157768704.00000000 102576652288.00000000 -45770891264.00000000
N        1.77685959       2.23302661       3.40318596 41468116992.00000000 824702976.00000000 92937994240.00000000
N        4.05793377       2.77584615       3.16677849 -3945417216.00000000 29667889152.00000000 4645947392.00000000
N        1.58944499       2.35042818       3.09170119 46864375808.00000000 -12750530560.00000000 30225584128.00000000
