9
Lattice="4.470243928039898 1.1718240752027297e-07 2.580896413605912 1.4900813927644587 4.214586302128763 2.5808964604800333 6.856777729528864e-09 6.225735106783355e-08 5.161792815335528" Properties=species:S:1:pos:R:3:forces:R:3 energy=-38.8376350402832 free_energy=-38.8376350402832 stress="1.9701430574059486e-05 -8.045343946605499e-08 4.5018371253036094e-08 -8.045343946605499e-08 2.0106954252696596e-05 3.660467129407152e-08 4.5018371253036094e-08 3.660467129407152e-08 1.929267637024168e-05" pbc="T T T"
Pt       1.49007172       1.05363786       2.58089888      -0.00020035      -0.00018184       0.00005279
Pt       4.47023731       3.16093503       7.74269162      -0.00016350      -0.00012505       0.00004804
Se      -0.00000234      -0.00000185       0.00000010      -0.00005943      -0.00004984       0.00001589
O        1.48669116       1.05124845       5.16179173      -0.00037527      -0.00027108      -0.00002304
O        4.47363613       3.16334081       5.16179280       0.00042689       0.00033712      -0.00001580
O        3.72690374       1.05125208       3.86840677       0.00030851      -0.00021505      -0.00036812
O        2.23342893       3.16334219       6.45517677      -0.00013232       0.00037527       0.00032234
O        2.23343026       3.16334090       3.86840657      -0.00011516       0.00036097      -0.00036287
O        3.72690433       1.05125043       6.45517727       0.00030959      -0.00023109       0.00033069
