9
Lattice="5.117777598021414 -5.714354339488825e-09 2.9547502572133837 1.705926028204245 4.825087375475381 2.9547499669483006 2.926281193474194e-07 -1.4858136305634886e-07 5.9095000075800606" Properties=species:S:1:pos:R:3:forces:R:3 energy=-32.936431884765625 free_energy=-32.936431884765625 stress="-8.416012133238837e-05 1.1679026812316806e-07 -1.102963338439622e-07 1.1679026812316806e-07 -8.459946548100561e-05 -2.0629769892366312e-08 -1.102963338439622e-07 -2.0629769892366312e-08 -8.386596164200455e-05" pbc="T T T"
Pt       1.70591906       1.20627116       2.95475563      -0.00005040       0.00000872       0.00003908
Pt       5.11777558       3.61882292       8.86425213      -0.00002694       0.00004946       0.00002251
Sn       0.00000003       0.00000010      -0.00000027       0.00001175      -0.00000443       0.00000388
S        1.90468203       1.34680758       5.90949900      -0.00021322      -0.00018579      -0.00000213
S        4.91902476       3.47827637       5.90950008       0.00022918       0.00016746       0.00000474
S        4.16544077       1.34681066       4.60425186       0.00014078      -0.00017084      -0.00020072
S        2.65826813       3.47827912       7.21474791      -0.00008781       0.00018497       0.00017539
S        2.65826376       3.47827502       4.60425029      -0.00013338       0.00015302      -0.00019951
S        4.16544152       1.34680602       7.21474417       0.00012994      -0.00020260       0.00015633
