9
Lattice="4.706499119760371 1.225823620802693e-07 2.71729883562876 1.5688331566500733 4.437330225973339 2.71729883362272 1.5055907199158106e-07 1.0400442509063003e-07 5.4345974104815795" Properties=species:S:1:pos:R:3:forces:R:3 energy=-43.86151885986328 free_energy=-43.86151885986328 stress="0.00010650810872903094 -3.7224722859718895e-07 -6.25679945187585e-07 -3.7224722859718895e-07 0.00010541358642512932 -3.5588502100836195e-07 -6.25679945187585e-07 -3.5588502100836195e-07 0.00010546418343437836" pbc="T T T"
Pt       1.56882278       1.10932594       2.71730298      -0.00023528      -0.00015414       0.00010195
Pt       4.70649691       3.32798720       8.15190980      -0.00005725      -0.00024256       0.00030464
Sc      -0.00000017      -0.00000027       0.00000058      -0.00000938      -0.00001626       0.00000219
O        1.65811110       1.17246604       5.43459668      -0.00071132      -0.00040659      -0.00003724
O        4.61721979       3.26486773       5.43459082       0.00068542       0.00048244      -0.00015389
O        3.87744757       1.17246923       4.15326372       0.00044663      -0.00032896      -0.00064173
O        2.39788979       3.26487191       6.71592428      -0.00034171       0.00058115       0.00050169
O        2.39789326       3.26486994       4.15326548      -0.00023755       0.00053263      -0.00060427
O        3.87744868       1.17246417       6.71592587       0.00046046      -0.00044814       0.00052583
