9
Lattice="4.958793279949891 -3.763206021959281e-07 2.862960736507216 1.6529305699330576 4.675194698860114 2.8629610285051985 2.1573373265242639e-07 5.101698724600964e-07 5.725921099352676" Properties=species:S:1:pos:R:3:forces:R:3 energy=-37.0042724609375 free_energy=-37.0042724609375 stress="-0.00037864234764128923 8.183334898603789e-08 4.587443811487901e-07 8.183334898603789e-08 -0.0003778147220145911 1.2956115824636072e-07 4.587443811487901e-07 1.2956115824636072e-07 -0.0003788941539824009" pbc="T T T"
Pt       1.65293948       1.16879212       2.86295686       0.00012676      -0.00006203      -0.00009316
Pt       4.95880842       3.50640598       8.58885349       0.00019552       0.00010179      -0.00034585
Sc      -0.00000087      -0.00000024       0.00000167      -0.00002987      -0.00000469       0.00001949
S        1.79615696       1.27007652       5.72592162       0.00547202       0.00389290       0.00003258
S        4.81556089       3.40512155       5.72593755      -0.00556599      -0.00387308       0.00015438
S        4.06070686       1.27006687       4.41848593      -0.00283387       0.00383360       0.00486117
S        2.55100871       3.40512254       7.03336342       0.00271815      -0.00386386      -0.00474179
S        2.55100355       3.40511860       4.41848546       0.00269426      -0.00390277       0.00484159
S        4.06071229       1.27007540       7.03336542      -0.00277666       0.00387841      -0.00472774
