9
Lattice="4.324275470428055 1.3853506570358452e-07 2.496621214008823 1.4414250994522546 4.076966308542784 2.4966215395811022 -9.623634774136177e-08 3.3069356562036076e-07 4.993242594703961" Properties=species:S:1:pos:R:3:forces:R:3 energy=-41.898494720458984 free_energy=-41.898494720458984 stress="0.00021250425197649747 9.585811255874432e-09 -1.0566791530663977e-07 9.585811255874432e-09 0.00021179868781473488 4.18759036335814e-08 -1.0566791530663977e-07 4.18759036335814e-08 0.0002117799303960055" pbc="T T T"
Pt       1.44143150       1.01924496       2.49662649       0.00014063       0.00004956       0.00010823
Pt       4.32428558       3.05772486       7.48987101       0.00019705       0.00000358       0.00013040
S        0.00000134       0.00000009       0.00000052       0.00003014       0.00000727       0.00003691
O        1.36443925       0.96481162       4.99323975      -0.00408757      -0.00279719      -0.00004387
O        4.40125582       3.11215683       4.99323884       0.00401139       0.00282508      -0.00006011
O        3.64204883       0.96480608       3.67826209       0.00191569      -0.00285774      -0.00353217
O        2.12364411       3.11215939       6.30821975      -0.00207460       0.00283068       0.00342560
O        2.12364470       3.11215869       3.67826333      -0.00206554       0.00281799      -0.00350273
O        3.64205019       0.96480498       6.30821950       0.00193107      -0.00287968       0.00343978
