9
Lattice="2.9281289848692884 0.6339837930692631 -0.2160776785539116 1.1189754127728582 3.637008347083106 1.0348623374511987 0.48682007301122615 0.5933687724062339 1.950921376220267" Properties=species:S:1:pos:R:3:forces:R:3 energy=-253338016.0 free_energy=-253338016.0 stress="89578728.0 22426768.0 6993966.5 22426768.0 76734664.0 -687489.1875 6993966.5 -687489.1875 99003600.0" pbc="T T T"
Pt       0.27580448       0.75240549      -0.78816436 47890576.00000000 175760704.00000000 -58661912.00000000
Pt       3.84393535       2.65326756       0.42140511 85290008.00000000 122549008.00000000 -76696960.00000000
Se       0.70535473      -1.07443146      -1.00288845 145550944.00000000 -630255424.00000000 -634523840.00000000
N        2.38839688       2.85631619      -1.00150933 -7754078.00000000 -5347060.00000000 -182943600.00000000
N        1.98733523       4.22183240      -0.24401734 119987192.00000000 -66891340.00000000 -19007064.00000000
N        2.69607642       0.35081874       0.35033835 -195552832.00000000 -98790152.00000000 -56896864.00000000
N        2.87720280       2.05606834       0.06853496 170773408.00000000 92477760.00000000 23106816.00000000
N        1.87848982       2.58652217      -0.01262236 -79790248.00000000 335305376.00000000 934295616.00000000
N        2.94959910       1.92056834       0.11977494 -286395072.00000000 75191160.00000000 71327392.00000000
