9
Lattice="5.5784593756308825 -4.769270488449469e-08 3.22072510510328 1.8594863361179061 5.259421590076218 3.220725239268964 -2.9292643154463954e-08 1.4360570201076092e-07 6.441450260942904" Properties=species:S:1:pos:R:3:forces:R:3 energy=-32.64078140258789 free_energy=-32.64078140258789 stress="1.615365908946842e-05 3.292052142001012e-08 2.1574399156065738e-08 3.292052142001012e-08 1.615250948816538e-05 -4.5251933755707796e-08 2.1574399156065738e-08 -4.5251933755707796e-08 1.6139727449626662e-05" pbc="T T T"
Pt       1.85948482       1.31485326       3.22072595      -0.00000822      -0.00000961       0.00000409
Pt       5.57846093       3.94456913       9.66217219       0.00000726       0.00001261      -0.00001610
Sn       0.00000010       0.00000008       0.00000021       0.00000113      -0.00000211       0.00000289
Se       2.15862714       1.52637943       6.44145069       0.00094597       0.00066787       0.00000038
Se       5.27931853       3.73304198       6.44145308      -0.00094490      -0.00066842       0.00000792
Se       4.49914546       1.52637803       5.09015146      -0.00047619       0.00066761       0.00082497
Se       2.93880014       3.73304372       7.79274869       0.00047406      -0.00066345      -0.00082225
Se       2.93879928       3.73304248       5.09015177       0.00047169      -0.00066885       0.00082199
Se       4.49914637       1.52637860       7.79274835      -0.00047074       0.00066435      -0.00082386
