9
Lattice="4.259525235007091 -1.9274609594802838e-08 2.4592381107214436 1.4198417316140808 4.015918921989594 2.459238102435332 3.428599870572612e-08 1.4095485366152577e-08 4.918476162057792" Properties=species:S:1:pos:R:3:forces:R:3 energy=-54.68838119506836 free_energy=-54.68838119506836 stress="3.334899520268664e-05 -2.2392018905748046e-08 -9.118897636994916e-09 -2.2392018905748046e-08 3.339040995342657e-05 -5.210626152774012e-09 -9.118897636994916e-09 -5.210626152774012e-09 3.336794543429278e-05" pbc="T T T"
Pt       1.41984199       1.00398012       2.45923776       0.00000146       0.00000216      -0.00000374
Pt       4.25952528       3.01193924       7.37771433       0.00000074       0.00000158      -0.00000088
Ti       0.00000012       0.00000005       0.00000003      -0.00000120       0.00000581      -0.00000048
N        1.53642733       1.08641854       4.91847671      -0.00091630      -0.00064650       0.00000338
N        4.14293945       2.92950045       4.91847617       0.00091630       0.00064874       0.00000147
N        3.49131133       1.08641839       3.78982350       0.00045714      -0.00065121      -0.00079799
N        2.18805540       2.92950022       6.04712903      -0.00045651       0.00064486       0.00079390
N        2.18805547       2.92950040       3.78982328      -0.00045839       0.00064489      -0.00079197
N        3.49131163       1.08641825       6.04712878       0.00045726      -0.00065082       0.00079617
