9
Lattice="5.403492828313992 2.3451734419501362e-07 3.1197079433223167 1.8011644759663168 5.0944616875237045 3.1197079801170227 1.8546614832377184e-07 1.7620847469538076e-07 6.239415565407871" Properties=species:S:1:pos:R:3:forces:R:3 energy=-38.6006965637207 free_energy=-38.6006965637207 stress="-0.0004314911784604192 8.786524574588839e-08 -7.12376149181182e-08 8.786524574588839e-08 -0.00043152045691385865 -1.6684667869526493e-08 -7.12376149181182e-08 -1.6684667869526493e-08 -0.00043148663826286793" pbc="T T T"
Pt       1.80116465       1.27361414       3.11970843       0.00000352      -0.00001092       0.00000498
Pt       5.40349421       3.82084665       9.35912182       0.00000992      -0.00000115      -0.00001175
Ti      -0.00000007       0.00000041      -0.00000024      -0.00000048      -0.00000266       0.00000445
Se       2.00266475       1.41609769       6.23941531       0.00459442       0.00324845      -0.00000300
Se       5.20199208       3.67836464       6.23941671      -0.00459757      -0.00324452       0.00000543
Se       4.40216052       1.41609778       4.85406630      -0.00229989       0.00325024       0.00398344
Se       2.80249677       3.67836495       7.62476498       0.00229791      -0.00324601      -0.00398585
Se       2.80249593       3.67836405       4.85406674       0.00229268      -0.00325072       0.00398475
Se       4.40216115       1.41609807       7.62476585      -0.00230038       0.00325719      -0.00398263
