9
Lattice="4.6104581370712685 5.892829250559486e-08 2.6618490434553483 1.536819413658253 4.3467814705882954 2.661849079696178 4.445523908399318e-09 4.752919083924959e-08 5.32369807921083" Properties=species:S:1:pos:R:3:forces:R:3 energy=-48.08185577392578 free_energy=-48.08185577392578 stress="2.7087769922218286e-05 1.398998534796192e-07 -3.658356284574893e-09 1.398998534796192e-07 2.7192292691324838e-05 -1.6244482026195328e-07 -3.658356284574893e-09 -1.6244482026195328e-07 2.7060621505370364e-05" pbc="T T T"
Pt       1.53681907       1.08668676       2.66184775      -0.00000721      -0.00018387      -0.00002746
Pt       4.61045591       3.26007885       7.98554709      -0.00004595      -0.00015706      -0.00000683
Ti      -0.00000046      -0.00000036       0.00000018       0.00001202      -0.00001640      -0.00000672
O        1.53728946       1.08703037       5.32369742      -0.00290066      -0.00199816      -0.00000023
O        4.60998502       3.25975693       5.32369892       0.00283533       0.00209767       0.00001110
O        3.84181735       1.08703058       3.99318132       0.00148210      -0.00196496      -0.00247854
O        2.30546536       3.25975678       6.65421245      -0.00141457       0.00210127       0.00245535
O        2.30546692       3.25975472       3.99318140      -0.00139558       0.00208622      -0.00248036
O        3.84181180       1.08703192       6.65421841       0.00143480      -0.00196406       0.00253364
