9
Lattice="5.05188013144168 1.9536453417649142e-07 2.916704212357237 1.6839603012655537 4.762958781577032 2.9167040854667796 3.2823345412872105e-08 -1.3219876359077599e-07 5.833408367862706" Properties=species:S:1:pos:R:3:forces:R:3 energy=-40.34614944458008 free_energy=-40.34614944458008 stress="-8.844343392411247e-05 3.778055912562195e-08 9.01735486280586e-09 3.778055912562195e-08 -8.896450890460983e-05 -4.3816747563596437e-08 9.01735486280586e-09 -4.3816747563596437e-08 -8.855033229338005e-05" pbc="T T T"
Pt       1.68396059       1.19073636       2.91671073      -0.00000299      -0.00002520       0.00008621
Pt       5.05187732       3.57222655       8.75011858      -0.00002957       0.00007828       0.00008045
Ti       0.00000007      -0.00000012      -0.00000099       0.00000779      -0.00001306      -0.00001673
S        1.82408017       1.28981546       5.83340758      -0.00058618      -0.00044680      -0.00001210
S        4.91176112       3.47314188       5.83340810       0.00060198       0.00042775      -0.00000732
S        4.13983999       1.28981731       4.49640009       0.00028810      -0.00042450      -0.00054073
S        2.59599973       3.47314254       7.17041133      -0.00029394       0.00043270       0.00048423
S        2.59600123       3.47314084       4.49640047      -0.00028534       0.00041819      -0.00054851
S        4.13984162       1.28981459       7.17041080       0.00030003      -0.00044692       0.00047401
