9
Lattice="4.504819785378924 2.0606145951306385e-07 2.6008588024582697 1.5016067440639818 4.247185127374501 2.600858880987603 -1.1040707846095673e-07 1.8108807136796517e-08 5.201717796147208" Properties=species:S:1:pos:R:3:forces:R:3 energy=-45.915164947509766 free_energy=-45.915164947509766 stress="5.718161446566228e-06 1.127535065315044e-09 1.4627666189426236e-07 1.127535065315044e-09 5.534720003197435e-06 -1.0982937226344802e-08 1.4627666189426236e-07 -1.0982937226344802e-08 5.590539785771398e-06" pbc="T T T"
Pt       1.50160664       1.06180307       2.60085499      -0.00000741       0.00019156      -0.00011352
Pt       4.50482024       3.18539340       7.80257145       0.00001567       0.00012495      -0.00015055
V       -0.00000023      -0.00000005      -0.00000004      -0.00000012      -0.00000040      -0.00000193
O        1.52328171       1.07712175       5.20171811       0.00014108       0.00005001       0.00004049
O        4.48314637       3.17006002       5.20172069      -0.00009018      -0.00014669       0.00007372
O        3.74317978       1.07712031       3.92006180      -0.00005519       0.00001651       0.00017214
O        2.26324625       3.17005941       6.48337837       0.00004825      -0.00017130      -0.00004846
O        2.26324668       3.17006074       3.92005974       0.00003436      -0.00012779       0.00011146
O        3.74317828       1.07712270       6.48337681      -0.00008678       0.00006330      -0.00008243
