9
Lattice="5.047475963962984 -1.934127115515872e-08 2.91416135050656 1.68249200419767 4.758805628152977 2.9141612908457275 8.85541306506413e-08 -1.0452025367883626e-08 5.82832254763296" Properties=species:S:1:pos:R:3:forces:R:3 energy=-41.65247344970703 free_energy=-41.65247344970703 stress="6.658226629951969e-05 4.365281913720764e-09 4.358520300229429e-08 4.365281913720764e-09 6.651692820014432e-05 4.525097629937136e-09 4.358520300229429e-08 4.525097629937136e-09 6.662636587861925e-05" pbc="T T T"
Pt       1.68249201       1.18969789       2.91416300       0.00000211      -0.00002589       0.00002976
Pt       5.04747716       3.56910638       8.74249106       0.00001155       0.00001147       0.00006271
V        0.00000030      -0.00000010       0.00000026      -0.00000566       0.00000155      -0.00001402
S        1.79692309       1.27061656       5.82832081      -0.00132799      -0.00093505      -0.00001477
S        4.93304451       3.48818941       5.82831985       0.00132936       0.00094265      -0.00002062
S        4.14901389       1.27061659       4.47034139       0.00065964      -0.00093588      -0.00116012
S        2.58095349       3.48818966       7.18630146      -0.00066614       0.00094303       0.00113681
S        2.58095419       3.48819043       4.47034179      -0.00066322       0.00094458      -0.00115752
S        4.14901352       1.27061544       7.18630128       0.00066033      -0.00094631       0.00113767
