9
Lattice="3.0260893058562215 -0.23796156471305072 1.0602200687125145 -0.33587192913281083 3.135902889844481 1.0409488593899194 0.5544324448434995 0.1274237154149171 1.8045471989688115" Properties=species:S:1:pos:R:3:forces:R:3 energy=-363424960.0 free_energy=-363424960.0 stress="256015920.0 28097704.0 26668496.0 28097704.0 272382464.0 -16891866.0 26668496.0 -16891866.0 323596608.0" pbc="T T T"
Pt       3.00008089      -1.80837059       1.65219924 230727872.00000000 -59087840.00000000 -227158688.00000000
Pt       5.86759787      -1.00540771       2.86555395 26361328.00000000 -261304544.00000000 59695808.00000000
V        0.06529222      -2.49131947       0.18176122 -144448112.00000000 261854208.00000000 -71075984.00000000
N        2.55198714      -1.83080569       2.95056177 106635696.00000000 -136728208.00000000 135255968.00000000
N        2.56982719       0.67270836       1.82118273 -146473984.00000000 116453104.00000000 -150388400.00000000
N        4.50098246      -1.43956910       1.82224815 -76311040.00000000 -2963552.00000000 -67533920.00000000
N        2.84450044       0.43539330       3.03993647 217650496.00000000 417432160.00000000 -98022560.00000000
N        3.22080796       1.70337228       2.14225498 -315249600.00000000 -309107072.00000000 95110880.00000000
N        3.78822236      -1.49655111       2.41498758 101107216.00000000 -26548192.00000000 324116928.00000000
