9
Lattice="5.3522831498052925 -1.128820663878171e-07 3.090141969276851 1.78409427597791 5.046180944535372 3.090141970773858 1.4439002536148335e-07 1.0393262061085756e-07 6.18028368846285" Properties=species:S:1:pos:R:3:forces:R:3 energy=-39.33688735961914 free_energy=-39.33688735961914 stress="-5.154971586307511e-05 1.0064000832699094e-07 3.6403463354872656e-08 1.0064000832699094e-07 -5.1633716793730855e-05 6.94367656706163e-08 3.6403463354872656e-08 6.94367656706163e-08 -5.145077739143744e-05" pbc="T T T"
Pt       1.78409091       1.26154326       3.09014254      -0.00002472      -0.00001311       0.00000776
Pt       5.35228329       3.78463757       9.27043023      -0.00000084       0.00001136       0.00003473
V       -0.00000011      -0.00000006       0.00000015       0.00000227       0.00000049      -0.00000399
Se       1.97431858       1.39605299       6.18028364       0.00083697       0.00058612      -0.00000133
Se       5.16206041       3.65012647       6.18028162      -0.00082761      -0.00059107      -0.00001437
Se       4.36512533       1.39605353       4.79995089      -0.00041047       0.00058895       0.00072145
Se       2.77125251       3.65012883       7.56061502       0.00041538      -0.00058481      -0.00073555
Se       2.77125439       3.65012908       4.79995098       0.00042412      -0.00058162       0.00072432
Se       4.36512498       1.39605204       7.56061553      -0.00041509       0.00058380      -0.00073296
