9
Lattice="5.42234592804325 -1.0380760813773697e-07 3.1305926425428594 1.8074484075482184 5.112236259449923 3.1305928802878302 1.9276102916076058e-08 3.0480721700773304e-07 6.2611852516985245" Properties=species:S:1:pos:R:3:forces:R:3 energy=-29.989730834960938 free_energy=-29.989730834960938 stress="-2.2207208530744538e-05 -3.657932978740064e-08 -1.0136152361894801e-08 -3.657932978740064e-08 -2.20630900003016e-05 3.1117014742676474e-08 -1.0136152361894801e-08 3.1117014742676474e-08 -2.2162606910569593e-05" pbc="T T T"
Pt       1.80744915       1.27806218       3.13059008       0.00000778       0.00001982      -0.00002166
Pt       5.42234623       3.83417556       9.39177627       0.00000082      -0.00000972      -0.00001187
Zn      -0.00000035      -0.00000023       0.00000023       0.00000238       0.00000145       0.00000294
Se       2.05853603       1.45560534       6.26118622      -0.00299734      -0.00211357       0.00000479
Se       5.17125913       3.65663086       6.26118509       0.00299323       0.00210741       0.00000260
Se       4.39307723       1.45560531       4.91333809       0.00149837      -0.00211762      -0.00258923
Se       2.83671643       3.65662966       7.60903450      -0.00149801       0.00210622       0.00260054
Se       2.83671703       3.65663121       4.91333756      -0.00149913       0.00211479      -0.00258930
Se       4.39307661       1.45560602       7.60903510       0.00149186      -0.00210872       0.00260107
