9
Lattice="4.977163808074531 -4.321473131215042e-07 2.8735667786334322 1.6590541368612148 4.692514944460384 2.87356687978155 -1.0638916175991296e-08 1.1635775651502642e-07 5.747133575694016" Properties=species:S:1:pos:R:3:forces:R:3 energy=-29.47828483581543 free_energy=-29.47828483581543 stress="3.0982042517280206e-05 1.0894088831037152e-07 -4.0567563530657935e-08 1.0894088831037152e-07 3.1375064281746745e-05 -1.6801443791791826e-07 -4.0567563530657935e-08 -1.6801443791791826e-07 3.115434083156288e-05" pbc="T T T"
Pt       1.65906418       1.17313207       2.87356063       0.00014778       0.00004841      -0.00010196
Pt       4.97716665       3.51938756       8.62070098       0.00007123       0.00003425       0.00000393
Zn      -0.00000035       0.00000009       0.00000050      -0.00001180      -0.00000614      -0.00000969
S        1.78859412       1.26472638       5.74713444       0.00005770       0.00003698       0.00000939
S        4.84762056       3.42778837       5.74712986      -0.00009969      -0.00002760      -0.00005245
S        4.08286632       1.26472637       4.42253642      -0.00005451       0.00003719       0.00007564
S        2.55334857       3.42778168       7.07173488      -0.00001541      -0.00012240      -0.00000349
S        2.55335068       3.42778870       4.42253710       0.00001678      -0.00003695       0.00008246
S        4.08286096       1.26472733       7.07173401      -0.00011170       0.00003612      -0.00000307
