9
Lattice="4.7525839130972924 -6.05683421848236e-07 2.7439059854262906 1.5841942041822976 4.48077636538265 2.7439057472223403 1.500104479225791e-08 -2.811316164132327e-07 5.487811944870025" Properties=species:S:1:pos:R:3:forces:R:3 energy=-40.58457946777344 free_energy=-40.58457946777344 stress="-6.001683686918113e-06 2.938576528777048e-07 4.313441337444601e-08 2.938576528777048e-07 -6.024219601385994e-06 1.269146281401845e-07 4.313441337444601e-08 1.269146281401845e-07 -5.918763235968072e-06" pbc="T T T"
Rb       1.58419525       1.12019187       2.74390576       0.00000222       0.00000460       0.00000265
Rb       4.75258328       3.36058345       8.23171851      -0.00000158      -0.00001078      -0.00000582
C        0.00000087      -0.00000000      -0.00000130      -0.00001844       0.00000037       0.00001428
O        1.24391820       0.87958139       5.48781133       0.00012636       0.00010800      -0.00000104
O        5.09286035       3.60119228       5.48781104      -0.00012922      -0.00007576       0.00001615
O        4.13062567       0.87958276       3.82117235      -0.00006893       0.00008571       0.00008011
O        2.20615149       3.60119377       7.15445392       0.00009242      -0.00011319      -0.00012642
O        2.20615266       3.60119431       3.82117014       0.00007159      -0.00011152       0.00012249
O        4.13062540       0.87958154       7.15445345      -0.00007442       0.00011200      -0.00010216
