9
Lattice="5.860746838027625 1.3954884204825145e-07 3.3837036728794905 1.9535825817458754 5.525564969656161 3.383703376983896 1.4571324367256405e-07 -2.593617522200548e-07 6.767407093376201" Properties=species:S:1:pos:R:3:forces:R:3 energy=-35.74427795410156 free_energy=-35.74427795410156 stress="-2.3716871510259807e-05 -3.767618395045247e-08 5.499969191191667e-08 -3.767618395045247e-08 -2.367687011428643e-05 -6.284435016823409e-08 5.499969191191667e-08 -6.284435016823409e-08 -2.3722821424598806e-05" pbc="T T T"
Rb       1.95358214       1.38139082       3.38370381      -0.00000256      -0.00000249       0.00000076
Rb       5.86074707       4.14417362      10.15111066      -0.00000034      -0.00000066       0.00000037
Cr       0.00000115       0.00000066      -0.00000175      -0.00000143      -0.00000059       0.00000267
Se       2.03509688       1.43903096       6.76740744       0.00215904       0.00152653      -0.00000097
Se       5.77923282       4.08653454       6.76740736      -0.00215818      -0.00152460       0.00000028
Se       4.84319813       1.43903060       5.14614852      -0.00107826       0.00152727       0.00186951
Se       2.97113110       4.08653381       8.38866642       0.00108117      -0.00152650      -0.00187140
Se       2.97113092       4.08653343       5.14614889       0.00107951      -0.00152440       0.00186834
Se       4.84319801       1.43903095       8.38866522      -0.00107887       0.00152551      -0.00186957
