9
Lattice="5.607833099282334 8.839103258678163e-08 3.2376840123447352 1.8692775970057005 5.287118002717461 3.237684334663536 -5.253415845130334e-07 2.3285889664184317e-08 6.4753689346078405" Properties=species:S:1:pos:R:3:forces:R:3 energy=-37.76396942138672 free_energy=-37.76396942138672 stress="-0.0003059535811189562 8.792366656962258e-08 -1.3785623309559014e-08 8.792366656962258e-08 -0.00030601362232118845 -3.872363762980058e-08 -1.3785623309559014e-08 -3.872363762980058e-08 -0.0003060251765418798" pbc="T T T"
Rb       1.86927720       1.32177990       3.23768418       0.00000089       0.00000614       0.00000502
Rb       5.60783260       3.96533838       9.71305305       0.00000868       0.00000060       0.00000270
Cr      -0.00000151      -0.00000247      -0.00000062      -0.00000463      -0.00000335      -0.00000216
S        1.82624685       1.29135235       6.47536839       0.00398082       0.00281638       0.00000035
S        5.65086132       3.99576639       6.47536858      -0.00398457      -0.00281805      -0.00000188
S        4.69471056       1.29135133       4.81925997      -0.00199360       0.00281996       0.00345081
S        2.78240196       3.99576629       8.13147738       0.00199339      -0.00282031      -0.00345713
S        2.78240289       3.99576766       4.81926014       0.00198978      -0.00282031       0.00345427
S        4.69470847       1.29135242       8.13147741      -0.00199059       0.00281894      -0.00345224
