9
Lattice="5.410582772921767 7.375127896126497e-08 3.123801691071365 1.8035276221893923 5.101146805446649 3.123801757439845 7.361598749163131e-08 1.3333885264030915e-07 6.247603254635992" Properties=species:S:1:pos:R:3:forces:R:3 energy=-39.54998016357422 free_energy=-39.54998016357422 stress="-0.0001159211533376947 1.914912850509154e-08 -1.486168632602869e-09 1.914912850509154e-08 -0.00011591472866712138 -4.118860807977853e-09 -1.486168632602869e-09 -4.118860807977853e-09 -0.00011597473348956555" pbc="T T T"
Rb       1.80352732       1.27528657       3.12380153       0.00000051       0.00000024       0.00000065
Rb       5.41058294       3.82586035       9.37140477      -0.00000006       0.00000007      -0.00000025
Co      -0.00000053      -0.00000085       0.00000123      -0.00000407      -0.00000072       0.00000954
O        1.45442197       1.02843174       6.24760301      -0.00063419      -0.00044578      -0.00000255
O        5.75968890       4.07271595       6.24760304       0.00062609       0.00044489      -0.00000258
O        4.68337216       1.02843177       4.38336821       0.00031656      -0.00044295      -0.00054741
O        2.53073827       4.07271577       8.11183906      -0.00031209       0.00044492       0.00053966
O        2.53073852       4.07271546       4.38336764      -0.00031093       0.00044352      -0.00054288
O        4.68337238       1.02843138       8.11183871       0.00031829      -0.00044408       0.00054592
