9
Lattice="5.6194416689220095 3.6211967275549356e-07 3.2443866238786163 1.8731472585267241 5.2980594349107175 3.2443871536386366 -2.9466844846576167e-07 4.404587635188758e-07 6.488773758137911" Properties=species:S:1:pos:R:3:forces:R:3 energy=-31.97215461730957 free_energy=-31.97215461730957 stress="-0.0003275299386586994 -3.4945450977375003e-09 4.041113665920193e-09 -3.4945450977375003e-09 -0.0003277166106272489 -6.72659226097494e-08 4.041113665920193e-09 -6.72659226097494e-08 -0.00032763415947556496" pbc="T T T"
Rb       1.87314728       1.32451308       3.24438504      -0.00001480      -0.00004006      -0.00004687
Rb       5.61944082       3.97354201       9.73315822      -0.00002047      -0.00001838      -0.00005310
C        0.00003256       0.00006851       0.00010488       0.00105805       0.00216212       0.00336624
S        1.69904590       1.20140659       6.48877286      -0.00356615      -0.00254834      -0.00006082
S        5.79349796       4.09661715       6.48877044       0.00204420       0.00141847      -0.00006406
S        4.76992318       1.20140001       4.71579557       0.00194508      -0.00281298      -0.00345826
S        2.72269747       4.09660929       8.26168980      -0.00085956       0.00114524       0.00139123
S        2.72267232       4.09664791       4.71580718      -0.00169647       0.00233495      -0.00296539
S        4.76989766       1.20143612       8.26170598       0.00110942      -0.00164133       0.00189096
