9
Lattice="6.9297662117406205 3.483349616334542e-08 4.000902307324373 2.309922078279739 6.533446156769524 4.000902350871232 -5.850153885997825e-08 1.1966908265856004e-08 8.001804715976412" Properties=species:S:1:pos:R:3:forces:R:3 energy=-32.35504913330078 free_energy=-32.35504913330078 stress="-0.00020762883650604635 -7.466840479253278e-09 -4.499670858137961e-09 -7.466840479253278e-09 -0.00020762532949447632 8.264766648835575e-09 -4.499670858137961e-09 8.264766648835575e-09 -0.00020760051847901195" pbc="T T T"
Rb       2.30992213       1.63336157       4.00090239       0.00000008      -0.00000027       0.00000024
Rb       6.92976614       4.90008463      12.00270702      -0.00000017       0.00000012      -0.00000009
Cr       0.00000003       0.00000002      -0.00000023       0.00000177       0.00000030      -0.00000170
Te       2.10780412       1.49044275       8.00180486      -0.00344290      -0.00243352       0.00000119
Te       7.13188403       5.04300348       8.00180485       0.00344171       0.00243302       0.00000199
Te       5.87586401       1.49044254       5.82631408       0.00172159      -0.00243513      -0.00298234
Te       3.36382432       5.04300366      10.17729516      -0.00172102       0.00243457       0.00298209
Te       3.36382423       5.04300362       5.82631419      -0.00172228       0.00243451      -0.00298273
Te       5.87586395       1.49044255      10.17729518       0.00172124      -0.00243361       0.00298133
