9
Lattice="5.819937920269814 -8.911593429754678e-08 3.360142393008469 1.9399790751830228 5.487090210201036 3.360142648579705 -2.6451043308335875e-07 1.2597241947756037e-07 6.7202852441624845" Properties=species:S:1:pos:R:3:forces:R:3 energy=-33.300262451171875 free_energy=-33.300262451171875 stress="-2.860714175767498e-06 -3.5314646762429902e-09 3.828587669119088e-09 -3.5314646762429902e-09 -2.823028808052186e-06 -2.415879585271341e-08 3.828587669119088e-09 -2.415879585271341e-08 -2.877951146729174e-06" pbc="T T T"
Rb       1.93997885       1.37177273       3.36014281       0.00000176       0.00000104      -0.00000139
Rb       5.81993754       4.11531764      10.08042815      -0.00000223      -0.00000095      -0.00000142
Co      -0.00000002      -0.00000060      -0.00000012       0.00000065       0.00000165      -0.00000112
Se       1.91890967       1.35687411       6.72028464       0.00153124       0.00108298       0.00000213
Se       5.84100685       4.13021659       6.72028497      -0.00153121      -0.00108397       0.00000071
Se       4.86048332       1.35687321       5.02196639      -0.00076634       0.00108468       0.00132623
Se       2.89943377       4.13021654       8.41860326       0.00076640      -0.00108451      -0.00132476
Se       2.89943424       4.13021671       5.02196732       0.00076584      -0.00108446       0.00132589
Se       4.86048259       1.35687399       8.41860368      -0.00076608       0.00108362      -0.00132640
