9
Lattice="7.002135898017251 -7.714745145057188e-07 4.042685749334043 2.334044809082867 6.601676857233498 4.042685338670001 8.067073718914128e-07 6.746973563670339e-08 8.085370101410053" Properties=species:S:1:pos:R:3:forces:R:3 energy=-31.05652618408203 free_energy=-31.05652618408203 stress="-2.0521547412499785e-05 -5.9023740561769955e-08 1.534142768377933e-08 -5.9023740561769955e-08 -2.0513989511528052e-05 -3.171312457084241e-08 1.534142768377933e-08 -3.171312457084241e-08 -2.044804932666011e-05" pbc="T T T"
Rb       2.33404531       1.65041884       4.04268565      -0.00000006      -0.00000011      -0.00000000
Rb       7.00213665       4.95125785      12.12805507      -0.00000034       0.00000011       0.00000069
Co      -0.00000173      -0.00000243      -0.00000328       0.00002606       0.00002553       0.00003541
Te       1.94266479       1.37367150       8.08537037       0.00123852       0.00087618       0.00000003
Te       7.39351927       5.22800654       8.08537063      -0.00126566      -0.00089601      -0.00000188
Te       6.03080364       1.37367096       5.72508325      -0.00061805       0.00087514       0.00106977
Te       3.30537673       5.22800571      10.44565985       0.00062766      -0.00089043      -0.00108945
Te       3.30537786       5.22800456       5.72508371       0.00061796      -0.00087483       0.00106946
Te       6.03080386       1.37367114      10.44565950      -0.00062611       0.00088450      -0.00108401
