9
Lattice="5.659171946793339 -3.513922642036844e-08 3.267324258157707 1.8863906296638835 5.335518085672996 3.267324234147418 -4.3197138187376303e-07 -3.348565416881726e-07 6.5346492645119785" Properties=species:S:1:pos:R:3:forces:R:3 energy=-35.60480499267578 free_energy=-35.60480499267578 stress="-7.71788545534946e-05 -4.4972082946515e-08 5.92010795941178e-09 -4.4972082946515e-08 -7.720735447946936e-05 -3.17530512994324e-09 5.92010795941178e-09 -3.17530512994324e-09 -7.71812119637616e-05" pbc="T T T"
Rb       1.88639138       1.33387948       3.26732426      -0.00000155       0.00000026      -0.00000006
Rb       5.65917116       4.00163854       9.80197451       0.00000270      -0.00000317      -0.00000382
Co      -0.00000308       0.00000211      -0.00000225       0.00000069      -0.00000067       0.00000129
S        1.78727825       1.26379617       6.53464903       0.00192529       0.00136372       0.00000036
S        5.75828434       4.07172150       6.53464899      -0.00192797      -0.00136310       0.00000149
S        4.76553225       1.26379657       4.81515394      -0.00096121       0.00136197       0.00166821
S        2.78003037       4.07172013       8.25414388       0.00096363      -0.00136253      -0.00166923
S        2.78003037       4.07172064       4.81515435       0.00096083      -0.00136134       0.00166875
S        4.76553312       1.26379595       8.25414409      -0.00096276       0.00136471      -0.00166649
