9
Lattice="5.556712499791322 4.2183226401608083e-07 3.208169903654359 1.8522373449497296 5.238920820031319 3.208170860938087 -3.739036209593399e-07 9.080386046113529e-07 6.416340454929215" Properties=species:S:1:pos:R:3:forces:R:3 energy=-45.40449523925781 free_energy=-45.40449523925781 stress="2.5621806344133802e-05 2.2412342204347624e-08 1.1140242506257891e-08 2.2412342204347624e-08 2.5437717340537347e-05 1.0066454336765673e-07 1.1140242506257891e-08 1.0066454336765673e-07 2.539757224440109e-05" pbc="T T T"
Rb       1.85223649       1.30973051       3.20817034      -0.00000101       0.00000226       0.00000094
Rb       5.55671077       3.92919187       9.62451051       0.00000302      -0.00000119      -0.00000199
Cr      -0.00000222       0.00000346      -0.00000482       0.00001369      -0.00001058       0.00002760
O        1.45720423       1.03040001       6.41634133       0.00174254       0.00122672       0.00000674
O        5.95174711       4.20852177       6.41634178      -0.00174701      -0.00123864       0.00000424
O        4.82811079       1.03039826       4.47014711      -0.00086614       0.00122589       0.00150871
O        2.58083919       4.20852211       8.36253612       0.00087580      -0.00123888      -0.00150782
O        2.58083903       4.20852137       4.47014634       0.00086421      -0.00121844       0.00149530
O        4.82811109       1.03039971       8.36253464      -0.00088608       0.00125325      -0.00153226
