9
Lattice="5.705297232986862 1.9796502398453357e-07 3.293955791764235 1.9017657794464127 5.379005725659865 3.29395605421459 -4.198207632995616e-07 2.457668246199918e-08 6.587912310679346" Properties=species:S:1:pos:R:3:forces:R:3 energy=-37.44596481323242 free_energy=-37.44596481323242 stress="0.00010664207366062328 1.283361683590556e-07 -8.564472686600766e-09 1.283361683590556e-07 0.00010654585639713332 1.3802641696258888e-08 -8.564472686600766e-09 1.3802641696258888e-08 0.00010654483048710972" pbc="T T T"
Rb       1.90176525       1.34475120       3.29395632      -0.00000405       0.00000007       0.00000014
Rb       5.70529696       4.03425455       9.88186805       0.00000156       0.00000210      -0.00000146
Fe       0.00000072       0.00000022      -0.00000094      -0.00000249      -0.00000900       0.00002177
S        1.80256897       1.27460890       6.58791167      -0.00224245      -0.00158685       0.00000107
S        5.80449404       4.10439830       6.58791137       0.00224870       0.00158644       0.00000150
S        4.80401328       1.27460848       4.85502553       0.00112137      -0.00158590      -0.00193858
S        2.80304899       4.10439703       8.32079908      -0.00111505       0.00157994       0.00193495
S        2.80304975       4.10439720       4.85502649      -0.00112298       0.00158834      -0.00194585
S        4.80401251       1.27460833       8.32079948       0.00111553      -0.00157499       0.00192624
