9
Lattice="7.103967127302251 -3.8917325748898645e-07 4.10147711809766 2.367988676882754 6.697684802284875 4.1014771157340775 1.6242110848873255e-07 1.1195417986392745e-07 8.2029539548738" Properties=species:S:1:pos:R:3:forces:R:3 energy=-33.246707916259766 free_energy=-33.246707916259766 stress="3.317114897072315e-05 -5.635757815980469e-08 1.3438148371847092e-08 -5.635757815980469e-08 3.3204858482349664e-05 -4.1454548238561983e-08 1.3438148371847092e-08 -4.1454548238561983e-08 3.331271364004351e-05" pbc="T T T"
Rb       2.36798900       1.67442095       4.10147687       0.00000033      -0.00000030       0.00000038
Rb       7.10396694       5.02326354      12.30443119      -0.00000030       0.00000031      -0.00000022
Fe       0.00000067       0.00000076      -0.00000220      -0.00000771      -0.00002086       0.00005007
Te       1.93400917       1.36755128       8.20295441      -0.00022092      -0.00015601       0.00000047
Te       7.53794689       5.33013339       8.20295378       0.00023554       0.00016645      -0.00000115
Te       6.13696142       1.36755254       5.77637786       0.00012309      -0.00017288      -0.00021572
Te       3.33499338       5.33013266      10.62953133      -0.00011268       0.00015832       0.00019693
Te       3.33499469       5.33013174       5.77637848      -0.00012825       0.00018223      -0.00022621
Te       6.13696164       1.36755123      10.62953108       0.00011094      -0.00015727       0.00019546
