9
Lattice="5.554025232108343 8.797109279664611e-08 3.2066180116648537 1.8513417079354784 5.236385653921619 3.2066182178491807 -5.5812110461146646e-08 2.1305803475467178e-07 6.4132361199992465" Properties=species:S:1:pos:R:3:forces:R:3 energy=-41.186439514160156 free_energy=-41.186439514160156 stress="7.32403204892762e-05 -2.1034489705584747e-08 5.2448029919105466e-08 -2.1034489705584747e-08 7.324260513996705e-05 -2.7193646445766717e-08 5.2448029919105466e-08 -2.7193646445766717e-08 7.315621041925624e-05" pbc="T T T"
Rb       1.85134156       1.30909631       3.20661841      -0.00000055      -0.00000125      -0.00000036
Rb       5.55402513       3.92728925       9.61985420       0.00000011      -0.00000048       0.00000079
Fe      -0.00000057      -0.00000017      -0.00000014       0.00000523       0.00000440       0.00000401
O        1.44992327       1.02525108       6.41323613       0.00015864       0.00011347      -0.00000085
O        5.95544396       4.21113534       6.41323626      -0.00016624      -0.00011593      -0.00000027
O        4.82906349       1.02525079       4.46228877      -0.00008057       0.00011514       0.00013983
O        2.57630339       4.21113529       8.36418392       0.00008418      -0.00011787      -0.00014275
O        2.57630353       4.21113490       4.46228881       0.00007837      -0.00011019       0.00013533
O        4.82906351       1.02525088       8.36418359      -0.00007908       0.00011280      -0.00013626
