9
Lattice="5.924749757827455 1.0672407419251103e-07 3.4206562107124245 1.9749165150000654 5.585907770970981 3.4206565078679074 -1.494118631890501e-07 2.582897243864944e-07 6.841312680213625" Properties=species:S:1:pos:R:3:forces:R:3 energy=-35.578033447265625 free_energy=-35.578033447265625 stress="8.952978532761335e-06 3.7563612664825996e-08 -3.343317445114735e-08 3.7563612664825996e-08 8.930453986977227e-06 1.9554407870714385e-08 -3.343317445114735e-08 1.9554407870714385e-08 8.924365829443559e-06" pbc="T T T"
Rb       1.97491644       1.39647713       3.42065566       0.00000004      -0.00000107       0.00000042
Rb       5.92474922       4.18943102      10.26196968      -0.00000101      -0.00000014      -0.00000045
Fe       0.00000028      -0.00000074       0.00000084      -0.00000054       0.00001557      -0.00001802
Se       1.87744085       1.32755213       6.84131238       0.00725132       0.00512689       0.00000086
Se       6.02222591       4.25835677       6.84131251      -0.00725898      -0.00513119       0.00000141
Se       4.98602895       1.32755029       5.04656785      -0.00362915       0.00513354       0.00628579
Se       2.91363661       4.25835740       8.63605765       0.00362839      -0.00513196      -0.00628495
Se       2.91363601       4.25835634       5.04656763       0.00363599      -0.00513917       0.00629580
Se       4.98602955       1.32755152       8.63605817      -0.00362587       0.00512755      -0.00628093
