9
Lattice="5.927427564813174 1.4625139041795874e-07 3.422201745185831 1.9758093105323788 5.588432174244291 3.4222017722506313 7.417954788422098e-08 8.560018666065743e-08 6.844403361889021" Properties=species:S:1:pos:R:3:forces:R:3 energy=-32.01296615600586 free_energy=-32.01296615600586 stress="1.0131762792298105e-05 -1.5674165965151587e-08 3.0581784216110464e-08 -1.5674165965151587e-08 1.0098664461111184e-05 -6.277700492773874e-08 3.0581784216110464e-08 -6.277700492773874e-08 1.0054893209598958e-05" pbc="T T T"
Rb       1.97580914       1.39710848       3.42220195       0.00000008      -0.00000184      -0.00000113
Rb       5.92742810       4.19132412      10.26660481      -0.00000131       0.00000041       0.00000158
Ge      -0.00000006      -0.00000009       0.00000031      -0.00000689       0.00000431      -0.00000448
S        1.91319977       1.35283650       6.84440333      -0.00046659      -0.00032949       0.00000067
S        5.99003765       4.23559562       6.84440335       0.00046819       0.00033331      -0.00000043
S        4.97082773       1.35283704       5.07908092       0.00023365      -0.00033092      -0.00040644
S        2.93240903       4.23559576       8.60972575      -0.00023228       0.00032938       0.00040311
S        2.93240919       4.23559536       5.07908140      -0.00023407       0.00033146      -0.00040507
S        4.97082730       1.35283709       8.60972533       0.00023881      -0.00033683       0.00041234
