9
Lattice="5.95798252918673 9.502380740118499e-08 3.4398426678432745 1.9859942088444607 5.617240347592352 3.439842766813402 -6.971635230484567e-08 7.191628033544375e-08 6.879685456438883" Properties=species:S:1:pos:R:3:forces:R:3 energy=-30.448312759399414 free_energy=-30.448312759399414 stress="-6.543185736518353e-05 2.3551434136237503e-09 3.3811510036230175e-08 2.3551434136237503e-09 -6.548478995682672e-05 -7.000856339089978e-09 3.3811510036230175e-08 -7.000856339089978e-09 -6.541184848174453e-05" pbc="T T T"
Rb       1.98599435       1.40430998       3.43984264       0.00000127      -0.00000179       0.00000043
Rb       5.95798246       4.21293062      10.31952804      -0.00000095       0.00000046       0.00000282
Ge      -0.00000013      -0.00000029       0.00000016      -0.00000410      -0.00000168      -0.00000219
Se       2.03466133       1.43872445       6.87968519       0.00437555       0.00309150      -0.00000011
Se       5.90931463       4.17851552       6.87968566      -0.00437179      -0.00308692      -0.00000168
Se       4.94065188       1.43872414       5.20191211      -0.00218667       0.00309238       0.00378585
Se       3.00332517       4.17851693       8.55745884       0.00218615      -0.00309084      -0.00378662
Se       3.00332520       4.17851606       5.20191199       0.00218599      -0.00309096       0.00378600
Se       4.94065187       1.43872448       8.55745898      -0.00218554       0.00308785      -0.00378445
