9
Lattice="6.515085388831014 9.299707376640675e-07 3.761485977189946 2.1716957355420092 6.142482149019996 3.7614864463212285 -2.74143203322089e-07 3.8071777429696145e-07 7.522972429209718" Properties=species:S:1:pos:R:3:forces:R:3 energy=-28.344099044799805 free_energy=-28.344099044799805 stress="-0.00013473990838974714 2.2798111842803337e-08 3.103842161067405e-08 2.2798111842803337e-08 -0.0001347719953628257 4.198800951371595e-08 3.103842161067405e-08 4.198800951371595e-08 -0.00013481506903190166" pbc="T T T"
Rb       2.17169496       1.53562070       3.76148667      -0.00000069       0.00000084       0.00000226
Rb       6.51508540       4.60686323      11.28445783       0.00000054       0.00000018      -0.00000066
Ge       0.00000170       0.00000171       0.00000283      -0.00000316       0.00000125       0.00000128
Te       2.43057695       1.71867795       7.52297493      -0.00445235      -0.00314915       0.00000090
Te       6.25620192       4.42380568       7.52297197       0.00444928       0.00314546      -0.00000080
Te       5.29979976       1.71867729       5.86642410       0.00222711      -0.00314835      -0.00385648
Te       3.38698288       4.42380357       9.17951690      -0.00222283       0.00314669       0.00385505
Te       3.38698351       4.42380651       5.86642488      -0.00222415       0.00314979      -0.00385633
Te       5.29979612       1.71867707       9.17951921       0.00222626      -0.00314674       0.00385489
