9
Lattice="6.134465773000125 1.6221028253718823e-07 3.541735019787768 2.0448215340582125 5.783631000282618 3.5417359606523378 -6.206305407314997e-07 7.134671822356019e-07 7.083471114539084" Properties=species:S:1:pos:R:3:forces:R:3 energy=-38.33026123046875 free_energy=-38.33026123046875 stress="-5.56899030925706e-05 -1.460863785496258e-07 -3.6817592530269394e-08 -1.460863785496258e-07 -5.5615986639168113e-05 3.1669515010435134e-08 -3.6817592530269394e-08 3.1669515010435134e-08 -5.5492946557933465e-05" pbc="T T T"
Rb       2.04482181       1.44590764       3.54173573      -0.00000179       0.00000159      -0.00000229
Rb       6.13446500       4.33772401      10.62520654      -0.00000113      -0.00000112      -0.00000178
Hf      -0.00000121      -0.00000269      -0.00000175       0.00000644       0.00001249       0.00000769
Se       2.19426606       1.55158011       7.08347132      -0.00196483      -0.00138911      -0.00000149
Se       5.98502228       4.23205340       7.08347130       0.00196360       0.00138500      -0.00000088
Se       5.03733190       1.55158203       5.44202723       0.00098516      -0.00139476      -0.00170926
Se       3.14195413       4.23205053       8.72491467      -0.00098691       0.00139298       0.00170999
Se       3.14195525       4.23204973       5.44202717      -0.00098476       0.00138876      -0.00170681
Se       5.03733144       1.55158280       8.72491595       0.00098418      -0.00139584       0.00170467
