9
Lattice="6.582176131946017 -1.1862200273937495e-06 3.800223424178775 2.194057436871954 6.205737732238935 3.800223693335143 -1.9405804765897042e-07 1.9242824144052684e-07 7.600447184475774" Properties=species:S:1:pos:R:3:forces:R:3 energy=-36.449249267578125 free_energy=-36.449249267578125 stress="-7.44055796531029e-05 -1.7270173202632577e-07 4.567642264419192e-09 -1.7270173202632577e-07 -7.440667104674503e-05 -1.227969015360486e-08 4.567642264419192e-09 -1.227969015360486e-08 -7.438092870870605e-05" pbc="T T T"
Rb       2.19405756       1.55143356       3.80022343      -0.00000544       0.00000166       0.00000047
Rb       6.58217617       4.65430337      11.40067092       0.00000448      -0.00000123      -0.00000082
Hf       0.00000010      -0.00000098       0.00000049       0.00000028       0.00000354      -0.00000230
Te       2.36542011       1.67260075       7.60044673       0.00299466       0.00212505      -0.00000013
Te       6.41081277       4.53313715       7.60044695      -0.00299440      -0.00213024       0.00000093
Te       5.39946323       1.67260531       5.84873548      -0.00148757       0.00211182       0.00259542
Te       3.37677049       4.53313139       9.35215895       0.00148736      -0.00211161      -0.00259018
Te       3.37677084       4.53313082       5.84873536       0.00148685      -0.00211057       0.00259131
Te       5.39946256       1.67260566       9.35215922      -0.00148625       0.00211164      -0.00259475
