9
Lattice="5.66659931221003 -1.9060114634156884e-07 3.271612667703916 1.8888663573380537 5.342520438628793 3.2716124951307224 3.066519694341187e-08 -1.8967449440790222e-07 6.543225282293981" Properties=species:S:1:pos:R:3:forces:R:3 energy=-50.105125427246094 free_energy=-50.105125427246094 stress="8.389044523937628e-06 1.2107510549697054e-08 -1.288842477187302e-09 1.2107510549697054e-08 8.438219083473086e-06 -6.318955314554842e-08 -1.288842477187302e-09 -6.318955314554842e-08 8.375621291634161e-06" pbc="T T T"
Rb       1.88886645       1.33563053       3.27161251       0.00000123      -0.00000040      -0.00000407
Rb       5.66659918       4.00689059       9.81483856      -0.00000149       0.00000468       0.00000035
Hf      -0.00000023       0.00000011      -0.00000018      -0.00000245       0.00000974       0.00000076
O        1.66321205       1.17606832       6.54322523       0.00021058       0.00014752       0.00000119
O        5.89225385       4.16645134       6.54322492      -0.00021315      -0.00015190       0.00000057
O        4.83499347       1.17606813       4.71199690      -0.00010642       0.00015017       0.00018233
O        2.72047229       4.16645178       8.37445406       0.00010711      -0.00015545      -0.00019032
O        2.72047232       4.16645171       4.71199620       0.00010872      -0.00015211       0.00018865
O        4.83499354       1.17606791       8.37445370      -0.00010395       0.00014788      -0.00017923
