9
Lattice="5.945267585933974 -6.047183747049213e-07 3.432500343525298 1.9817556059257355 5.605249958197034 3.4324997995195394 -5.6021606340037926e-08 -7.05881777087114e-07 6.865000784082667" Properties=species:S:1:pos:R:3:forces:R:3 energy=-40.30412292480469 free_energy=-40.30412292480469 stress="-0.0002716256713028997 5.960877302868539e-08 2.7040698569180677e-08 5.960877302868539e-08 -0.0002716236631385982 -9.700966696613023e-10 2.7040698569180677e-08 -9.700966696613023e-10 -0.0002716194139793515" pbc="T T T"
Rb       1.98175602       1.40131220       3.43250057       0.00000299       0.00000061       0.00000081
Rb       5.94526726       4.20393653      10.29750018      -0.00000082      -0.00000150      -0.00000175
Hf      -0.00000055       0.00000056      -0.00000049       0.00000214      -0.00000512       0.00000274
S        2.04574071       1.44655614       6.86500181       0.00406030       0.00287205      -0.00000286
S        5.88128263       4.15869139       6.86500061      -0.00406191      -0.00287096       0.00000049
S        4.92239825       1.44655570       5.20416298      -0.00203274       0.00287734       0.00352374
S        3.00462579       4.15869297       8.52583688       0.00202975      -0.00287412      -0.00352103
S        3.00462628       4.15869430       5.20416367       0.00203165      -0.00287376       0.00351739
S        4.92239658       1.44655442       8.52583711      -0.00203119       0.00287551      -0.00351956
