9
Lattice="5.5872444034804385 2.3737902690629694e-07 3.225797329172962 1.8624149857692471 5.267704924866722 3.2257973970589724 -7.048718640974504e-08 3.3301073812462914e-08 6.451594780433321" Properties=species:S:1:pos:R:3:forces:R:3 energy=-46.40491485595703 free_energy=-46.40491485595703 stress="1.4342956092150416e-05 -7.603886409413008e-09 6.957608889024414e-08 -7.603886409413008e-09 1.4378132618730888e-05 -3.1817130263789295e-08 6.957608889024414e-08 -3.1817130263789295e-08 1.4435026969294995e-05" pbc="T T T"
Rb       1.86241503       1.31692612       3.22579749       0.00000016      -0.00000051       0.00000045
Rb       5.58724439       3.95077902       9.67739211       0.00000034       0.00000006       0.00000108
Ir      -0.00000020      -0.00000007      -0.00000038      -0.00000771       0.00001144      -0.00000127
O        1.53253290       1.08366440       6.45159466       0.00273335       0.00193352       0.00000015
O        5.91712615       4.18404056       6.45159471      -0.00273490      -0.00193065      -0.00000017
O        4.82097841       1.08366485       4.55301040      -0.00136489       0.00193048       0.00236046
O        2.62868122       4.18404071       8.35017944       0.00136983      -0.00193554      -0.00237352
O        2.62868090       4.18404045       4.55301023       0.00136787      -0.00193459       0.00236976
O        4.82097784       1.08366496       8.35017911      -0.00136393       0.00192606      -0.00235844
