9
Lattice="5.7058161439416315 8.11509006457246e-07 3.2942537867623147 1.9019393424651474 5.3794946072044985 3.2942540245383114 -3.7307442189945983e-07 2.7411488599439853e-08 6.5885082197085385" Properties=species:S:1:pos:R:3:forces:R:3 energy=-36.948299407958984 free_energy=-36.948299407958984 stress="1.7542712157592177e-05 -1.5079820059327176e-08 1.840523644602854e-08 -1.5079820059327176e-08 1.7525120711070485e-05 -1.1762422147398865e-08 1.840523644602854e-08 -1.1762422147398865e-08 1.7539598047733307e-05" pbc="T T T"
Rb       1.90193788       1.34487398       3.29425394      -0.00000021       0.00000194      -0.00000142
Rb       5.70581569       4.03462128       9.88276191       0.00000104       0.00000050      -0.00000331
Ir       0.00000300      -0.00000066       0.00000613       0.00000202      -0.00000035       0.00000654
S        1.91991582       1.35758628       6.58850707      -0.00376248      -0.00266165       0.00000109
S        5.68783950       4.02191001       6.58850647       0.00376350       0.00266224       0.00000065
S        4.74585776       1.35758649       4.95694912       0.00188184      -0.00266236      -0.00326031
S        2.86189776       4.02190886       8.22006463      -0.00188267       0.00266016       0.00325900
S        2.86189720       4.02190902       4.95695001      -0.00188497       0.00266093      -0.00326180
S        4.74585592       1.35758657       8.22006457       0.00188157      -0.00266141       0.00325972
