9
Lattice="5.916517693734977 -2.7561245655905488e-05 3.4159226024158396 1.972146167843264 5.578205260860563 3.415923315523189 -1.0960317420198258e-06 9.836187180297987e-08 6.831847103216996" Properties=species:S:1:pos:R:3:forces:R:3 energy=-35.24034881591797 free_energy=-35.24034881591797 stress="-1.8266492816110258e-06 -4.184006229479564e-06 -2.2050956616226358e-08 -4.184006229479564e-06 2.0443028461158974e-06 7.726373496552696e-08 -2.2050956616226358e-08 7.726373496552696e-08 4.1922849050024524e-06" pbc="T T T"
Rb       1.97216624       1.39454147       3.41591659       0.00007598      -0.00014531       0.00004166
Rb       5.91650374       4.18361359      10.24776006       0.00003394      -0.00003435       0.00002040
Ir      -0.00009434       0.00005732       0.00001541       0.00041688       0.00001950      -0.00007491
Se       2.04934540       1.44903461       6.83186178      -0.00182021      -0.00113991      -0.00003499
Se       5.83944820       4.12909551       6.83183124       0.00133763       0.00110352       0.00001150
Se       4.89185236       1.44910746       5.19075613       0.00089160      -0.00130999      -0.00168647
Se       2.99679361       4.12906810       8.47304469      -0.00094355       0.00146014       0.00158859
Se       2.99678479       4.12907896       5.19065705      -0.00090325       0.00139951      -0.00157471
Se       4.89185699       1.44911198       8.47293436       0.00091097      -0.00135309       0.00170892
