9
Lattice="7.0103320501555135 2.9192961388093962e-06 4.047417826066166 2.336780816917442 6.609404407244404 4.04741658847002 2.662600661086749e-06 3.6700314723888174e-07 8.094831040373554" Properties=species:S:1:pos:R:3:forces:R:3 energy=-32.80080032348633 free_energy=-32.80080032348633 stress="-6.547885277541354e-05 2.533136012061732e-07 -1.1855354387080297e-07 2.533136012061732e-07 -6.568029493791983e-05 -1.873691672926725e-07 -1.1855354387080297e-07 -1.873691672926725e-07 -6.612521974602714e-05" pbc="T T T"
Rb       2.33677880       1.65235209       4.04741674       0.00000116       0.00000036       0.00000138
Rb       7.01033675       4.95705589      12.14224822      -0.00000099      -0.00000092      -0.00000055
Mn       0.00000090       0.00000005      -0.00000080      -0.00003111      -0.00000165      -0.00001458
Te       2.02026229       1.42853835       8.09483842       0.00228795       0.00161766       0.00001587
Te       7.32685164       5.18086648       8.09482994      -0.00226934      -0.00160711      -0.00001113
Te       6.00021316       1.42853586       5.79700933      -0.00114898       0.00164491       0.00202169
Te       3.34690500       5.18087108      10.39265622       0.00115565      -0.00164877      -0.00202297
Te       3.34690765       5.18087523       5.79700830       0.00116539      -0.00163067       0.00201863
Te       6.00020598       1.42853572      10.39265554      -0.00115972       0.00162618      -0.00200833
