9
Lattice="6.064044094478673 2.629601597983485e-07 3.5010789476979616 2.02134876676217 5.717236216584874 3.501078103586299 1.6163767765831872e-07 -9.195260722317778e-07 7.00215761543088" Properties=species:S:1:pos:R:3:forces:R:3 energy=-44.6718635559082 free_energy=-44.6718635559082 stress="6.718485383316875e-05 2.4890803729249456e-07 -9.412340773451433e-08 2.4890803729249456e-07 6.723697879351676e-05 1.1711350822452005e-07 -9.412340773451433e-08 1.1711350822452005e-07 6.734587805112824e-05" pbc="T T T"
Rb       2.02134632       1.42931429       3.50108082      -0.00000838       0.00001955       0.00000520
Rb       6.06404181       4.28793244      10.50323744      -0.00000579       0.00001976       0.00000748
Mn       0.00001003      -0.00002472      -0.00000738       0.00000336       0.00002603       0.00001724
O        1.55128774       1.09692906       7.00215735      -0.00412507      -0.00294160      -0.00000633
O        6.53410068       4.62031221       7.00215988       0.00414545       0.00290574      -0.00001280
O        5.28840089       1.09692936       4.84453277       0.00205527      -0.00291952      -0.00357160
O        2.79699291       4.62030737       9.15977760      -0.00206796       0.00291409       0.00359184
O        2.79699360       4.62031174       4.84453751      -0.00205263       0.00289664      -0.00358860
O        5.28839866       1.09692795       9.15978352       0.00205558      -0.00292087       0.00355749
