9
Lattice="5.8698692506613845 -9.947814764154232e-07 3.388965799353754 1.9566221990387116 5.534159906761241 3.3889657069073937 9.262861683630947e-07 5.417602923546271e-07 6.777929994331703" Properties=species:S:1:pos:R:3:forces:R:3 energy=-38.906131744384766 free_energy=-38.906131744384766 stress="-0.00010796252900036052 -1.7604898516765388e-07 -7.645388677701703e-08 -1.7604898516765388e-07 -0.00010805265628732741 1.352053828895805e-07 -7.645388677701703e-08 1.352053828895805e-07 -0.00010779568401630968" pbc="T T T"
Rb       1.95662262       1.38353720       3.38896592       0.00000909      -0.00000683       0.00000350
Rb       5.86986834       4.15062229      10.16689384       0.00000308       0.00001267       0.00001047
Mn      -0.00000225      -0.00000160      -0.00000521       0.00000910       0.00000818       0.00002629
S        1.81919802       1.28636924       6.77793051       0.00792325       0.00560921      -0.00000337
S        6.00729478       4.24778489       6.77793236      -0.00792783      -0.00560457      -0.00000721
S        4.96027300       1.28637500       4.96443508      -0.00395828       0.00558776       0.00684154
S        2.86622412       4.24778337       8.59142541       0.00394994      -0.00559437      -0.00685644
S        2.86621951       4.24779238       4.96443835       0.00395885      -0.00560665       0.00684798
S        4.96027272       1.28637743       8.59142577      -0.00396693       0.00559419      -0.00686282
