9
Lattice="5.924369222851501 2.6308366679051733e-07 3.4204359702810483 1.9747899981613266 5.5855485993164296 3.420435954392279 -3.305461121825502e-08 -4.283268317495525e-08 6.840871997814032" Properties=species:S:1:pos:R:3:forces:R:3 energy=-41.86396408081055 free_energy=-41.86396408081055 stress="1.916913788591046e-06 1.988244093809044e-07 -2.4931262387895003e-08 1.988244093809044e-07 1.7189211121149128e-06 4.1847666665262295e-08 -2.4931262387895003e-08 4.1847666665262295e-08 1.5415968164234073e-06" pbc="T T T"
Rb       1.97478974       1.39638729       3.42043586      -0.00000057      -0.00000119       0.00000061
Rb       5.92436931       4.18916179      10.26130798       0.00000114      -0.00000000       0.00000012
Mo      -0.00000016      -0.00000037      -0.00000065      -0.00000071       0.00000312       0.00000807
S        1.87063656       1.32273954       6.84087199      -0.00030838      -0.00021636       0.00000050
S        6.02852279       4.26280916       6.84087197       0.00030653       0.00021650       0.00000104
S        4.98905175       1.32273894       5.04045276       0.00014783      -0.00020844      -0.00025290
S        2.91010730       4.26280999       8.64129161      -0.00014296       0.00020227       0.00024597
S        2.91010775       4.26281018       5.04045255      -0.00014594       0.00020457      -0.00024853
S        4.98905186       1.32273860       8.64129166       0.00014317      -0.00020044       0.00024507
