9
Lattice="5.935900898188658 4.5895765737283594e-08 3.4270938136617737 1.9786338571847846 5.596420595301954 3.4270934998412885 1.1757114685523188e-07 -3.0121430702696624e-07 6.854187423684443" Properties=species:S:1:pos:R:3:forces:R:3 energy=-36.37873840332031 free_energy=-36.37873840332031 stress="-0.00025839664158411324 4.960051924740583e-08 1.2995383436020802e-08 4.960051924740583e-08 -0.0002583647146821022 -9.449509619230412e-09 1.2995383436020802e-08 -9.449509619230412e-09 -0.0002584097092039883" pbc="T T T"
Rb       1.97863393       1.39910476       3.42709344       0.00000039      -0.00000080       0.00000094
Rb       5.93590097       4.19731555      10.28128130      -0.00000019       0.00000013      -0.00000109
Mn       0.00000003       0.00000003       0.00000071      -0.00000151       0.00000224      -0.00000637
Se       1.92502249       1.36119644       6.85418743       0.00802487       0.00567505      -0.00000069
Se       5.98951235       4.23522363       6.85418743      -0.00802505      -0.00567451       0.00000055
Se       4.97339015       1.36119622       5.09421183      -0.00401568       0.00567880       0.00695437
Se       2.94114489       4.23522408       8.61416309       0.00401460      -0.00567698      -0.00695211
Se       2.94114470       4.23522387       5.09421095       0.00401494      -0.00567833       0.00695345
Se       4.97338998       1.36119635       8.61416324      -0.00401241       0.00567430      -0.00694922
