9
Lattice="5.640293950066212 -9.895083357721438e-09 3.2564254052145247 1.88009788038379 5.317720507090183 3.2564255674081237 -1.4940301336863027e-07 9.300203663466144e-08 6.512851069202531" Properties=species:S:1:pos:R:3:forces:R:3 energy=-33.63460159301758 free_energy=-33.63460159301758 stress="-9.821150888456032e-05 -1.798068893776872e-08 1.2683458727735797e-08 -1.798068893776872e-08 -9.818215039558709e-05 -1.0490237123406132e-08 1.2683458727735797e-08 -1.0490237123406132e-08 -9.816746751312166e-05" pbc="T T T"
Rb       1.88009719       1.32943008       3.25642521       0.00000357       0.00000101       0.00000162
Rb       5.64029287       3.98829032       9.76927665       0.00000686       0.00000234       0.00000143
Ni       0.00000051       0.00000003       0.00000001      -0.00000391      -0.00000255      -0.00000289
S        1.79397165       1.26853005       6.51285151       0.00334239       0.00236437      -0.00000185
S        5.72642027       4.04919073       6.51285170      -0.00333804      -0.00235823      -0.00000112
S        4.74330811       1.26853003       4.81005010      -0.00167233       0.00235963       0.00289237
S        2.77708407       4.04919086       8.21565088       0.00166613      -0.00236136      -0.00289208
S        2.77708399       4.04918991       4.81005114       0.00166598      -0.00236237       0.00289220
S        4.74330804       1.26853053       8.21565110      -0.00167045       0.00235713      -0.00288975
