9
Lattice="5.4011365856543305 -1.4627034455845971e-08 3.118347755607233 1.8003788817006097 5.092240627902022 3.118347697399304 5.040231835854915e-08 -3.5650015906175845e-08 6.236695423915028" Properties=species:S:1:pos:R:3:forces:R:3 energy=-34.92028045654297 free_energy=-34.92028045654297 stress="-0.00012613162107300013 2.3449452157819906e-08 -2.373614416129044e-09 2.3449452157819906e-08 -0.00012618016626220196 -1.599913268535147e-08 -2.373614416129044e-09 -1.599913268535147e-08 -0.0001261989527847618" pbc="T T T"
Rb       1.80037889       1.27306058       3.11834796      -0.00000000      -0.00000073      -0.00000013
Rb       5.40113632       3.81918027       9.35504374      -0.00000003       0.00000085      -0.00000013
Ni      -0.00000078      -0.00000017      -0.00000021       0.00001047      -0.00000811      -0.00000031
O        1.47549647       1.04333371       6.23669563       0.00311820       0.00220668       0.00000069
O        5.72601824       4.04890606       6.23669537      -0.00312129      -0.00220835      -0.00000000
O        4.66338936       1.04333397       4.39616477      -0.00156217       0.00221093       0.00270778
O        2.53812756       4.04890709       8.07722545       0.00155906      -0.00220720      -0.00270191
O        2.53812761       4.04890692       4.39616548       0.00155807      -0.00220472       0.00270037
O        4.66338904       1.04333404       8.07722555      -0.00156221       0.00221068      -0.00270641
