9
Lattice="6.038868817860308 -8.929612624051496e-07 3.4865434740622527 2.0129554505152893 5.693500715732308 3.486543439789596 7.400585955510941e-08 1.0355180968017183e-08 6.973086819942795" Properties=species:S:1:pos:R:3:forces:R:3 energy=-38.52020263671875 free_energy=-38.52020263671875 stress="8.290970436064526e-05 -5.175243131816387e-07 -3.149113325662256e-08 -5.175243131816387e-07 8.328483818331733e-05 5.961921090147371e-08 -3.149113325662256e-08 5.961921090147371e-08 8.364870882360265e-05" pbc="T T T"
Rb       2.01295595       1.42337499       3.48654395      -0.00000046       0.00000036      -0.00000142
Rb       6.03886833       4.27012483      10.45963046      -0.00000026       0.00000109      -0.00000033
Nb       0.00000063       0.00000118       0.00000453      -0.00000329      -0.00000921      -0.00003710
Se       2.06718795       1.46172306       6.97308700       0.00210449       0.00148795      -0.00000026
Se       5.98463524       4.23177651       6.97308643      -0.00209859      -0.00148432      -0.00000045
Se       5.00527184       1.46172551       5.27678428      -0.00103687       0.00146769       0.00179802
Se       3.04655395       4.23177158       8.66938620       0.00102430      -0.00144852      -0.00177472
Se       3.04655180       4.23177440       5.27678497       0.00103868      -0.00146826       0.00179815
Se       5.00527145       1.46172746       8.66938696      -0.00102794       0.00145327      -0.00178192
