9
Lattice="5.9386503722532815 -4.240229721460656e-07 3.428679368538867 1.9795496504925496 5.599011511684527 3.4286794963971268 1.796944502554906e-07 2.836565922416706e-07 6.857358425837539" Properties=species:S:1:pos:R:3:forces:R:3 energy=-41.59283447265625 free_energy=-41.59283447265625 stress="-3.08103917632252e-05 -4.208796440252627e-07 1.2929273651707263e-08 -4.208796440252627e-07 -3.0532431992469355e-05 1.3957159872290958e-08 1.2929273651707263e-08 1.3957159872290958e-08 -3.023503268195782e-05" pbc="T T T"
Rb       1.97955021       1.39975294       3.42867958      -0.00000055       0.00000053       0.00000224
Rb       5.93864944       4.19925820      10.28603615       0.00000055      -0.00000057       0.00000511
Nb      -0.00000146      -0.00000087       0.00000064       0.00001805       0.00000722      -0.00002842
S        1.93230481       1.36634627       6.85736028       0.00158867       0.00112414      -0.00000203
S        5.98589611       4.23266619       6.85736106      -0.00160566      -0.00113463      -0.00000485
S        4.97249710       1.36634532       5.10210644      -0.00078779       0.00111696       0.00136542
S        2.94570537       4.23266308       8.61260847       0.00077680      -0.00109971      -0.00134760
S        2.94570395       4.23266563       5.10210701       0.00078727      -0.00111517       0.00136155
S        4.97249566       1.36634920       8.61260948      -0.00077730       0.00110102      -0.00135151
