9
Lattice="5.711711694012593 -3.540517435215839e-07 3.2976578905780527 1.903903612308345 5.385053772707101 3.297657807253822 -3.1331874209738295e-07 -3.2360066691356764e-07 6.595316323839937" Properties=species:S:1:pos:R:3:forces:R:3 energy=-50.334136962890625 free_energy=-50.334136962890625 stress="-3.964191273553297e-05 -1.2390667158967972e-08 2.9651763711058265e-08 -1.2390667158967972e-08 -3.9567414205521345e-05 -7.622234221571489e-08 2.9651763711058265e-08 -7.622234221571489e-08 -3.956289219786413e-05" pbc="T T T"
Rb       1.90390350       1.34626349       3.29765742       0.00000003      -0.00000152      -0.00000052
Rb       5.71171159       4.03878958       9.89297495      -0.00000083      -0.00000167      -0.00000184
Nb      -0.00000085      -0.00000334      -0.00000259      -0.00000260      -0.00000190      -0.00000050
O        1.61608749       1.14274779       6.59531706       0.00086784       0.00061774       0.00000384
O        5.99952586       4.24230597       6.59531638      -0.00088155      -0.00061762       0.00000523
O        4.90366806       1.14274765       4.69723137      -0.00042939       0.00061476       0.00075126
O        2.71194847       4.24230596       8.49339937       0.00044531      -0.00062084      -0.00076342
O        2.71194866       4.24230677       4.69723246       0.00043535      -0.00060785       0.00075614
O        4.90366714       1.14274756       8.49340057      -0.00043416       0.00061917      -0.00075006
