9
Lattice="5.808885779966784 -4.5268872950875685e-07 3.353761790027191 1.936294898501016 5.47666961999328 3.353761676905007 -2.9528703977765287e-08 -1.5942580836952504e-07 6.707523631199622" Properties=species:S:1:pos:R:3:forces:R:3 energy=-31.907779693603516 free_energy=-31.907779693603516 stress="-3.068539808737114e-05 -7.624841202868993e-08 1.855654102600468e-10 -7.624841202868993e-08 -3.060486778849736e-05 2.0936251843295395e-08 1.855654102600468e-10 2.0936251843295395e-08 -3.057942376472056e-05" pbc="T T T"
Rb       1.93629500       1.36916702       3.35376183       0.00000024      -0.00000008      -0.00000093
Rb       5.80888565       4.10750186      10.06128496      -0.00000016      -0.00000032       0.00000202
Ni      -0.00000030       0.00000000       0.00000075       0.00000530      -0.00000007      -0.00001058
Se       1.93520328       1.36839455       6.70752350       0.00245944       0.00174035       0.00000064
Se       5.80997745       4.10827440       6.70752360      -0.00246289      -0.00174198      -0.00000075
Se       4.84128363       1.36839602       5.02969753      -0.00122979       0.00173825       0.00212969
Se       2.90389704       4.10827277       8.38534953       0.00122690      -0.00173369      -0.00212449
Se       2.90389682       4.10827333       5.02969696       0.00123088      -0.00173858       0.00213058
Se       4.84128405       1.36839595       8.38534967      -0.00122997       0.00173604      -0.00212625
