9
Lattice="7.078176193154941 1.8910011500080255e-07 4.086586436003111 2.3593919422258356 6.67337067714533 4.08658695638786 -4.2143072359655446e-07 3.393420230378524e-07 8.173173601945766" Properties=species:S:1:pos:R:3:forces:R:3 energy=-28.890932083129883 free_energy=-28.890932083129883 stress="-2.3582037101732567e-05 2.387381314861159e-08 -1.0166171016123826e-08 2.387381314861159e-08 -2.3761604097671807e-05 4.5864943842843786e-08 -1.0166171016123826e-08 4.5864943842843786e-08 -2.3545904696220532e-05" pbc="T T T"
Rb       2.35939125       1.66834268       4.08658657       0.00000067      -0.00000145      -0.00000007
Rb       7.07817592       5.00502905      12.25976033      -0.00000037       0.00000107       0.00000052
Ni       0.00000059       0.00000046      -0.00000157      -0.00000200      -0.00000745       0.00003168
Te       1.96966025       1.39276243       8.17317373       0.00308415       0.00218801      -0.00000140
Te       7.46790768       5.28060818       8.17317369      -0.00307962      -0.00218473       0.00000107
Te       6.09334490       1.39276367       5.79236219      -0.00153805       0.00218067       0.00265875
Te       3.34422163       5.28060834      10.55398576       0.00154492      -0.00219041      -0.00267242
Te       3.34422209       5.28060731       5.79236153       0.00153877      -0.00218420       0.00266244
Te       6.09334647       1.39276298      10.55398565      -0.00154857       0.00219855      -0.00268053
