9
Lattice="5.908819902266064 -2.029246594045156e-09 3.4114583668789598 1.969606624098834 5.570889174143558 3.411458380867947 -9.92637608503973e-08 -5.3056924189212296e-08 6.822916905687716" Properties=species:S:1:pos:R:3:forces:R:3 energy=-37.50849914550781 free_energy=-37.50849914550781 stress="-1.2639843589568045e-05 -3.733504172487301e-08 -6.637324911906717e-09 -3.733504172487301e-08 -1.2630942364921793e-05 -1.945940653058642e-08 -6.637324911906717e-09 -1.945940653058642e-08 -1.2616601452464238e-05" pbc="T T T"
Rb       1.96960675       1.39272259       3.41145851       0.00000143       0.00000035       0.00000042
Rb       5.90881976       4.17816662      10.23437528       0.00000054       0.00000015       0.00000334
Os      -0.00000084       0.00000002      -0.00000121       0.00000336      -0.00000030       0.00000667
Se       2.02433826       1.43142328       6.82291737       0.00114307       0.00080828      -0.00000123
Se       5.85408819       4.13946538       6.82291723      -0.00114551      -0.00080875      -0.00000223
Se       4.89665082       1.43142325       5.16458727      -0.00057188       0.00080781       0.00098728
Se       2.98177626       4.13946547       8.48124648       0.00057127      -0.00080808      -0.00099133
Se       2.98177580       4.13946635       5.16458735       0.00057013      -0.00080743       0.00098602
Se       4.89665071       1.43142353       8.48124627      -0.00057244       0.00080803      -0.00098853
