9
Lattice="5.748925203519274 4.932040200770575e-08 3.3191433070721312 1.9163083701803976 5.420139513560181 3.3191434412929457 -2.2859709012684602e-07 2.743735861467452e-09 6.638287010085872" Properties=species:S:1:pos:R:3:forces:R:3 energy=-39.40598678588867 free_energy=-39.40598678588867 stress="-0.00023290897661354393 -2.016426492446044e-08 -2.9415799573939694e-08 -2.016426492446044e-08 -0.0002328881382709369 5.170944916699227e-08 -2.9415799573939694e-08 5.170944916699227e-08 -0.00023299199528992176" pbc="T T T"
Rb       1.91630760       1.35503450       3.31914379       0.00000066       0.00000198      -0.00000126
Rb       5.74892476       4.06510511       9.95743114       0.00000132       0.00000066      -0.00000187
Os       0.00000439      -0.00000113       0.00000101       0.00003103      -0.00000713       0.00001127
S        1.89632224       1.34090354       6.63828673       0.00515503       0.00364631      -0.00000029
S        5.76890908       4.07923598       6.63828654      -0.00516677      -0.00365192       0.00000002
S        4.80076286       1.34090408       4.96140693      -0.00258327       0.00364834       0.00446963
S        2.86447026       4.07923574       8.31516566       0.00257468      -0.00364679      -0.00446653
S        2.86446938       4.07923645       4.96140712       0.00257608      -0.00364673       0.00446504
S        4.80076294       1.34090391       8.31516590      -0.00258857       0.00365514      -0.00447553
