9
Lattice="5.611858446668528 -2.9344170633169538e-08 3.240007841692416 1.8706195698625938 5.290910573148687 3.2400076419770625 -1.8603935753860275e-07 -3.761500318795464e-07 6.480016005614462" Properties=species:S:1:pos:R:3:forces:R:3 energy=-51.542877197265625 free_energy=-51.542877197265625 stress="-4.416297088027932e-05 -7.275303204323791e-08 -5.5063917869802026e-08 -7.275303204323791e-08 -4.388162415125407e-05 -1.2315132025264575e-08 -5.5063917869802026e-08 -1.2315132025264575e-08 -4.3829695641761646e-05" pbc="T T T"
Rb       1.87061875       1.32272749       3.24000820      -0.00000036       0.00000156       0.00000236
Rb       5.61185882       3.96818292       9.72002350      -0.00000059      -0.00000017      -0.00000068
Os      -0.00000038       0.00000041      -0.00000034       0.00000303      -0.00000021      -0.00000376
O        1.51957484       1.07450178       6.48001544       0.00362325       0.00255585      -0.00000085
O        5.96290350       4.21640769       6.48001557      -0.00362659      -0.00255895      -0.00000471
O        4.85207141       1.07450190       4.55599895      -0.00181031       0.00255907       0.00313377
O        2.63040731       4.21640792       8.40403267       0.00180793      -0.00255382      -0.00312781
O        2.63040625       4.21640839       4.55599810       0.00181383      -0.00255561       0.00313258
O        4.85207102       1.07450201       8.40403290      -0.00180846       0.00255239      -0.00313067
