9
Lattice="5.938442176224829 -4.88936044126247e-07 3.428561147454346 1.9794804719180956 5.59881628850338 3.428560788082788 2.9178870101283185e-07 -2.3381249578557324e-07 6.857121789515614" Properties=species:S:1:pos:R:3:forces:R:3 energy=-34.17814636230469 free_energy=-34.17814636230469 stress="-1.5727855497971177e-05 1.0076075973586285e-08 2.6234721062223798e-08 1.0076075973586285e-08 -1.573101144458633e-05 -2.3020076511670595e-08 2.6234721062223798e-08 -2.3020076511670595e-08 -1.5725085177109577e-05" pbc="T T T"
Rb       1.97948096       1.39970295       3.42856155      -0.00000231       0.00000187      -0.00000173
Rb       5.93844278       4.19911207      10.28568379      -0.00000109      -0.00000026      -0.00000232
P        0.00000006       0.00000013      -0.00000098      -0.00000825       0.00000278       0.00000236
S        1.79733033       1.27090362       6.85712163       0.00022924       0.00016338      -0.00000071
S        6.12059228       4.32791165       6.85712149      -0.00022244      -0.00015795       0.00000063
S        5.03977709       1.27090358       4.98509439      -0.00011301       0.00016010       0.00019526
S        2.87814591       4.32791183       8.72914996       0.00011533      -0.00016469      -0.00020051
S        2.87814554       4.32791235       4.98509334       0.00011325      -0.00016260       0.00019801
S        5.03977651       1.27090399       8.72914924      -0.00011033       0.00015759      -0.00019157
