9
Lattice="5.68852397506869 5.456462044254191e-08 3.2842700468730412 1.8961746228591365 5.363192044319 3.284270197459268 -1.9066116030332876e-08 1.7094814437633192e-07 6.568540126769441" Properties=species:S:1:pos:R:3:forces:R:3 energy=-34.15788269042969 free_energy=-34.15788269042969 stress="1.1374382665962912e-05 1.1160955493139113e-09 1.0570501807194432e-08 1.1160955493139113e-09 1.1343001460772939e-05 9.996039551651847e-09 1.0570501807194432e-08 9.996039551651847e-09 1.1394610737625044e-05" pbc="T T T"
Rb       1.89617433       1.34079865       3.28427006       0.00000257       0.00000160       0.00000240
Rb       5.68852463       4.02239344       9.85281114      -0.00000463       0.00000155      -0.00000094
Pt      -0.00000006      -0.00000027      -0.00000070      -0.00000264       0.00000347       0.00000406
S        1.90011389       1.34358270       6.56854047       0.00045371       0.00031883      -0.00000122
S        5.68458439       4.01960887       6.56854078      -0.00045252      -0.00031978       0.00000032
S        4.73846734       1.34358331       4.92981692      -0.00022653       0.00031653       0.00039056
S        2.84623198       4.01960879       8.20726302       0.00022900      -0.00032187      -0.00039369
S        2.84623124       4.01960959       4.92981724       0.00022817      -0.00032079       0.00039107
S        4.73846672       1.34358406       8.20726276      -0.00022706       0.00032040      -0.00039288
