9
Lattice="6.841581920838915 5.3313613795739884e-08 3.949989296708946 2.2805274525120613 6.4503055046488 3.949989131642487 2.069969130760654e-07 -5.5795372054510366e-08 7.899978234888684" Properties=species:S:1:pos:R:3:forces:R:3 energy=-27.904094696044922 free_energy=-27.904094696044922 stress="1.960883855645079e-05 -1.2233352109092266e-08 7.168185156558593e-09 -1.2233352109092266e-08 1.9613888071035035e-05 -1.2958667916507238e-08 7.168185156558593e-09 -1.2958667916507238e-08 1.9635808712337166e-05" pbc="T T T"
Rb       2.28052795       1.61257665       3.94998970      -0.00000035      -0.00000016      -0.00000015
Rb       6.84158162       4.83772884      11.84996705      -0.00000007       0.00000008       0.00000079
Pb       0.00000055      -0.00000015       0.00000164      -0.00000068       0.00000047      -0.00000034
Te       2.64122919       1.86763067       7.89997832       0.00288606       0.00204013      -0.00000110
Te       6.48088001       4.58267481       7.89997876      -0.00288513      -0.00204074      -0.00000029
Te       5.52096752       1.86763093       6.23736095      -0.00144280       0.00203990       0.00249916
Te       3.60114297       4.58267302       9.56259446       0.00144204      -0.00203852      -0.00249754
Te       3.60114168       4.58267467       6.23736092       0.00144270      -0.00203958       0.00249772
Te       5.52096683       1.86763259       9.56259487      -0.00144178       0.00203838      -0.00249827
