9
Lattice="5.901181206450267 -1.1724819508945074e-07 3.4070481514164555 1.9670602164913171 5.563686470289827 3.407048281521321 -2.0093736325418867e-07 1.726120819041466e-08 6.8140966508664995" Properties=species:S:1:pos:R:3:forces:R:3 energy=-32.827537536621094 free_energy=-32.827537536621094 stress="-0.0001455025194445625 5.2880697154478185e-08 -3.876476917241689e-09 5.2880697154478185e-08 -0.00014553836081176996 4.919752782939213e-08 -3.876476917241689e-09 4.919752782939213e-08 -0.00014558144903276116" pbc="T T T"
Rb       1.96706056       1.39092185       3.40704839      -0.00000141       0.00000012       0.00000060
Rb       5.90118113       4.17276476      10.22114446      -0.00000030      -0.00000019      -0.00000122
Pt      -0.00000003      -0.00000049      -0.00000122      -0.00000141       0.00000098       0.00001821
Se       2.03048903       1.43577273       6.81409639       0.00824667       0.00583003       0.00000055
Se       5.83775121       4.12791354       6.81409605      -0.00824535      -0.00583115       0.00000055
Se       4.88593599       1.43577292       5.16550388      -0.00411980       0.00582829       0.00713723
Se       2.98230448       4.12791450       8.46268998       0.00412648      -0.00583486      -0.00714641
Se       2.98230552       4.12791436       5.16550346       0.00412296      -0.00583220       0.00714162
Se       4.88593698       1.43577098       8.46269085      -0.00412785       0.00583896      -0.00715110
