9
Lattice="5.8670193553602985 -5.865811587650463e-07 3.387325853836511 1.9556729622672284 5.531478901865498 3.38732516647601 4.1309100190678216e-07 -5.497417999531308e-07 6.774650992178481" Properties=species:S:1:pos:R:3:forces:R:3 energy=-29.778179168701172 free_energy=-29.778179168701172 stress="-1.7094685972551815e-05 1.277002326105503e-07 -9.08287134393504e-09 1.277002326105503e-07 -1.7241196474060416e-05 2.6071538261618343e-09 -9.08287134393504e-09 2.6071538261618343e-09 -1.726667869661469e-05" pbc="T T T"
Rb       1.95567332       1.38287003       3.38732592       0.00000116      -0.00000139      -0.00000314
Rb       5.86701985       4.14860882      10.16197694       0.00000095      -0.00000286      -0.00000199
Pb      -0.00000065      -0.00000048      -0.00000103      -0.00000498       0.00000159       0.00001443
S        2.12500936       1.50260696       6.77465093      -0.00032285      -0.00022684       0.00000088
S        5.69768118       4.02886828       6.77465089       0.00032741       0.00023350       0.00000059
S        4.80451541       1.50260768       5.22763757       0.00016317      -0.00023241      -0.00028458
S        3.01817783       4.02887188       8.32166529      -0.00016016       0.00022495       0.00027573
S        3.01817833       4.02887163       5.22763579      -0.00016485       0.00023201      -0.00028309
S        4.80451627       1.50260605       8.32166562       0.00016013      -0.00022821       0.00028118
