9
Lattice="5.903177586263955 1.441773838699097e-07 3.4082004013620786 1.9677259379862961 5.565568840365412 3.408200505343007 -1.5575588427890675e-08 1.1633645591987479e-07 6.816400829701881" Properties=species:S:1:pos:R:3:forces:R:3 energy=-31.74886703491211 free_energy=-31.74886703491211 stress="-9.228794078808278e-05 7.261037549000093e-09 2.7217279097158098e-08 7.261037549000093e-09 -9.236217010766268e-05 -3.3376149843888925e-08 2.7217279097158098e-08 -3.3376149843888925e-08 -9.234752360498533e-05" pbc="T T T"
Rb       1.96772598       1.39139220       3.40820053      -0.00000049      -0.00000078      -0.00000026
Rb       5.90317764       4.17417705      10.22460131      -0.00000144      -0.00000123      -0.00000066
P        0.00000028      -0.00000015       0.00000169      -0.00000967       0.00000656      -0.00002115
Se       1.91447198       1.35373596       6.81640062       0.00369117       0.00261101       0.00000066
Se       5.95643208       4.21183275       6.81640090      -0.00368717      -0.00260742      -0.00000001
Se       4.94594191       1.35373640       5.06618159      -0.00184704       0.00261140       0.00319824
Se       2.92496146       4.21183279       8.56662046       0.00184391      -0.00260688      -0.00319421
Se       2.92496141       4.21183295       5.06618097       0.00184949      -0.00261477       0.00320306
Se       4.94594124       1.35373671       8.56661888      -0.00183877       0.00260229      -0.00318569
