9
Lattice="6.254750065541652 -8.328288938360587e-07 3.6111821143222884 2.084915855177506 5.89703451406107 3.6111821976994007 2.0473790857092083e-08 1.1659277168063802e-07 7.222364193183055" Properties=species:S:1:pos:R:3:forces:R:3 energy=-29.473369598388672 free_energy=-29.473369598388672 stress="-5.536017852136865e-05 9.653583532553967e-08 -5.85041615153159e-09 9.653583532553967e-08 -5.525372034753673e-05 -5.0438813126163495e-09 -5.85041615153159e-09 -5.0438813126163495e-09 -5.5395652452716604e-05" pbc="T T T"
Rb       2.08491648       1.47425860       3.61118188       0.00000122       0.00000093      -0.00000312
Rb       6.25474960       4.42277547      10.83354626       0.00000025       0.00000193      -0.00000265
Pb       0.00000026       0.00000103      -0.00000254       0.00000164       0.00000189      -0.00000392
Se       2.50014485       1.76787086       7.22236197       0.00506161       0.00358573      -0.00000770
Se       5.83951496       4.12915988       7.22236232      -0.00508384      -0.00359644      -0.00000771
Se       5.00467564       1.76787476       5.77637375      -0.00253902       0.00360265       0.00439601
Se       3.33498782       4.12916727       8.66835616       0.00253031      -0.00357403      -0.00438926
Se       3.33499335       4.12915966       5.77637600       0.00254812      -0.00359963       0.00440167
Se       5.00468084       1.76786758       8.66835816      -0.00252030       0.00357699      -0.00438334
