9
Lattice="5.468375566124921 -4.77499660169586e-07 3.157167921606293 1.8227913971601941 5.155633216770728 3.157167935503761 -2.077042112024341e-07 -1.2984805075716493e-07 6.314336202966827" Properties=species:S:1:pos:R:3:forces:R:3 energy=-44.46531677246094 free_energy=-44.46531677246094 stress="1.03119737104862e-05 -1.854949194246558e-09 -3.2810440586672485e-08 -1.854949194246558e-09 1.0255002052872442e-05 -2.4045260005323144e-08 -3.2810440586672485e-08 -2.4045260005323144e-08 1.0357849532738328e-05" pbc="T T T"
Rb       1.82279211       1.28890813       3.15716817       0.00000086       0.00000025      -0.00000073
Rb       5.46837490       3.86672456       9.47150475       0.00000030       0.00000034      -0.00000078
P       -0.00000000      -0.00000072       0.00000005      -0.00001356      -0.00000913      -0.00000680
O        1.39830649       0.98875235       6.31433600      -0.00199485      -0.00141120       0.00000084
O        5.89285779       4.16687993       6.31433578       0.00200486       0.00141978       0.00000111
O        4.76922144       0.98875270       4.36813663       0.00100005      -0.00141430      -0.00173283
O        2.52194599       4.16687963       8.26053430      -0.00099993       0.00141811       0.00173616
O        2.52194598       4.16687984       4.36813724      -0.00099802       0.00141430      -0.00173306
O        4.76922153       0.98875219       8.26053469       0.00100148      -0.00141644       0.00173521
