9
Lattice="5.403198528177506 1.0399207641121617e-07 3.1195383581600127 1.8010660902312001 5.0941847813067485 3.1195386766365507 -7.684883460698029e-09 3.8461866105824625e-07 6.2390767296305185" Properties=species:S:1:pos:R:3:forces:R:3 energy=-40.07707595825195 free_energy=-40.07707595825195 stress="-2.421720819256734e-05 1.5968795707976824e-07 -6.915438177657052e-08 1.5968795707976824e-07 -2.4413440769421868e-05 9.63504476203525e-08 -6.915438177657052e-08 9.63504476203525e-08 -2.4541590391891077e-05" pbc="T T T"
Rb       1.80106558       1.27354710       3.11953882       0.00000448      -0.00000037       0.00001778
Rb       5.40319929       3.82063826       9.35861561       0.00000269       0.00000344       0.00001799
Pd       0.00000363       0.00000075       0.00001907      -0.00035767      -0.00011840      -0.00190465
O        1.49714437       1.05864089       6.23907687       0.00235975       0.00167343      -0.00003505
O        5.70711694       4.03554224       6.23907711      -0.00205189      -0.00145087      -0.00003443
O        4.65462855       1.05863741       4.41609955      -0.00139874       0.00196719       0.00237858
O        2.54964250       4.03553987       8.06204476       0.00081962      -0.00117224      -0.00146949
O        2.54963603       4.03554787       4.41609924       0.00142267      -0.00202617       0.00244552
O        4.65462193       1.05864652       8.06204463      -0.00080076       0.00112393      -0.00141662
