9
Lattice="5.626752654501372 7.116480071127937e-08 3.248607278738281 1.8755843554566787 5.3049535184559335 3.248607157157543 4.6083947395813696e-08 -1.1631942149302125e-07 6.497214477656991" Properties=species:S:1:pos:R:3:forces:R:3 energy=-35.99751281738281 free_energy=-35.99751281738281 stress="0.00015172520943451673 2.144048494301387e-08 2.6268294206488463e-09 2.144048494301387e-08 0.00015174901636783034 -5.012288895045458e-08 2.6268294206488463e-09 -5.012288895045458e-08 0.0001517222262918949" pbc="T T T"
Rb       1.87558523       1.32623781       3.24860672      -0.00000132       0.00000018       0.00000080
Rb       5.62675324       3.97871551       9.74582290      -0.00000117      -0.00000092      -0.00000129
Pb      -0.00000059      -0.00000122      -0.00000041       0.00000017      -0.00000009       0.00000231
O        1.76337213       1.24689285       6.49721431      -0.00465199      -0.00328910       0.00000110
O        5.73896337       4.05806094       6.49721442       0.00465214       0.00328889       0.00000133
O        4.74506666       1.24689336       4.77573210       0.00232729      -0.00328985      -0.00402960
O        2.75727030       4.05806119       8.21869642      -0.00232418       0.00328875       0.00402662
O        2.75727088       4.05806058       4.77573297      -0.00232658       0.00329044      -0.00402987
O        4.74506660       1.24689341       8.21869642       0.00232585      -0.00328866       0.00402856
