9
Lattice="5.914601364384819 -2.499013365814109e-07 3.4147967811020306 1.9715336140897155 5.576339551992339 3.4147966744585285 -4.039048616702922e-08 -1.591715300842793e-07 6.82959363216258" Properties=species:S:1:pos:R:3:forces:R:3 energy=-31.60468292236328 free_energy=-31.60468292236328 stress="-3.157235187245533e-05 2.7954984993527887e-09 1.0701559638448543e-08 2.7954984993527887e-09 -3.157744504278526e-05 -1.9498321179867162e-08 1.0701559638448543e-08 -1.9498321179867162e-08 -3.155124431941658e-05" pbc="T T T"
Rb       1.97153374       1.39408477       3.41479667       0.00000116       0.00000043      -0.00000039
Rb       5.91460118       4.18225425      10.24439026      -0.00000125      -0.00000135      -0.00000142
Pd      -0.00000023       0.00000040       0.00000111       0.00000153      -0.00000448      -0.00001029
Se       2.06504856       1.46020932       6.82959333       0.00145948       0.00103252       0.00000105
Se       5.82108671       4.11612959       6.82959340      -0.00145946      -0.00103107       0.00000129
Se       4.88207729       1.46020909       5.20318136      -0.00073148       0.00103392       0.00126667
Se       3.00405750       4.11613022       8.45600557       0.00072923      -0.00103021      -0.00125977
Se       3.00405781       4.11612981       5.20318129       0.00072972      -0.00103106       0.00126383
Se       4.88207716       1.46020905       8.45600534      -0.00072890       0.00103125      -0.00126097
