9
Lattice="5.709405791901755 1.0114590427497323e-07 3.2963269639040527 1.9031353461675977 5.382879592078693 3.296326986699312 1.0014399396195011e-07 9.873089329615433e-08 6.592653754353484" Properties=species:S:1:pos:R:3:forces:R:3 energy=-32.48188018798828 free_energy=-32.48188018798828 stress="-3.767001544474624e-06 1.0350409418435902e-08 2.7018787207566675e-09 1.0350409418435902e-08 -3.851551809930243e-06 -5.719960505246036e-09 2.7018787207566675e-09 -5.719960505246036e-09 -3.7888587485213066e-06" pbc="T T T"
Rb       1.90313533       1.34572001       3.29632682       0.00000068       0.00000124       0.00000067
Rb       5.70940585       4.03715971       9.88898040      -0.00000135       0.00000058      -0.00000226
Pd       0.00000022       0.00000005      -0.00000092      -0.00000089      -0.00000161       0.00001111
S        1.94571918       1.37583160       6.59265383       0.00026226       0.00018585      -0.00000078
S        5.66682208       4.00704812       6.59265392      -0.00026256      -0.00018549      -0.00000085
S        4.73654635       1.37583121       4.98136928      -0.00013024       0.00018406       0.00022507
S        2.87599476       4.00704871       8.20393874       0.00013235      -0.00018638      -0.00022930
S        2.87599484       4.00704847       4.98136959       0.00013071      -0.00018466       0.00022531
S        4.73654657       1.37583129       8.20393876      -0.00013080       0.00018626      -0.00022888
