9
Lattice="5.9540132268349035 -8.063212474276345e-07 3.4375514029654384 1.9846706660667643 5.613496930845738 3.437550795600703 2.7364715621177054e-07 -5.503692080094068e-07 6.875102331960084" Properties=species:S:1:pos:R:3:forces:R:3 energy=-39.78069305419922 free_energy=-39.78069305419922 stress="2.2272819478530437e-05 -3.8175116401362175e-08 4.2386723464460374e-08 -3.8175116401362175e-08 2.2303047444438562e-05 -7.813731173200722e-08 4.2386723464460374e-08 -7.813731173200722e-08 2.227830009360332e-05" pbc="T T T"
Rb       1.98467119       1.40337433       3.43755092      -0.00000117       0.00000075      -0.00000055
Rb       5.95401290       4.21012146      10.31265362      -0.00000008       0.00000029      -0.00000139
Re       0.00000004      -0.00000145      -0.00000014       0.00000063       0.00000452       0.00000248
Se       2.02362008       1.43091516       6.87510246      -0.00290450      -0.00205357      -0.00000135
Se       5.91506360       4.18258150       6.87510195       0.00290367       0.00205168       0.00000089
Se       4.94220315       1.43091506       5.19005714       0.00145300      -0.00205436      -0.00251275
Se       2.99647983       4.18258221       8.56014672      -0.00144692       0.00204664       0.00251609
Se       2.99648177       4.18258055       5.19005874      -0.00145666       0.00205927      -0.00252247
Se       4.94220388       1.43091362       8.56014690       0.00145215      -0.00205489       0.00251892
