9
Lattice="5.874713379416917 -8.134862479001537e-07 3.391768343714155 1.9582372510827573 5.538732830311984 3.3917679541655215 9.011632870016549e-08 -4.13375799809046e-07 6.7835365313424125" Properties=species:S:1:pos:R:3:forces:R:3 energy=-34.300514221191406 free_energy=-34.300514221191406 stress="5.694845094694756e-05 -1.1021342771755371e-07 1.798838944466752e-08 -1.1021342771755371e-07 5.6989949371200055e-05 -6.851535516716467e-08 1.798838944466752e-08 -6.851535516716467e-08 5.709221659344621e-05" pbc="T T T"
Rb       1.95823723       1.38468283       3.39176816      -0.00000079      -0.00000050       0.00000161
Rb       5.87471330       4.15404900      10.17530452       0.00000192       0.00000237       0.00000069
Rh      -0.00000032      -0.00000134      -0.00000234       0.00000540       0.00000817       0.00001733
Se       2.01876330       1.42748137       6.78353686      -0.00138460      -0.00098028      -0.00000070
Se       5.81418865       4.11125092       6.78353586       0.00137711       0.00097531       0.00000016
Se       4.86533002       1.42748158       5.14006878       0.00069742      -0.00098593      -0.00120496
Se       2.96762001       4.11125069       8.42700523      -0.00069285       0.00097714       0.00119519
Se       2.96762057       4.11124981       5.14006984      -0.00069918       0.00098675      -0.00120911
Se       4.86533022       1.42748147       8.42700444       0.00069560      -0.00098301       0.00119977
