9
Lattice="5.887470348355323 1.835417087190921e-06 3.3991324653985275 1.9624915828530358 5.550757693001443 3.399132922163064 3.41257964480536e-07 8.007259645127265e-07 6.798264339720636" Properties=species:S:1:pos:R:3:forces:R:3 energy=-36.06433868408203 free_energy=-36.06433868408203 stress="0.00022897498274687678 1.10165885303104e-08 -4.770216222027557e-09 1.10165885303104e-08 0.0002289811964146793 1.9805687756502266e-08 -4.770216222027557e-09 1.9805687756502266e-08 0.00022894407447893173" pbc="T T T"
Rb       1.96248978       1.38768926       3.39913214      -0.00000371      -0.00000406      -0.00000295
Rb       5.88747194       4.16307043      10.19739763      -0.00000436       0.00000125       0.00000141
Ru       0.00000817       0.00000407       0.00000611      -0.00002502      -0.00000946      -0.00002779
Se       2.02275910       1.43030711       6.79826558      -0.00094219      -0.00066759      -0.00000396
Se       5.82720347       4.12045342       6.79826515       0.00095971       0.00068042      -0.00000293
Se       4.87608884       1.43030654       5.15089011       0.00047391      -0.00066370      -0.00081371
Se       2.97386886       4.12045026       8.44563607      -0.00047421       0.00068135       0.00082780
Se       2.97386808       4.12045021       5.15088997      -0.00046442       0.00066578      -0.00080925
Se       4.87609102       1.43031002       8.44563602       0.00048028      -0.00068404       0.00083140
