9
Lattice="5.6412996973485106 2.7564896033998923e-07 3.2570064257477953 1.8804335884669523 5.318669899036772 3.257006259240115 1.2878759558288433e-07 -1.128628394646899e-07 6.514012628428943" Properties=species:S:1:pos:R:3:forces:R:3 energy=-37.41864776611328 free_energy=-37.41864776611328 stress="4.597661973093636e-05 -3.008129567660944e-08 7.205307905877589e-09 -3.008129567660944e-08 4.5890479668742046e-05 3.107120249978834e-08 7.205307905877589e-09 3.107120249978834e-08 4.591096512740478e-05" pbc="T T T"
Rb       1.88043308       1.32966881       3.25700587      -0.00000544       0.00000853       0.00000269
Rb       5.64129965       3.98900245       9.77101883       0.00000174       0.00000487      -0.00000429
Ru       0.00000953      -0.00002997       0.00000773       0.00009061      -0.00028213       0.00006992
S        1.91356782       1.35310146       6.51401274       0.00014704       0.00011054      -0.00000470
S        5.60816531       3.96557806       6.51401055      -0.00009376      -0.00005585       0.00000117
S        4.68451242       1.35310091       4.91420852      -0.00008428       0.00012621       0.00013834
S        2.83721772       3.96557766       8.11382221       0.00002900      -0.00004154      -0.00006449
S        2.83721579       3.96557837       4.91419968       0.00001463      -0.00001842       0.00003368
S        4.68451233       1.35310209       8.11381537      -0.00009984       0.00014806      -0.00017250
