9
Lattice="5.729391794383968 -1.7060569669877597e-09 3.3078657772000892 1.9097971887087954 5.401725690543803 3.307865906198731 -1.052938987256038e-06 -5.865498969046151e-07 6.615733378143851" Properties=species:S:1:pos:R:3:forces:R:3 energy=-54.59111785888672 free_energy=-54.59111785888672 stress="2.0851304725511e-05 -1.5418594401239716e-08 2.0621852669933105e-08 -1.5418594401239716e-08 2.0769952243426815e-05 -5.260241664473142e-08 2.0621852669933105e-08 -5.260241664473142e-08 2.0790470443898812e-05" pbc="T T T"
Rb       1.90979750       1.35043079       3.30786542       0.00000071      -0.00000033       0.00000058
Rb       5.72939056       4.05129316       9.92360106      -0.00000055       0.00000016      -0.00000010
Re      -0.00000009      -0.00000085       0.00000035       0.00000145       0.00000486       0.00000254
O        1.54444781       1.09208971       6.61573284       0.00185251       0.00131261       0.00000025
O        6.09473957       4.30963619       6.61573064      -0.00185513      -0.00131464       0.00000088
O        4.95716675       1.09209042       4.64539671      -0.00092816       0.00131500       0.00161505
O        2.68202102       4.30963471       8.58606793       0.00093126      -0.00131893      -0.00162172
O        2.68202261       4.30963493       4.64539676       0.00092614      -0.00131261       0.00161481
O        4.95716601       1.09208954       8.58606724      -0.00092697       0.00131500      -0.00161386
