9
Lattice="5.576644334133905 -2.708303671086181e-07 3.2196777192041406 1.8588812398159404 5.257710971663567 3.2196776318292097 -1.178568543557792e-07 -1.903494567016524e-07 6.439355642542405" Properties=species:S:1:pos:R:3:forces:R:3 energy=-47.772216796875 free_energy=-47.772216796875 stress="2.6145805804844713e-06 -4.5538904203112907e-08 -4.090101768383647e-08 -4.5538904203112907e-08 2.7403457352193072e-06 4.370454220747888e-08 -4.090101768383647e-08 4.370454220747888e-08 2.7836551907967078e-06" pbc="T T T"
Rb       1.85888138       1.31442749       3.21967775       0.00000012      -0.00000037      -0.00000094
Rb       5.57664366       3.94328332       9.65903416       0.00000053      -0.00000052      -0.00000035
Ru      -0.00000019      -0.00000016      -0.00000054       0.00000144      -0.00000352      -0.00000458
O        1.50035713       1.06091246       6.43935597       0.00067979       0.00048059      -0.00000239
O        5.93516815       4.19679766       6.43935503      -0.00067765      -0.00047928       0.00000043
O        4.82646586       1.06091267       4.51902527      -0.00034004       0.00047827       0.00058490
O        2.60905971       4.19679728       8.35968534       0.00033593      -0.00047272      -0.00057775
O        2.60906018       4.19679821       4.51902527       0.00033596      -0.00047904       0.00058299
O        4.82646559       1.06091276       8.35968509      -0.00033557       0.00047672      -0.00058168
