9
Lattice="5.457118576178046 3.586194274432175e-07 3.1506685411683075 1.8190396261781612 5.145021179773436 3.1506689522259235 -5.448239905266772e-07 1.1819184736925445e-07 6.301338025999393" Properties=species:S:1:pos:R:3:forces:R:3 energy=-45.21503448486328 free_energy=-45.21503448486328 stress="0.0001330282393610105 -4.390901864326224e-09 -3.683048177549608e-08 -4.390901864326224e-09 0.00013307039625942707 3.199829023969869e-08 -3.683048177549608e-08 3.199829023969869e-08 0.0001330564555246383" pbc="T T T"
Rb       1.81903934       1.28625571       3.15066875       0.00000116      -0.00000094       0.00000112
Rb       5.45711838       3.85876584       9.45200773       0.00000022       0.00000102       0.00000003
Si      -0.00000070       0.00000003      -0.00000027       0.00000661      -0.00000320       0.00000140
O        1.42298497       1.00620240       6.30133820       0.00043929       0.00031114       0.00000101
O        5.85317292       4.13881782       6.30133740      -0.00043917      -0.00031161       0.00000054
O        4.74562593       1.00620408       4.38301009      -0.00021935       0.00030851       0.00037873
O        2.53053160       4.13881889       8.21966473       0.00021690      -0.00030911      -0.00037873
O        2.53053230       4.13881853       4.38301019       0.00021756      -0.00030947       0.00038016
O        4.74562537       1.00620287       8.21966460      -0.00022352       0.00031400      -0.00038421
