9
Lattice="5.9890994944135585 5.305012137715083e-07 3.4578080109815845 1.9963668542302297 5.646577238348405 3.4578082605163183 -4.400744516252054e-08 2.744984088024043e-07 6.915616098186202" Properties=species:S:1:pos:R:3:forces:R:3 energy=-31.04322052001953 free_energy=-31.04322052001953 stress="-0.00014033954357728362 1.454655631505375e-07 2.145766897498902e-09 1.454655631505375e-07 -0.00014043066767044365 -9.705043019225812e-11 2.145766897498902e-09 -9.705043019225812e-11 -0.00014050729805603623" pbc="T T T"
Rb       1.99636648       1.41164446       3.45780836      -0.00000001       0.00000001       0.00000017
Rb       5.98909967       4.23493348      10.37342402       0.00000068       0.00000076       0.00000058
Se      -0.00000023      -0.00000003       0.00000010      -0.00000018       0.00000316       0.00000407
S        1.85150055       1.30920912       6.91561628       0.00350887       0.00248134       0.00000061
S        6.13396580       4.33736892       6.91561600      -0.00351155      -0.00248203      -0.00000003
S        5.06334955       1.30920879       5.06125351      -0.00176108       0.00248998       0.00304919
S        2.92211605       4.33736995       8.76997908       0.00176200      -0.00249359      -0.00305283
S        2.92211686       4.33736921       5.06125369       0.00176170      -0.00249067       0.00304937
S        5.06335019       1.30920824       8.76997867      -0.00176054       0.00249094      -0.00305104
