9
Lattice="6.383522417707817 2.979547156371967e-07 3.68552726747389 2.127841324737961 6.018443153870907 3.6855268553817573 3.4735855103414506e-07 -2.590871901862441e-07 7.371053933303185" Properties=species:S:1:pos:R:3:forces:R:3 energy=-28.54941177368164 free_energy=-28.54941177368164 stress="-5.546422016777797e-06 2.1986901188597585e-08 8.258729700116874e-09 2.1986901188597585e-08 -5.568812866840744e-06 -1.5346206083677316e-08 8.258729700116874e-09 -1.5346206083677316e-08 -5.598222287517274e-06" pbc="T T T"
Rb       2.12784139       1.50460939       3.68552756      -0.00000233      -0.00000154      -0.00000079
Rb       6.38352303       4.51383169      11.05658043      -0.00000010      -0.00000091      -0.00000069
Si       0.00000103       0.00000637       0.00000285      -0.00000158      -0.00000741      -0.00000246
Te       2.25422780       1.59397709       7.37105500       0.00022726       0.00016410       0.00000028
Te       6.25714011       4.42446484       7.37105332      -0.00023142      -0.00016141       0.00000148
Te       5.25640902       1.59397665       5.63774065      -0.00011112       0.00016350       0.00019857
Te       3.25495263       4.42446582       9.10436747       0.00011657      -0.00016215      -0.00020031
Te       3.25495221       4.42446365       5.63774057       0.00011751      -0.00015969       0.00020160
Te       5.25640931       1.59397743       9.10436397      -0.00011470       0.00016541      -0.00019761
