9
Lattice="5.563202015447262 2.6390491682418595e-07 3.2119166586661603 1.8544008155369938 5.245038082101509 3.211916840688629 1.0264996646927784e-08 2.30189435158714e-07 6.423833299552797" Properties=species:S:1:pos:R:3:forces:R:3 energy=-38.46039581298828 free_energy=-38.46039581298828 stress="-0.00016812552348710597 6.06768892907894e-08 5.424991567082316e-09 6.06768892907894e-08 -0.0001682268048170954 -1.4873291931394306e-08 5.424991567082316e-09 -1.4873291931394306e-08 -0.00016819711891002953" pbc="T T T"
Rb       1.85440070       1.31126028       3.21191667      -0.00000014      -0.00000216      -0.00000344
Rb       5.56320214       3.93377832       9.63574971      -0.00000060      -0.00000505      -0.00000121
Se       0.00000178      -0.00002140      -0.00000905       0.00004382      -0.00052502      -0.00022470
O        1.49276033       1.05554570       6.42383430       0.00082994       0.00068271       0.00003680
O        5.92484043       4.18949975       6.42383461      -0.00084472      -0.00050581       0.00003822
O        4.81682090       1.05554663       4.50468768      -0.00042796       0.00068474       0.00076795
O        2.60078120       4.18949990       8.34298190       0.00041187      -0.00050366      -0.00068760
O        2.60078202       4.18949902       4.50468804       0.00041282      -0.00050735       0.00076652
O        4.81682217       1.05554631       8.34298284      -0.00042605       0.00068200      -0.00069070
