9
Lattice="6.106272806093164 1.1404157884683527e-05 3.525465011126325 2.035438224502217 5.757067314531586 3.5254594618760855 -1.0120533845095006e-07 -6.8679769147052795e-06 7.05093019754092" Properties=species:S:1:pos:R:3:forces:R:3 energy=-30.22736167907715 free_energy=-30.22736167907715 stress="-6.724805643898435e-06 -4.1745346379684634e-07 -5.420647752885088e-08 -4.1745346379684634e-07 -7.027151241345564e-06 2.187449297252897e-07 -5.420647752885088e-08 2.187449297252897e-07 -6.872565336379921e-06" pbc="T T T"
Rb       2.03539245       1.43927751       3.52545024       0.00002205      -0.00000556       0.00001257
Rb       6.10626307       4.31780671      10.57637443       0.00002297      -0.00000531       0.00001260
Sn       0.00005187      -0.00001029       0.00002738      -0.00010757       0.00001748      -0.00005066
Se       2.21910132       1.56914740       7.05091844       0.00049408       0.00033043       0.00001223
Se       5.92264218       4.18798702       7.05091215      -0.00048691      -0.00036198       0.00001012
Se       4.99670538       1.56914418       5.44723350      -0.00023264       0.00035457       0.00044772
Se       3.14496951       4.18792563       8.65458431       0.00027186      -0.00035857      -0.00042121
Se       3.14499085       4.18790554       5.44727267       0.00025695      -0.00033662       0.00041963
Se       4.99672689       1.56910383       8.65464606      -0.00024085       0.00036550      -0.00044301
