9
Lattice="5.976358947781779 1.1012641067083306e-07 3.4504526957536745 1.992119577849903 5.634565745488759 3.4504529992762505 -1.0471329416799214e-07 2.97694360805185e-07 6.9009055728757085" Properties=species:S:1:pos:R:3:forces:R:3 energy=-31.411771774291992 free_energy=-31.411771774291992 stress="5.61248671147041e-05 -1.4857713281912766e-08 3.292321082426497e-08 -1.4857713281912766e-08 5.6180630053859204e-05 -4.6435881806417e-09 3.292321082426497e-08 -4.6435881806417e-09 5.617499482468702e-05" pbc="T T T"
Rb       1.99211989       1.40864167       3.45045268      -0.00000068      -0.00000229      -0.00000129
Rb       5.97635877       4.22592452      10.35135887      -0.00000044       0.00000065      -0.00000087
Sn      -0.00000001      -0.00000106       0.00000133       0.00000816       0.00000741      -0.00002604
S        2.04581930       1.44661377       6.90090662      -0.00339979      -0.00240076      -0.00000033
S        5.92265908       4.18795353       6.90090560       0.00338662       0.00239420      -0.00000004
S        4.95344904       1.44661256       5.22218331       0.00169146      -0.00239068      -0.00292873
S        3.01502955       4.18795263       8.57962608      -0.00169903       0.00240338       0.00294381
S        3.01502942       4.18795320       5.22218427      -0.00168833       0.00239384      -0.00293058
S        4.95344855       1.44661364       8.57962629       0.00170180      -0.00240546       0.00294390
