9
Lattice="5.612334389196109 -1.5812855010053842e-07 3.2402826866224297 1.8707782213373654 5.2913579636241295 3.2402822697344646 4.2830753355357854e-07 -2.0772221484144033e-07 6.480564631394539" Properties=species:S:1:pos:R:3:forces:R:3 energy=-42.12281036376953 free_energy=-42.12281036376953 stress="5.087069803266786e-05 1.7777463057200293e-08 2.0680706924736114e-08 1.7777463057200293e-08 5.094019434181973e-05 2.3894948242286773e-08 2.0680706924736114e-08 2.3894948242286773e-08 5.089748447062448e-05" pbc="T T T"
Rb       1.87077850       1.32283919       3.24028218      -0.00000023       0.00000024       0.00000024
Rb       5.61233453       3.96851825       9.72084766      -0.00000006      -0.00000001      -0.00000062
S       -0.00000031       0.00000033      -0.00000083      -0.00000182       0.00000297      -0.00000486
O        1.33881626       0.94668512       6.48056497      -0.00138021      -0.00097477       0.00000094
O        6.14429691       4.34467182       6.48056546       0.00137973       0.00097466       0.00000003
O        4.94292655       0.94668456       4.39973197       0.00069094      -0.00097668      -0.00120091
O        2.54018684       4.34467223       8.56139861      -0.00069058       0.00097644       0.00120020
O        2.54018542       4.34467268       4.39973083      -0.00068855       0.00097489      -0.00119710
O        4.94292626       0.94668558       8.56139886       0.00069094      -0.00097764       0.00120020
