9
Lattice="6.633895276239194 -1.2367985798625438e-06 3.830081729475992 2.2112972128057784 6.25449706486066 3.8300818100901353 1.5330831098957184e-07 2.0713682796392198e-07 7.660163193414285" Properties=species:S:1:pos:R:3:forces:R:3 energy=-28.30755043029785 free_energy=-28.30755043029785 stress="8.629420335637406e-05 -2.290011291705696e-09 -1.5631021810236234e-08 -2.290011291705696e-09 8.632320532342419e-05 7.283667002866423e-09 -1.5631021810236234e-08 7.283667002866423e-09 8.631630043964833e-05" pbc="T T T"
Rb       2.21129885       1.56362413       3.83008190       0.00000004      -0.00000065      -0.00000096
Rb       6.63389453       4.69087208      11.49024524       0.00000063      -0.00000010       0.00000085
Sn       0.00000316      -0.00000156      -0.00000041      -0.00000777       0.00000364       0.00000097
Te       2.46971524       1.74635359       7.66016310      -0.00338769      -0.00239670       0.00000042
Te       6.37547485       4.50814077       7.66016348       0.00339079       0.00239699      -0.00000026
Te       5.39903602       1.74635384       5.96892049       0.00169736      -0.00239873      -0.00293598
Te       3.44615598       4.50814372       9.35140857      -0.00169517       0.00239713       0.00293483
Te       3.44615538       4.50814436       5.96891871      -0.00169413       0.00239681      -0.00293547
Te       5.39903673       1.74635374       9.35140588       0.00169601      -0.00239840       0.00293562
