9
Lattice="5.903885973349402 -1.111539025991688e-07 3.4086099748631904 1.967961931332786 5.566236574539161 3.4086098968980836 -2.861744884917331e-08 -1.1572291629286996e-07 6.817219999293239" Properties=species:S:1:pos:R:3:forces:R:3 energy=-31.924274444580078 free_energy=-31.924274444580078 stress="4.3675536289811134e-06 4.343041482002263e-09 1.827278239829866e-08 4.343041482002263e-09 4.3974573600280564e-06 -4.181744284181832e-09 1.827278239829866e-08 -4.181744284181832e-09 4.441012606548611e-06" pbc="T T T"
Rb       1.96796200       1.39155941       3.40861019       0.00000026       0.00000101      -0.00000113
Rb       5.90388594       4.17467693      10.22582988       0.00000140      -0.00000021      -0.00000152
Si      -0.00000022       0.00000055       0.00000030      -0.00000105      -0.00000091      -0.00000422
Se       1.98917966       1.40656154       6.81722000       0.00042931       0.00030427      -0.00000022
Se       5.88266851       4.15967428       6.81721943      -0.00042930      -0.00030317       0.00000009
Se       4.90929605       1.40656158       5.13128983      -0.00021487       0.00030455       0.00037187
Se       2.96255194       4.15967432       8.50315046       0.00021362      -0.00030178      -0.00037093
Se       2.96255190       4.15967489       5.13128945       0.00021474      -0.00030572       0.00037576
Se       4.90929580       1.40656171       8.50314998      -0.00021416       0.00030202      -0.00036974
