9
Lattice="5.460171338426051 3.773295042387228e-08 3.1524313673072597 1.8200570695037361 5.14789947493874 3.1524315039311124 -2.0316610880183387e-07 2.366922205455851e-08 6.304863086508647" Properties=species:S:1:pos:R:3:forces:R:3 energy=-38.39531707763672 free_energy=-38.39531707763672 stress="0.0001217066528624855 -1.2478856170616837e-08 -1.0976828335174105e-08 -1.2478856170616837e-08 0.00012164952204329893 2.4113465002528756e-08 -1.0976828335174105e-08 2.4113465002528756e-08 0.00012169843103038147" pbc="T T T"
Rb       1.82005712       1.28697490       3.15243144      -0.00000016      -0.00000008       0.00000045
Rb       5.46017141       3.86092449       9.45729466      -0.00000060      -0.00000030      -0.00000057
Sn       0.00000064       0.00000001       0.00000017      -0.00000320       0.00000020      -0.00000026
O        1.68554603       1.19186195       6.30486301       0.00266862       0.00188845       0.00000082
O        5.59468116       3.95603724       6.30486279      -0.00266695      -0.00188762      -0.00000011
O        4.61739814       1.19186186       4.61215774      -0.00133276       0.00188756       0.00231159
O        2.66283005       3.95603775       7.99756819       0.00133455      -0.00188911      -0.00231254
O        2.66283008       3.95603795       4.61215761       0.00133449      -0.00188780       0.00231290
O        4.61739786       1.19186186       7.99756801      -0.00133419       0.00188857      -0.00231147
