9
Lattice="6.0743784549737185 4.698215931687508e-08 3.5070438551084977 2.024792778783795 5.726979021746994 3.5070440003164896 -2.2410072654932253e-07 1.9379820327134683e-08 7.014088098370926" Properties=species:S:1:pos:R:3:forces:R:3 energy=-30.584123611450195 free_energy=-30.584123611450195 stress="-4.042327418574132e-05 7.661643053324951e-08 -6.339185887327403e-08 7.661643053324951e-08 -4.048424671054818e-05 7.797256529329388e-08 -6.339185887327403e-08 7.797256529329388e-08 -4.053479642607272e-05" pbc="T T T"
Rb       2.02479285       1.43174472       3.50704396      -0.00000024      -0.00000010       0.00000049
Rb       6.07437844       4.29523424      10.52113195       0.00000006       0.00000092       0.00000086
Te       0.00000025      -0.00000014      -0.00000081      -0.00001429      -0.00000123       0.00003469
S        1.95956740       1.38562340       7.01408804       0.00289220       0.00204486       0.00000027
S        6.13960277       4.34135522       7.01408801      -0.00288129      -0.00203806      -0.00000014
S        5.09459456       1.38562396       5.20407926      -0.00143880       0.00203389       0.00249261
S        3.00457621       4.34135553       8.82409730       0.00145081      -0.00205129      -0.00251412
S        3.00457658       4.34135566       5.20407884       0.00144491      -0.00204319       0.00250334
S        5.09459483       1.38562379       8.82409728      -0.00145334       0.00205386      -0.00251806
