9
Lattice="6.481876322751584 -3.901651858252999e-07 3.74231655913561 2.160623823018748 6.111176725335597 3.7423187242821387 -2.05968281927908e-06 1.1953349673426137e-06 7.484636685748484" Properties=species:S:1:pos:R:3:forces:R:3 energy=-37.16007995605469 free_energy=-37.16007995605469 stress="6.574109283974394e-05 1.2834817653128994e-07 8.189999789465219e-08 1.2834817653128994e-07 6.52965682093054e-05 -1.6330072583059518e-07 8.189999789465219e-08 -1.6330072583059518e-07 6.560290785273537e-05" pbc="T T T"
Rb       2.16062229       1.52779229       3.74231142       0.00000361       0.00002301       0.00001219
Rb       6.48187258       4.58338758      11.22695716       0.00000151      -0.00002459       0.00000815
Ta       0.00001887      -0.00001112       0.00002022      -0.00006545       0.00003940      -0.00007323
Te       2.28945456       1.61886800       7.48464101      -0.00510497      -0.00356980      -0.00002258
Te       6.35303973       4.49230055       7.48463969       0.00513050       0.00359245      -0.00002079
Te       5.33714955       1.61886924       5.72502775       0.00253223      -0.00354997      -0.00438923
Te       3.30535347       4.49229464       9.24423459      -0.00256513       0.00360011       0.00441328
Te       3.30533088       4.49232002       5.72504380      -0.00250784       0.00352396      -0.00439660
Te       5.33715141       1.61888912       9.24421131       0.00257559      -0.00363450       0.00446888
