9
Lattice="5.981944834021623 -1.9467714008889286e-06 3.453678458648511 1.993979673447658 5.639830710364143 3.453678636113186 -2.0595235884487968e-07 7.171870306716761e-08 6.9073572740168965" Properties=species:S:1:pos:R:3:forces:R:3 energy=-36.50664520263672 free_energy=-36.50664520263672 stress="-6.291008958214661e-07 -2.2488219997285341e-07 -7.584732486520807e-08 -2.2488219997285341e-07 -3.627881994816562e-07 4.976207179652192e-08 -7.584732486520807e-08 4.976207179652192e-08 -2.247950732225945e-07" pbc="T T T"
Rb       1.99398127       1.40995749       3.45367840      -0.00000011      -0.00000246      -0.00000077
Rb       5.98194327       4.22987160      10.36103580      -0.00000019       0.00000253       0.00000135
Ti      -0.00000356      -0.00000094       0.00000193       0.00001666       0.00000257      -0.00000915
Se       2.03140161       1.43641842       6.90735585       0.00093899       0.00066231       0.00000280
Se       5.94452275       4.20340967       6.90735638      -0.00094445      -0.00066677       0.00000142
Se       4.96624289       1.43641970       5.21292718      -0.00046292       0.00065034       0.00079941
Se       3.00968297       4.20340971       8.60178703       0.00045667      -0.00064653      -0.00079574
Se       3.00968266       4.20341016       5.21292672       0.00046086      -0.00065349       0.00080267
Se       4.96624348       1.43641938       8.60178810      -0.00046555       0.00065152      -0.00080205
