9
Lattice="6.0177376672741385 -9.039610161449643e-08 3.474342183821129 2.0059125794885557 5.673576963938588 3.4743419951023675 5.75101746009602e-08 -1.9046629911327526e-07 6.94868426803192" Properties=species:S:1:pos:R:3:forces:R:3 energy=-40.161476135253906 free_energy=-40.161476135253906 stress="-5.802132727694698e-05 5.19202494331239e-08 -4.306792789066094e-08 5.19202494331239e-08 -5.807168417959474e-05 8.0038262240123e-08 -4.306792789066094e-08 8.0038262240123e-08 -5.80767409701366e-05" pbc="T T T"
Rb       2.00591257       1.41839392       3.47434208      -0.00000030      -0.00000043       0.00000013
Rb       6.01773781       4.25518250      10.42302647       0.00000068      -0.00000013       0.00000094
Ta       0.00000068       0.00000022       0.00000015      -0.00000395      -0.00000207       0.00000102
Se       2.08722969       1.47589414       6.94868410       0.00343088       0.00242564      -0.00000017
Se       5.93641986       4.19768259       6.94868415      -0.00342662      -0.00242309      -0.00000088
Se       4.97412228       1.47589472       5.28193558      -0.00171333       0.00242365       0.00297040
Se       3.04952825       4.19768192       8.61543295       0.00171347      -0.00242422      -0.00297072
Se       3.04952710       4.19768336       5.28193570       0.00171692      -0.00242772       0.00297443
Se       4.97412282       1.47589334       8.61543243      -0.00171786       0.00242831      -0.00297514
