9
Lattice="5.8440730705075055 6.826812395297939e-07 3.3740768132829095 1.948024969302677 5.509844440403596 3.3740768672727235 -8.269921484844719e-08 7.646866285790861e-09 6.748153769804813" Properties=species:S:1:pos:R:3:forces:R:3 energy=-38.6986083984375 free_energy=-38.6986083984375 stress="-5.342911754269153e-05 3.0413235663218074e-07 -2.547299482458243e-09 3.0413235663218074e-07 -5.3609830501955e-05 5.2866209188096036e-08 -2.547299482458243e-09 5.2866209188096036e-08 -5.385104668675922e-05" pbc="T T T"
Rb       1.94802465       1.37746112       3.37407663      -0.00000057       0.00000441       0.00000138
Rb       5.84407346       4.13238299      10.12223064       0.00000119       0.00000398      -0.00000043
Ti      -0.00000022      -0.00000073       0.00000021      -0.00000346       0.00000415       0.00000147
S        1.90817178       1.34928079       6.74815408       0.00107253       0.00075796      -0.00000126
S        5.88392448       4.16056334       6.74815322      -0.00106835      -0.00075784       0.00000072
S        4.88998903       1.34928035       5.02660040      -0.00054467       0.00076684       0.00094074
S        2.90210957       4.16056656       8.46970758       0.00054458      -0.00077450      -0.00094458
S        2.90211012       4.16056660       5.02659993       0.00054416      -0.00077501       0.00094578
S        4.88998900       1.34927951       8.46970763      -0.00054565       0.00077000      -0.00094408
