9
Lattice="5.6046376006694665 8.235156616556141e-08 3.2358389296973584 1.8682125579790356 5.284103263297311 3.2358390218758992 -2.258469063729843e-07 -4.680265383991249e-08 6.47167825057281" Properties=species:S:1:pos:R:3:forces:R:3 energy=-48.33522415161133 free_energy=-48.33522415161133 stress="-1.3429383216134738e-05 1.1370183017334057e-07 -3.21340820619298e-08 1.1370183017334057e-07 -1.3439948816085234e-05 -5.034624450672709e-08 -3.21340820619298e-08 -5.034624450672709e-08 -1.3469613804772962e-05" pbc="T T T"
Rb       1.86821283       1.32102595       3.23583886       0.00000065      -0.00000044       0.00000036
Rb       5.60463761       3.96307763       9.70751825      -0.00000127      -0.00000027      -0.00000106
Ti      -0.00000009      -0.00000070      -0.00000024      -0.00000206      -0.00000026       0.00000054
O        1.54431810       1.09199793       6.47167838       0.00029957       0.00021189      -0.00000047
O        5.92853085       4.19210579       6.47167803      -0.00029820      -0.00021100       0.00000043
O        4.83247860       1.09199772       4.57325754      -0.00015336       0.00021672       0.00026450
O        2.64037116       4.19210575       8.37009828       0.00015289      -0.00021717      -0.00026447
O        2.64037161       4.19210573       4.57325778       0.00015309      -0.00021672       0.00026399
O        4.83247846       1.09199727       8.37009833      -0.00015140       0.00021756      -0.00026435
