9
Lattice="6.413306782992652 6.552844510189022e-06 3.7027278777494232 2.137772227248409 6.046536594037518 3.702732863438066 -4.040514781886811e-06 3.2491257592222164e-06 7.405462753872925" Properties=species:S:1:pos:R:3:forces:R:3 energy=-33.796546936035156 free_energy=-33.796546936035156 stress="4.5851302274968475e-06 -1.8976717797158926e-07 -2.347902672283908e-08 -1.8976717797158926e-07 4.945582077198196e-06 1.3965815526262304e-07 -2.347902672283908e-08 1.3965815526262304e-07 5.2910436352249235e-06" pbc="T T T"
Rb       2.13777708       1.51163337       3.70273060       0.00000545       0.00000736       0.00000147
Rb       6.41330037       4.53490959      11.10819271      -0.00001000       0.00000273      -0.00001006
Ti       0.00001444       0.00000504      -0.00005487      -0.00004402      -0.00001326       0.00016462
Te       2.27621689       1.60954740       7.40546903       0.00023851       0.00015337      -0.00000274
Te       6.27484388       4.43699250       7.40546052      -0.00019340      -0.00013304       0.00000910
Te       5.27518222       1.60956695       5.67403290      -0.00006712       0.00008262       0.00010742
Te       3.27586712       4.43700621       9.13691663       0.00013458      -0.00017255      -0.00018811
Te       3.27589617       4.43698545       5.67403545       0.00006839      -0.00010305       0.00011229
Te       5.27520125       1.60953988       9.13691136      -0.00013239       0.00017581      -0.00019408
