9
Lattice="5.691858511790933 -4.890075001139658e-08 3.2861960464765456 1.8972861665831255 5.366335667441794 3.2861959735740025 -3.7041224027116996e-09 -9.190601274517896e-08 6.57239209936875" Properties=species:S:1:pos:R:3:forces:R:3 energy=-53.830902099609375 free_energy=-53.830902099609375 stress="-2.6893376343650743e-05 5.90855586679595e-09 -6.210538572304358e-08 5.90855586679595e-09 -2.7050517019233666e-05 7.02926215012667e-08 -6.210538572304358e-08 7.02926215012667e-08 -2.6940932002617046e-05" pbc="T T T"
Rb       1.89728647       1.34158371       3.28619595       0.00000016       0.00000216      -0.00000173
Rb       5.69185898       4.02475179       9.85858820       0.00000239      -0.00000326       0.00000267
Ta       0.00000038      -0.00000056       0.00000001      -0.00000014       0.00000152      -0.00001103
O        1.60296697       1.13346873       6.57239230       0.00106001       0.00075090      -0.00000157
O        5.98617692       4.23286769       6.57239203      -0.00106138      -0.00074995      -0.00000042
O        4.89037506       1.13346888       4.67440523      -0.00053665       0.00075793       0.00093156
O        2.69876969       4.23286649       8.47037826       0.00053245      -0.00075251      -0.00092310
O        2.69876994       4.23286681       4.67440567       0.00053433      -0.00075918       0.00092721
O        4.89037434       1.13346846       8.47037873      -0.00053093       0.00075239      -0.00092417
