9
Lattice="5.839891176513583 -2.8009176418823937e-07 3.3716629172681936 1.946630141259007 5.505901533726538 3.371662894472782 4.181850579262093e-07 2.677829598760825e-07 6.743325110218784" Properties=species:S:1:pos:R:3:forces:R:3 energy=-42.8768310546875 free_energy=-42.8768310546875 stress="-4.0668368455953896e-05 1.2604090215972974e-07 -6.0329320206165e-08 1.2604090215972974e-07 -4.07514744438231e-05 1.0377680581541426e-07 -6.0329320206165e-08 1.0377680581541426e-07 -4.091133814654313e-05" pbc="T T T"
Rb       1.94663038       1.37647561       3.37166310      -0.00000078      -0.00000301       0.00000060
Rb       5.83989173       4.12942609      10.11498783       0.00000133       0.00000301       0.00000225
Ta      -0.00000201       0.00000116      -0.00000229       0.00000523      -0.00000213       0.00000499
S        1.96462745       1.38920012       6.74332545      -0.00087017      -0.00061443       0.00000088
S        5.82189539       4.11669930       6.74332677       0.00086546       0.00061497      -0.00000128
S        4.85757887       1.38920071       5.07307828       0.00043356      -0.00061372      -0.00074852
S        2.92894393       4.11669959       8.41357424      -0.00043306       0.00061497       0.00074574
S        2.92894325       4.11670323       5.07307694      -0.00042987       0.00060770      -0.00074264
S        4.85757882       1.38920081       8.41357333       0.00042832      -0.00060716       0.00073782
