9
Lattice="5.939838969320249 -3.678883109593459e-07 3.429368126224845 1.979945868615718 5.600134225963188 3.429368312667367 -3.6763271622079817e-07 -3.161116041608508e-08 6.858736889208395" Properties=species:S:1:pos:R:3:forces:R:3 energy=-36.22097396850586 free_energy=-36.22097396850586 stress="6.398417463060468e-05 -8.777437443541203e-08 -5.139235526030461e-08 -8.777437443541203e-08 6.400703568942845e-05 -4.835113198708996e-09 -5.139235526030461e-08 -4.835113198708996e-09 6.411072536138818e-05" pbc="T T T"
Rb       1.97994630       1.40003320       3.42936839       0.00000236      -0.00000315      -0.00000094
Rb       5.93983804       4.20010042      10.28810499       0.00000092       0.00000039       0.00000435
V        0.00000018       0.00000103      -0.00000198       0.00000007       0.00000314      -0.00000560
Se       1.98252348       1.40185662       6.85873740      -0.00041690      -0.00029635      -0.00000152
Se       5.93726187       4.19827646       6.85873805       0.00041506       0.00029662      -0.00000085
Se       4.94857698       1.40185546       5.14628586       0.00020996      -0.00029644      -0.00036517
Se       2.97120825       4.19827626       8.57118804      -0.00021200       0.00030027       0.00036539
Se       2.97120671       4.19827775       5.14628449      -0.00020961       0.00029609      -0.00036120
Se       4.94857602       1.40185816       8.57118824       0.00020997      -0.00030068       0.00036559
