9
Lattice="7.113532392443899 1.152463621831088e-06 4.106998130382057 2.37117786204087 6.706702643919741 4.106999323176144 -4.906084586888514e-07 1.1139561371736374e-06 8.213997110522842" Properties=species:S:1:pos:R:3:forces:R:3 energy=-32.694820404052734 free_energy=-32.694820404052734 stress="3.567235398804769e-05 2.8258133966119203e-07 -4.8833499022293836e-08 2.8258133966119203e-07 3.547337473719381e-05 3.294228001493593e-09 -4.8833499022293836e-08 3.294228001493593e-09 3.5327386285644025e-05" pbc="T T T"
Rb       2.37117717       1.67667626       4.10699839      -0.00000052      -0.00000063       0.00000007
Rb       7.11353253       5.03002885      12.32099684      -0.00000005       0.00000010      -0.00000043
V        0.00000582       0.00000218      -0.00000422      -0.00005893      -0.00001300       0.00005902
Te       2.07683880       1.46854791       8.21399903      -0.00082785      -0.00058432       0.00000514
Te       7.40786893       5.23815527       8.21399710       0.00089052       0.00063056       0.00000174
Te       6.07511376       1.46854769       5.90559052       0.00042123      -0.00060104      -0.00073718
Te       3.40959278       5.23816049      10.52240621      -0.00040257       0.00055926       0.00069223
Te       3.40959546       5.23815747       5.90558973      -0.00041804       0.00058365      -0.00072105
Te       6.07511408       1.46854364      10.52240470       0.00039627      -0.00057456       0.00070034
