9
Lattice="5.5788698353636414 1.9176993285782486e-07 3.2209618916599267 1.8596234587927636 5.259808835449888 3.2209618924639027 4.920094565931796e-08 3.577507881011963e-08 6.441923698101287" Properties=species:S:1:pos:R:3:forces:R:3 energy=-46.82318115234375 free_energy=-46.82318115234375 stress="-2.3654511096538045e-06 -3.6219098831224983e-09 -8.911978710557378e-09 -3.6219098831224983e-09 -2.3432185116689652e-06 8.035175369514036e-08 -8.911978710557378e-09 8.035175369514036e-08 -2.452724856993882e-06" pbc="T T T"
Rb       1.85962308       1.31495290       3.22096200       0.00000030      -0.00000137       0.00000158
Rb       5.57887000       3.94485689       9.66288494       0.00000074      -0.00000093       0.00000037
V       -0.00000027      -0.00000032      -0.00000008       0.00000550       0.00000150       0.00000753
O        1.49694852       1.05850276       6.44192322       0.00005937       0.00003999       0.00000079
O        5.94154431       4.20130618       6.44192404      -0.00006449      -0.00004554       0.00000050
O        4.83039574       1.05850291       4.51735740      -0.00002760       0.00004113       0.00005281
O        2.60809820       4.20130651       8.36649021       0.00003165      -0.00004369      -0.00005400
O        2.60809792       4.20130609       4.51735747       0.00002736      -0.00003600       0.00004733
O        4.83039569       1.05850284       8.36649015      -0.00003219       0.00004482      -0.00005633
