9
Lattice="5.827723220035609 -1.2378833115093884e-07 3.3646377900159217 1.9425747925831234 5.494428886065947 3.364636919464122 6.743278293378456e-07 -5.893823129462739e-07 6.729274412062162" Properties=species:S:1:pos:R:3:forces:R:3 energy=-39.198360443115234 free_energy=-39.198360443115234 stress="-5.131289071869105e-05 1.2221832434988755e-07 3.6960710048106193e-08 1.2221832434988755e-07 -5.134605089551769e-05 -4.456980562395074e-08 3.6960710048106193e-08 -4.456980562395074e-08 -5.145648538018577e-05" pbc="T T T"
Rb       1.94257454       1.37360729       3.36463770       0.00000043       0.00000010      -0.00000193
Rb       5.82772411       4.12082183      10.09391145      -0.00000114      -0.00000078       0.00000130
V        0.00000057      -0.00000070       0.00000091      -0.00000169      -0.00000597      -0.00000293
S        1.83869383       1.30015214       6.72927297       0.00319993       0.00226289      -0.00000031
S        5.93160430       4.19427573       6.72927396      -0.00319570      -0.00225931      -0.00000256
S        4.90837780       1.30015148       4.95699212      -0.00160560       0.00227207       0.00277925
S        2.86192166       4.19427658       8.50155683       0.00160214      -0.00226617      -0.00277567
S        2.86192114       4.19427708       4.95699249       0.00160298      -0.00226730       0.00277567
S        4.90837706       1.30015135       8.50155827      -0.00160134       0.00226456      -0.00277275
