9
Lattice="6.065032515969593 -2.0407618875137762e-07 3.5016476606050055 2.0216776373498613 5.718167088230156 3.5016470986728465 2.2642157205371713e-07 -5.28119325600331e-07 7.003294929036434" Properties=species:S:1:pos:R:3:forces:R:3 energy=-44.36104202270508 free_energy=-44.36104202270508 stress="1.1334402188367676e-05 4.746979698211362e-09 1.3635393258937256e-07 4.746979698211362e-09 1.1332166650390718e-05 -2.1508270720005385e-07 1.3635393258937256e-07 -2.1508270720005385e-07 1.1343666301399935e-05" pbc="T T T"
Rb       2.02167780       1.42954230       3.50164757       0.00000098      -0.00000003       0.00000100
Rb       6.06503232       4.28862443      10.50494318      -0.00000096       0.00000088      -0.00000007
W        0.00000060      -0.00000229      -0.00000074      -0.00001828       0.00003951      -0.00002668
S        1.84643679       1.30562926       7.00329580      -0.00235877      -0.00166859      -0.00000232
S        6.24027273       4.41253764       7.00329634       0.00235104       0.00166673      -0.00000310
S        5.14181544       1.30562636       5.10070918       0.00117079      -0.00165923      -0.00203675
S        2.94489645       4.41253848       8.90587929      -0.00116940       0.00165640       0.00202681
S        2.94489644       4.41253943       5.10070929      -0.00117156       0.00165763      -0.00203279
S        5.14181288       1.30562981       8.90587874       0.00119603      -0.00169321       0.00207400
