9
Lattice="7.179966357650999 1.8678277319890929e-07 4.145355616828433 2.3933222523495044 6.7693373314666 4.145355691251235 -9.770112033863066e-08 2.2063750728582458e-08 8.290711402880156" Properties=species:S:1:pos:R:3:forces:R:3 energy=-36.0845947265625 free_energy=-36.0845947265625 stress="-3.3765685657272115e-05 1.206356881056081e-08 1.475600419631462e-09 1.206356881056081e-08 -3.375682354089804e-05 -5.637379452139157e-09 1.475600419631462e-09 -5.637379452139157e-09 -3.380014459253289e-05" pbc="T T T"
Rb       2.39332221       1.69233441       4.14535552       0.00000044       0.00000085      -0.00000020
Rb       7.17996628       5.07700331      12.43606753      -0.00000054      -0.00000114      -0.00000014
W       -0.00000053      -0.00000024      -0.00000151       0.00001751       0.00001060       0.00002633
Te       2.08709481       1.47579904       8.29071184       0.00253254       0.00179123       0.00000078
Te       7.48619441       5.29353942       8.29071187      -0.00254943      -0.00180263       0.00000073
Te       6.13641922       1.47579755       5.95283320      -0.00126766       0.00179268       0.00219679
Te       3.43686901       5.29354010      10.62858945       0.00127605      -0.00180447      -0.00221009
Te       3.43686928       5.29353933       5.95283334       0.00126693      -0.00179150       0.00219548
Te       6.13641941       1.47579734      10.62858961      -0.00127584       0.00180438      -0.00220967
