9
Lattice="5.692512209876649 2.8231161675845853e-07 3.286573631410274 1.8975041944583513 5.366952664361854 3.2865738767837414 3.619813101714773e-07 5.564793065659489e-07 6.573146635850782" Properties=species:S:1:pos:R:3:forces:R:3 energy=-48.64449691772461 free_energy=-48.64449691772461 stress="-0.00012306979624554515 1.2068538168819032e-08 8.395537065553071e-08 1.2068538168819032e-08 -0.00012315649655647576 -4.2035058100964307e-08 8.395537065553071e-08 -4.2035058100964307e-08 -0.00012314529158174992" pbc="T T T"
Rb       1.89750431       1.34173850       3.28657272       0.00000093       0.00000050       0.00000027
Rb       5.69251335       4.02521546       9.85972232      -0.00000162       0.00000051      -0.00000068
W       -0.00000027       0.00000089      -0.00000029       0.00000144      -0.00000567       0.00000787
O        1.54677977       1.09373691       6.57314695       0.00433004       0.00306791      -0.00000094
O        6.04323783       4.27321601       6.57314647      -0.00432801      -0.00306439       0.00000370
O        4.91912261       1.09373782       4.62612278      -0.00216657       0.00306541       0.00375617
O        2.67089438       4.27321577       8.52017200       0.00216717      -0.00306928      -0.00376099
O        2.67089380       4.27321523       4.62612236       0.00215954      -0.00306064       0.00374991
O        4.91912150       1.09373785       8.52017127      -0.00216252       0.00306582      -0.00375503
