9
Lattice="6.403071553965738 1.0222718024242193e-07 3.6968148682872335 2.1343573718614977 6.036873347795444 3.696814710972726 1.9059331772750173e-07 -5.790031381898879e-08 7.393629406457651" Properties=species:S:1:pos:R:3:forces:R:3 energy=-40.60860824584961 free_energy=-40.60860824584961 stress="-3.414626917219721e-05 1.8012357827501546e-07 1.0209533485294742e-07 1.8012357827501546e-07 -3.4259315725648776e-05 -1.4683978122320696e-07 1.0209533485294742e-07 -1.4683978122320696e-07 -3.4387809137115255e-05" pbc="T T T"
Rb       2.13435719       1.50921841       3.69681493      -0.00000011      -0.00000019      -0.00000022
Rb       6.40307148       4.52765475      11.09044431       0.00000031       0.00000059      -0.00000006
W        0.00000032      -0.00000003      -0.00000100      -0.00000311      -0.00000380       0.00002188
Se       1.93297311       1.36681935       7.39362903       0.00111330       0.00078684       0.00000060
Se       6.60445532       4.67005432       7.39362965      -0.00110902      -0.00078316       0.00000055
Se       5.43658574       1.36681680       5.37081652      -0.00056585       0.00079985       0.00098051
Se       3.10084343       4.67005685       9.41644284       0.00057237      -0.00081058      -0.00099175
Se       3.10084404       4.67005495       5.37081821       0.00055589      -0.00078653       0.00096472
Se       5.43658552       1.36681839       9.41644180      -0.00056380       0.00079694      -0.00097622
