9
Lattice="6.574237955089663 -6.148206412578942e-07 3.795638432139929 2.1914120434780275 6.1982514097408545 3.795638481607611 -1.903305432672588e-07 -7.399881632469935e-08 7.591277193942309" Properties=species:S:1:pos:R:3:forces:R:3 energy=-35.14710235595703 free_energy=-35.14710235595703 stress="-0.0002587264170870185 1.5203129422047823e-08 1.7748371661241436e-08 1.5203129422047823e-08 -0.0002587527851574123 5.802406999322329e-09 1.7748371661241436e-08 5.802406999322329e-09 -0.00025875496794469655" pbc="T T T"
Rb       2.19141233       1.54956296       3.79563884      -0.00000050       0.00000030       0.00000088
Rb       6.57423781       4.64868791      11.38691542      -0.00000002      -0.00000061      -0.00000098
Zr       0.00000007      -0.00000021      -0.00000067       0.00000025       0.00000087       0.00000308
Te       2.37667427       1.68056314       7.59127690      -0.00709233      -0.00501380      -0.00000053
Te       6.38897543       4.51768750       7.59127724       0.00709067       0.00501420       0.00000133
Te       5.38590051       1.68056227       5.85389915       0.00354636      -0.00501512      -0.00614183
Te       3.37974882       4.51768908       9.32865547      -0.00354364       0.00501268       0.00613884
Te       3.37975156       4.51769032       5.85389913      -0.00354843       0.00501072      -0.00613962
Te       5.38589832       1.68056004       9.32865486       0.00354757      -0.00500924       0.00613888
