9
Lattice="5.892973853114848 -3.10624158318814e-09 3.4023099876245624 1.9643241957509632 5.555949938754929 3.402310713398228 -7.835946908942365e-08 8.33478788597267e-07 6.804620110971891" Properties=species:S:1:pos:R:3:forces:R:3 energy=-39.031028747558594 free_energy=-39.031028747558594 stress="0.00018270054715685546 -3.834597350760305e-08 -5.034668859593694e-08 -3.834597350760305e-08 0.0001827759697334841 7.823105363513605e-08 -5.034668859593694e-08 7.823105363513605e-08 0.00018280460790265352" pbc="T T T"
Rb       1.96432450       1.38898761       3.40231007       0.00000133      -0.00000004      -0.00000115
Rb       5.89297331       4.16696293      10.20693074      -0.00000142       0.00000269       0.00000019
Zr      -0.00000019      -0.00000141      -0.00000240       0.00000100       0.00000817       0.00001846
S        2.05739207       1.45479662       6.80462042      -0.00532162      -0.00376511      -0.00000037
S        5.79990684       4.10115393       6.80462013       0.00531811       0.00376049      -0.00000086
S        4.86427612       1.45479692       5.18406517       0.00266679      -0.00377086      -0.00461835
S        2.99302062       4.10115593       8.42517639      -0.00266185       0.00376138       0.00460875
S        2.99301940       4.10115336       5.18406529      -0.00266121       0.00376523      -0.00461185
S        4.86427913       1.45479700       8.42517771       0.00265884      -0.00376198       0.00460544
