9
Lattice="5.46637222089579 3.286476367976896e-08 3.1560113259639526 1.822123965896834 5.153745589593014 3.1560115662345325 -3.4201430479931887e-07 5.242951708257963e-08 6.312023244313935" Properties=species:S:1:pos:R:3:forces:R:3 energy=-47.79766845703125 free_energy=-47.79766845703125 stress="0.0002635435957927257 9.219658636538952e-08 -3.682426807927186e-08 9.219658636538952e-08 0.0002634427510201931 2.92376558519436e-08 -3.682426807927186e-08 2.92376558519436e-08 0.00026336207520216703" pbc="T T T"
Rb       1.82212398       1.28843664       3.15601155      -0.00000011      -0.00000254      -0.00000057
Rb       5.46637222       3.86530924       9.46803556      -0.00000103      -0.00000154      -0.00000199
Zr      -0.00000005      -0.00000017      -0.00000097      -0.00000181       0.00000452       0.00001218
O        1.69779417       1.20052194       6.31202319      -0.00468045      -0.00330913       0.00000108
O        5.59070143       3.95322322       6.31202254       0.00468051       0.00330985       0.00000146
O        4.61747468       1.20052219       4.62634439       0.00233924      -0.00330800      -0.00405163
O        2.67102048       3.95322441       7.99770239      -0.00233340       0.00330228       0.00404358
O        2.67102093       3.95322401       4.62634369      -0.00233600       0.00330424      -0.00404572
O        4.61747511       1.20052124       7.99770221       0.00233302      -0.00329947       0.00404137
