9
Lattice="4.300213534800253 -3.824947742708924e-08 2.482729411883311 1.4334045047943385 4.054279953052713 2.4827293612100685 7.92692398869669e-08 -6.009974639214112e-09 4.965458686468276" Properties=species:S:1:pos:R:3:forces:R:3 energy=-75.6522216796875 free_energy=-75.6522216796875 stress="-3.622100166467135e-06 -7.975946800797828e-07 -8.871007395327979e-08 -7.975946800797828e-07 -3.5222781207266962e-06 -1.4770074585612747e-07 -8.871007395327979e-08 -1.4770074585612747e-07 -2.088067958538886e-06" pbc="T T T"
Re       1.43340450       1.01356949       2.48272937      -0.00000877       0.00001230       0.00000380
Re       4.30021277       3.04070975       7.44818833      -0.00001432      -0.00000695       0.00001160
Cr      -0.00000029       0.00000007       0.00000044       0.00013794       0.00001454      -0.00013960
N        1.51265167       1.06960573       4.96545867      -0.00004125      -0.00003088       0.00000353
N        4.22096677       2.98467431       4.96545865      -0.00005078      -0.00001848       0.00000216
N        3.54388804       1.06960629       3.79272388      -0.00000012       0.00000215       0.00000501
N        2.18973034       2.98467383       6.13819340      -0.00004292       0.00005591       0.00006330
N        2.18973050       2.98467373       3.79272376      -0.00000775       0.00000656      -0.00000226
N        3.54388810       1.06960646       6.13819353       0.00002599      -0.00003350       0.00005186
