9
Lattice="4.174411015459625 2.1980759146178123e-08 2.4100973870940634 1.3914703720991755 3.9356723602137262 2.4100973647697104 5.676051607699178e-08 1.2794099487494105e-08 4.820194675876032" Properties=species:S:1:pos:R:3:forces:R:3 energy=-64.51009368896484 free_energy=-64.51009368896484 stress="0.00011322351929266006 1.0969407071570458e-07 8.680762419999155e-08 1.0969407071570458e-07 0.00011309276305837557 -4.818869214773258e-08 8.680762419999155e-08 -4.818869214773258e-08 0.00011338756303302944" pbc="T T T"
Re       1.39147117       0.98391859       2.41009714       0.00001192       0.00000971      -0.00000141
Re       4.17440990       2.95175438       7.23029358      -0.00002033       0.00000353       0.00002920
C       -0.00000098      -0.00000004      -0.00000292      -0.00002605      -0.00000289      -0.00006225
N        1.31985451       0.93327754       4.82019448      -0.00058913      -0.00042260      -0.00000345
N        4.24602777       3.00239539       4.82019378       0.00060642       0.00043428      -0.00001639
N        3.51448392       0.93327815       3.55312458       0.00029445      -0.00040936      -0.00051463
N        2.05139697       3.00239496       6.08726616      -0.00030690       0.00042725       0.00053465
N        2.05139799       3.00239388       3.55312470      -0.00028068       0.00040340      -0.00050843
N        3.51448466       0.93327678       6.08726614       0.00030875      -0.00044310       0.00054145
