9
Lattice="4.23159555634813 -1.308914866896616e-08 2.443112766309792 1.4105318491422771 3.98958654079296 2.4431127500860166 3.895375967921091e-08 7.674481693427284e-09 4.886225465149691" Properties=species:S:1:pos:R:3:forces:R:3 energy=-66.10127258300781 free_energy=-66.10127258300781 stress="0.000234359540627338 5.1675673518047915e-08 7.221347431141112e-08 5.1675673518047915e-08 0.00023439100186806172 7.959046754990595e-09 7.221347431141112e-08 7.959046754990595e-09 0.00023443487589247525" pbc="T T T"
Re       1.41053202       0.99739862       2.44311290      -0.00000058       0.00004507       0.00000207
Re       4.23159393       2.99219078       7.32933731      -0.00003132       0.00002354      -0.00002120
Co       0.00000015      -0.00000005       0.00000007      -0.00000337       0.00000023      -0.00000537
N        1.47157888       1.04056245       4.88622522      -0.00687301      -0.00487876      -0.00000396
N        4.17054920       2.94902306       4.88622589       0.00688863       0.00485361       0.00000838
N        3.49580626       1.04056282       3.71753712       0.00344110      -0.00487593      -0.00595796
N        2.14632150       2.94902254       6.05491480      -0.00343025       0.00485036       0.00597507
N        2.14632138       2.94902281       3.71753662      -0.00343838       0.00485215      -0.00596493
N        3.49580649       1.04056315       6.05491397       0.00344631      -0.00487015       0.00596702
