9
Lattice="4.241575709566163 -1.1154880091448134e-07 2.448872778891099 1.4138583818866004 3.998996798659755 2.4488729223035697 -8.595890300893535e-07 -4.3217724207137226e-07 4.89774704663428" Properties=species:S:1:pos:R:3:forces:R:3 energy=-109.28245544433594 free_energy=-109.28245544433594 stress="-0.0004278999113012105 7.499338607885875e-06 -1.356481880065985e-05 7.499338607885875e-06 -0.0003928400110453367 -1.315927966061281e-05 -1.356481880065985e-05 -1.315927966061281e-05 -0.0004915319150313735" pbc="T T T"
Re       1.41385818       0.99974697       2.44887274       0.00005968       0.00074772       0.00006191
Re       4.24157445       2.99924463       7.34662016       0.00011483       0.00082153      -0.00011429
Fe       0.00000035       0.00001026      -0.00000160       0.00005175      -0.00337967       0.00092895
N        1.56888270       1.10936060       4.89774873      -0.00366497      -0.00017738      -0.00063108
N        4.08656443       2.88963490       4.89774560      -0.00150776       0.00027227       0.00017459
N        3.45713719       1.10935703       3.80756273       0.00078821       0.00109100      -0.00248861
N        2.19828979       2.88963629       5.98794055       0.00162411      -0.00016832      -0.00152445
N        2.19829133       2.88963731       3.80755259       0.00114202      -0.00038958       0.00112677
N        3.45713456       1.10935687       5.98792949       0.00140047       0.00117874       0.00246382
