9
Lattice="4.168449271811687 -3.507941810175604e-08 2.406655391250343 1.3894830339698636 3.9300517353403595 2.406655432058921 -1.4570860028283505e-07 -5.3051451390684224e-08 4.813311034875389" Properties=species:S:1:pos:R:3:forces:R:3 energy=-62.388465881347656 free_energy=-62.388465881347656 stress="-6.584147922694683e-05 6.742699554251885e-08 2.480568639384728e-08 6.742699554251885e-08 -6.55341282254085e-05 1.594185050635133e-07 2.480568639384728e-08 1.594185050635133e-07 -6.608065450564027e-05" pbc="T T T"
Re       1.38948286       0.98251256       2.40665647      -0.00000316      -0.00000513       0.00001462
Re       4.16844923       2.94753933       7.21996706       0.00000043       0.00000914       0.00000542
Ge      -0.00000004      -0.00000004      -0.00000014      -0.00000186      -0.00000184      -0.00000186
N        1.53156595       1.08298060       4.81331072      -0.00036681      -0.00025862      -0.00000442
N        4.02636635       2.84707073       4.81331056       0.00037372       0.00026077      -0.00000541
N        3.40266588       1.08298039       3.73303020       0.00018239      -0.00026435      -0.00032151
N        2.15526618       2.84707147       5.89359111      -0.00018775       0.00026619       0.00031793
N        2.15526599       2.84707115       3.73303041      -0.00018227       0.00025803      -0.00031900
N        3.40266632       1.08298037       5.89359107       0.00018603      -0.00026482       0.00031388
