9
Lattice="4.317544662978536 4.657506709986163e-10 2.4927354424622816 1.4391815416354237 4.070619717619443 2.492735465203882 6.027298461925568e-08 7.04720891872459e-08 4.9854707805286855" Properties=species:S:1:pos:R:3:forces:R:3 energy=-64.19325256347656 free_energy=-64.19325256347656 stress="0.0004788715159520507 2.5283392801611626e-07 -7.530471748395939e-07 2.5283392801611626e-07 0.00047988814185373485 -4.6833264377710293e-07 -7.530471748395939e-07 -4.6833264377710293e-07 0.0004794829001184553" pbc="T T T"
Re       1.43918445       1.01765159       2.49273470       0.00009338      -0.00011941      -0.00002177
Re       4.31754404       3.05296399       7.47821174      -0.00001644      -0.00003096       0.00017692
Ir      -0.00000017      -0.00000003      -0.00000020      -0.00000340      -0.00000962       0.00000400
N        1.57518496       1.11382541       4.98547129      -0.00210023      -0.00144708       0.00001298
N        4.18153732       2.95679967       4.98546658       0.00200081       0.00158817      -0.00012970
N        3.52995248       1.11382536       3.85688583       0.00105286      -0.00143027      -0.00182700
N        2.22677476       2.95679495       6.11405571      -0.00105059       0.00147516       0.00179672
N        2.22677633       2.95679512       3.85688564      -0.00097430       0.00148565      -0.00181746
N        3.52995079       1.11382313       6.11405544       0.00099760      -0.00151092       0.00180459
