9
Lattice="4.220006639146323 1.3299759196120266e-08 2.4364220176387907 1.4066688542378876 3.978660520613443 2.4364220834856227 -4.602853045826627e-08 4.8098486786774124e-08 4.872844115001331" Properties=species:S:1:pos:R:3:forces:R:3 energy=-69.36746978759766 free_energy=-69.36746978759766 stress="-5.330678050086135e-07 -2.583732054972643e-07 4.302481215745502e-08 -2.583732054972643e-07 2.7982389383396367e-07 -9.689309798943668e-09 4.302481215745502e-08 -9.689309798943668e-09 1.247835683670928e-07" pbc="T T T"
Re       1.40666881       0.99466505       2.43642196      -0.00000435       0.00000918      -0.00001409
Re       4.22000659       2.98399515       7.30926580      -0.00000237       0.00000878       0.00000195
Ni      -0.00000042       0.00000050      -0.00000041       0.00005167      -0.00010010       0.00006420
N        1.54430511       1.09198897       4.87284416       0.00317764       0.00223625       0.00000465
N        4.08237029       2.88667184       4.87284431      -0.00317836      -0.00224137       0.00000898
N        3.44785400       1.09198875       3.77382979      -0.00159097       0.00224507       0.00276589
N        2.17882158       2.88667174       5.97185850       0.00159907      -0.00224304      -0.00274420
N        2.17882147       2.88667148       3.77383005       0.00156367      -0.00220215       0.00270510
N        3.44785436       1.09198886       5.97185877      -0.00161660       0.00228715      -0.00279284
