9
Lattice="4.322568308273377 -7.673947615018661e-08 2.495635964433603 1.4408560332983729 4.075356063560663 2.4956359594258024 8.729118713285128e-09 3.913880132311648e-11 4.991271913747926" Properties=species:S:1:pos:R:3:forces:R:3 energy=-69.42211151123047 free_energy=-69.42211151123047 stress="0.00010769363143481314 3.2131279681379965e-07 -4.692337540745939e-08 3.2131279681379965e-07 0.00010840151662705466 -1.3053774239324412e-07 -4.692337540745939e-08 -1.3053774239324412e-07 0.00010774559632409364" pbc="T T T"
Re       1.44086134       1.01883843       2.49563555       0.00013353      -0.00000397      -0.00000519
Re       4.32257268       3.05652214       7.48690897       0.00011332       0.00011631       0.00001879
Os      -0.00000063      -0.00000021      -0.00000029      -0.00001364      -0.00001190       0.00001122
N        1.51425756       1.07074148       4.99127154       0.00174868       0.00123322      -0.00000342
N        4.24916555       3.00461509       4.99127188      -0.00177407      -0.00121927      -0.00000368
N        3.56543763       1.07073965       3.80702207      -0.00092983       0.00119853       0.00153148
N        2.19798306       3.00461400       6.17552139       0.00083137      -0.00125694      -0.00154567
N        2.19798393       3.00461394       3.80702193       0.00084978      -0.00125110       0.00152373
N        3.56543619       1.07073943       6.17552227      -0.00095963       0.00119591      -0.00152707
