9
Lattice="4.246216102166357 6.819972288277383e-08 2.4515541316116325 1.4154054237043625 4.003371185176173 2.451554145439876 -5.019268647307452e-08 -1.8555522175848845e-08 4.903108350159546" Properties=species:S:1:pos:R:3:forces:R:3 energy=-65.01145935058594 free_energy=-65.01145935058594 stress="5.610364314634353e-05 6.590063890143938e-07 9.445565751775575e-08 6.590063890143938e-07 5.497752863448113e-05 1.4259197200772178e-07 9.445565751775575e-08 1.4259197200772178e-07 5.516324381460436e-05" pbc="T T T"
Re       1.41540573       1.00084282       2.45155401       0.00001510       0.00000666      -0.00000212
Re       4.24621619       3.00252802       7.35466213       0.00001152      -0.00001536      -0.00000836
Pt       0.00000016       0.00000005      -0.00000028      -0.00002649       0.00000265       0.00002405
N        1.55980092       1.10294583       4.90310834       0.00073385       0.00051999      -0.00000491
N        4.10182048       2.90042531       4.90310826      -0.00072718      -0.00051129      -0.00000228
N        3.46631581       1.10294580       3.80238160      -0.00036907       0.00052059       0.00063062
N        2.19530571       2.90042506       6.00383522       0.00036830      -0.00052822      -0.00064516
N        2.19530530       2.90042562       3.80238170       0.00036365      -0.00052285       0.00064111
N        3.46631562       1.10294637       6.00383576      -0.00036961       0.00052893      -0.00063384
