9
Lattice="4.254842400177037 -1.4276389605884445e-07 2.45653459455679 1.4182806383574005 4.011504002836812 2.4565346414996934 -9.018150218105426e-08 -6.274838833815901e-09 4.913069345312478" Properties=species:S:1:pos:R:3:forces:R:3 energy=-67.26074981689453 free_energy=-67.26074981689453 stress="0.00016284699086099863 -3.4605719179126027e-07 -1.320489246836587e-07 -3.4605719179126027e-07 0.00016257876995950937 -1.0214632339966556e-07 -1.320489246836587e-07 -1.0214632339966556e-07 0.00016349213547073305" pbc="T T T"
Re       1.41828223       1.00287566       2.45653446       0.00001903      -0.00000267      -0.00000686
Re       4.25484119       3.00862823       7.36960510      -0.00001054       0.00000435       0.00001955
P        0.00000005       0.00000002      -0.00000013      -0.00000051      -0.00000134      -0.00000298
N        1.42548029       1.00796667       4.91306910       0.00654769       0.00462174      -0.00000060
N        4.24764287       3.00353701       4.91306848      -0.00654900      -0.00462413      -0.00000892
N        3.54210220       1.00796686       3.69103715      -0.00327027       0.00461566       0.00564849
N        2.13102093       3.00353702       6.13510129       0.00326765      -0.00461042      -0.00564992
N        2.13102119       3.00353709       3.69103689       0.00327164      -0.00461793       0.00564909
N        3.54210116       1.00796670       6.13510167      -0.00327480       0.00461519      -0.00564706
