9
Lattice="4.21657525071386 -1.2321436125856243e-09 2.434440846538938 1.4055250926395877 3.975425163478893 2.4344408288200983 1.2165765172512337e-09 -2.084080686083976e-08 4.868881690970699" Properties=species:S:1:pos:R:3:forces:R:3 energy=-67.63472747802734 free_energy=-67.63472747802734 stress="0.00011878624354721978 -4.386465590755506e-08 1.96946018604649e-07 -4.386465590755506e-08 0.00011919350799871609 -4.3624588386137475e-08 1.96946018604649e-07 -4.3624588386137475e-08 0.00011900389654329047" pbc="T T T"
Re       1.40552538       0.99385613       2.43444074       0.00000226       0.00000286      -0.00000754
Re       4.21657506       2.98156938       7.30332170       0.00000536       0.00000232      -0.00000974
Rh      -0.00000030      -0.00000022       0.00000096      -0.00000183      -0.00000192       0.00000642
N        1.60032675       1.13160162       4.86888180       0.00056863       0.00040424      -0.00000579
N        4.02177361       2.84382350       4.86888174      -0.00057113      -0.00040483       0.00000679
N        3.41641204       1.13160165       3.82036435      -0.00029159       0.00040329       0.00049555
N        2.20568855       2.84382326       5.91739905       0.00028759      -0.00039613      -0.00049293
N        2.20568842       2.84382342       3.82036417       0.00027990      -0.00040960       0.00049746
N        3.41641186       1.13160181       5.91739896      -0.00027955       0.00040030      -0.00049198
