9
Lattice="4.275537461963203 -6.616041061465916e-08 2.468482758752986 1.4251790929021777 4.03101546136826 2.4684827565167753 -8.975854294105977e-08 -6.6207657680698e-08 4.936965672972289" Properties=species:S:1:pos:R:3:forces:R:3 energy=-65.36772918701172 free_energy=-65.36772918701172 stress="-0.0006118996534496546 -1.0063932620596461e-07 3.114262767667242e-07 -1.0063932620596461e-07 -0.0006118799210526049 1.406189085173537e-07 3.114262767667242e-07 1.406189085173537e-07 -0.0006117292796261609" pbc="T T T"
Re       1.42517916       1.00775606       2.46848309       0.00000631       0.00007637       0.00001101
Re       4.27553800       3.02326418       7.40544484       0.00001899       0.00008515      -0.00010808
Ru      -0.00000052      -0.00000087      -0.00000018       0.00000212      -0.00000141       0.00000398
N        1.53267368       1.08376274       4.93696606       0.00530291       0.00370777       0.00000791
N        4.16804421       2.94725176       4.93696759      -0.00527859      -0.00375831       0.00005611
N        3.50920029       1.08376208       3.79581770      -0.00265878       0.00368482       0.00460774
N        2.19151537       2.94725187       6.07811516       0.00264788      -0.00375420      -0.00456548
N        2.19151427       2.94725004       3.79581603       0.00260139      -0.00377673       0.00456750
N        3.50920135       1.08376335       6.07811438      -0.00264245       0.00373679      -0.00458169
