9
Lattice="4.2922367700251955 -6.717301244213445e-08 2.478123993084634 1.43074555218392 4.046759567084393 2.478123948905499 -5.1526781107828815e-09 -5.775167836315507e-08 4.956247995093958" Properties=species:S:1:pos:R:3:forces:R:3 energy=-63.20891189575195 free_energy=-63.20891189575195 stress="0.0001384079223498702 1.3447968072455296e-08 -6.092401605428677e-08 1.3447968072455296e-08 0.00013851320545654744 -4.765079442137221e-09 -6.092401605428677e-08 -4.765079442137221e-09 0.00013835886784363538" pbc="T T T"
Re       1.43074582       1.01169060       2.47812384       0.00000276       0.00000989      -0.00000288
Re       4.29223691       3.03506923       7.43437292       0.00000057      -0.00000598       0.00001675
S       -0.00000004       0.00000009      -0.00000051      -0.00000021      -0.00000045      -0.00000812
N        1.39557009       0.98681725       4.95624801      -0.00096166      -0.00067711      -0.00000137
N        4.32741192       3.05994215       4.95624761       0.00096095       0.00067699      -0.00000644
N        3.59445194       0.98681702       3.68672354       0.00048274      -0.00067616      -0.00082982
N        2.12853058       3.05994205       6.22577252      -0.00048661       0.00067818       0.00083399
N        2.12853077       3.05994219       3.68672310      -0.00047505       0.00067520      -0.00083542
N        3.59445113       0.98681723       6.22577274       0.00047606      -0.00068045       0.00083447
