9
Lattice="4.151610907501289 4.362390989023132e-06 2.3969301775146183 1.383873808118521 3.914173686555385 2.396931229358621 1.5837335183532682e-06 2.4081082505869857e-06 4.79385761192135" Properties=species:S:1:pos:R:3:forces:R:3 energy=-70.56961059570312 free_energy=-70.56961059570312 stress="-1.2381857231957838e-05 6.009190656186547e-06 1.2331161087786313e-06 6.009190656186547e-06 -1.7633277821005322e-05 2.510339299988118e-06 1.2331161087786313e-06 2.510339299988118e-06 -2.129987842636183e-05" pbc="T T T"
Re       1.38387121       0.97854333       2.39692977      -0.00000467       0.00004284       0.00005506
Re       4.15161414       2.93563445       7.19079009       0.00001261       0.00000975       0.00002763
Se      -0.00000049      -0.00001202      -0.00002194       0.00001959       0.00206077       0.00432614
N        1.54401357       1.09177810       4.79385258      -0.00209093      -0.00075293       0.00146747
N        3.99148716       2.82240383       4.79385293      -0.00091267       0.00000715       0.00149098
N        3.37959610       1.09179419       3.73409072       0.00298643      -0.00349998      -0.00358725
N        2.15586222       2.82241535       5.85366136       0.00234866      -0.00262451      -0.00265503
N        2.15588227       2.82238701       3.73407838      -0.00151610       0.00281882      -0.00104666
N        3.37961551       1.09176690       5.85364782      -0.00084329       0.00193620      -0.00007772
