9
Lattice="4.171853756599776 1.0671363823789402e-07 2.4086209312645233 1.3906179499788864 3.9332618444221312 2.4086210516391025 -4.6384063043064204e-08 1.1462966011714761e-07 4.817241942868603" Properties=species:S:1:pos:R:3:forces:R:3 energy=-67.5587158203125 free_energy=-67.5587158203125 stress="-0.00012304677511565387 -1.0599116251341911e-07 -1.8625643249947643e-08 -1.0599116251341911e-07 -0.00012270895240362734 6.585744927178894e-08 -1.8625643249947643e-08 6.585744927178894e-08 -0.00012321477697696537" pbc="T T T"
Re       1.39061754       0.98331546       2.40862104      -0.00000572       0.00000049      -0.00000007
Re       4.17185409       2.94994681       7.22586304       0.00000717       0.00000116      -0.00000109
Si      -0.00000002       0.00000003      -0.00000008       0.00000470      -0.00000070      -0.00000523
N        1.49689994       1.05846833       4.81724211      -0.00180852      -0.00128198      -0.00000131
N        4.06557162       2.87479380       4.81724210       0.00180519       0.00127840      -0.00000019
N        3.42340389       1.05846811       3.70497459       0.00090080      -0.00127947      -0.00156844
N        2.13906769       2.87479375       5.92950931      -0.00090683       0.00128531       0.00157392
N        2.13906788       2.87479366       3.70497443      -0.00090122       0.00127697      -0.00156701
N        3.42340393       1.05846822       5.92950931       0.00090349      -0.00127947       0.00156927
