9
Lattice="4.293228540672469 -6.312839243146056e-08 2.4786966878157926 1.4310761230840607 4.04769451664487 2.4786966836971134 2.8567382925178704e-08 1.515584494381197e-08 4.957393326151427" Properties=species:S:1:pos:R:3:forces:R:3 energy=-70.50668334960938 free_energy=-70.50668334960938 stress="-4.380868631415069e-05 1.1614507400281582e-07 1.850140662895683e-08 1.1614507400281582e-07 -4.422130950842984e-05 -2.3789255010342458e-07 1.850140662895683e-08 -2.3789255010342458e-07 -4.418414391693659e-05" pbc="T T T"
Re       1.43107753       1.01192339       2.47869419       0.00004085       0.00000199      -0.00008813
Re       4.29322902       3.03577177       7.43608724       0.00003268       0.00003346      -0.00011349
V        0.00000005       0.00000012       0.00000014       0.00000370      -0.00000474      -0.00001678
N        1.53492722       1.08535695       4.95739476      -0.00554514      -0.00393355       0.00005417
N        4.18937737       2.96233784       4.95739487       0.00553954       0.00394225       0.00005975
N        3.52576471       1.08535588       3.80798305       0.00276023      -0.00396490      -0.00478005
N        2.19853968       2.96233661       6.10680457      -0.00277317       0.00390100       0.00483155
N        2.19853883       2.96233754       3.80798348      -0.00280547       0.00394022      -0.00477910
N        3.52576445       1.08535777       6.10680460       0.00274712      -0.00391614       0.00483239
