9
Lattice="4.130121044648504 -5.164125987242875e-08 2.384526475638119 1.3767069819503601 3.893915329735243 2.38452644834901 -4.508076668340478e-09 -3.6609884704512286e-08 4.769052959084454" Properties=species:S:1:pos:R:3:forces:R:3 energy=-54.5067253112793 free_energy=-54.5067253112793 stress="0.00025982310762628913 -6.070044378247985e-08 -4.606752312952267e-08 -6.070044378247985e-08 0.00025986257242038846 -1.4419765648199245e-07 -4.606752312952267e-08 -1.4419765648199245e-07 0.0002595350379124284" pbc="T T T"
Rh       1.37670710       0.97347884       2.38452646       0.00000286      -0.00000027       0.00000120
Rh       4.13012109       2.92043641       7.15357949       0.00000220       0.00000151      -0.00000043
C        0.00000022      -0.00000001      -0.00000017       0.00000132      -0.00000234      -0.00000012
N        1.29660272       0.91683664       4.76905290       0.00736940       0.00521290       0.00000100
N        4.21022500       2.97707868       4.76905304      -0.00737119      -0.00521052      -0.00000091
N        3.48181954       0.91683649       3.50741734      -0.00368750       0.00521046       0.00638092
N        2.02500848       2.97707872       6.03068854       0.00368446      -0.00521189      -0.00637937
N        2.02500842       2.97707864       3.50741743       0.00368410      -0.00521153       0.00638092
N        3.48181956       0.91683651       6.03068832      -0.00368565       0.00521135      -0.00638282
