9
Lattice="4.308008403308941 3.4837613271372256e-07 2.487230961709435 1.4360032485886314 4.061629738171211 2.4872307555373165 7.771375687232051e-07 2.9701104016860826e-07 4.9744605773771085" Properties=species:S:1:pos:R:3:forces:R:3 energy=-56.246341705322266 free_energy=-56.246341705322266 stress="-4.273907688912004e-05 -1.7715994715672423e-07 -2.618197640913422e-07 -1.7715994715672423e-07 -4.328801514930092e-05 -3.429927630804741e-07 -2.618197640913422e-07 -3.429927630804741e-07 -4.3213742173975334e-05" pbc="T T T"
Rh       1.43591542       1.01550198       2.48728765      -0.00179889       0.00187800       0.00170017
Rh       4.30799964       3.04620835       7.46192674      -0.00040967      -0.00006664       0.00488386
Cr       0.00000126      -0.00000147      -0.00000745       0.00006258      -0.00004136      -0.00017395
N        1.50529891       1.06441521       4.97442547       0.00029653       0.00022781      -0.00085120
N        4.23875008       2.99717013       4.97435432       0.00047868      -0.00118321      -0.00218907
N        3.55539219       1.06445509       3.79081682       0.00053015       0.00104606      -0.00064009
N        2.18862364       2.99718257       6.15805240      -0.00044182      -0.00077558      -0.00065434
N        2.18868412       2.99722293       3.79083148       0.00082973      -0.00041014      -0.00057614
N        3.55538445       1.06436673       6.15800198       0.00045210      -0.00067443      -0.00149924
