9
Lattice="4.2481575027811855 -3.182893959441762e-08 2.452674895029455 1.416052453872873 4.005201395915008 2.452674924553254 1.202033329364716e-07 1.211557122237506e-07 4.905349581860643" Properties=species:S:1:pos:R:3:forces:R:3 energy=-52.371070861816406 free_energy=-52.371070861816406 stress="-7.563423423562199e-05 1.5872318215315318e-07 -1.759062655537491e-07 1.5872318215315318e-07 -7.590548921143636e-05 -1.8708053062255203e-07 -1.759062655537491e-07 -1.8708053062255203e-07 -7.591000758111477e-05" pbc="T T T"
Rh       1.41605504       1.00130210       2.45267681       0.00004887       0.00002822       0.00004604
Rh       4.24815874       3.00390001       7.35803007       0.00003040      -0.00001493       0.00010212
Co       0.00000026       0.00000001       0.00000029      -0.00000422      -0.00000326       0.00000199
N        1.49945571       1.06027606       4.90534778      -0.00293517      -0.00206020      -0.00003188
N        4.16475336       2.94492563       4.90534607       0.00292689       0.00207394      -0.00006320
N        3.49842912       1.06027675       3.75124025       0.00144936      -0.00204682      -0.00256112
N        2.16577901       2.94492475       6.05945788      -0.00149138       0.00204995       0.00252637
N        2.16578021       2.94492542       3.75124137      -0.00146921       0.00205511      -0.00254801
N        3.49842885       1.06027521       6.05945716       0.00144461      -0.00208214       0.00252777
