9
Lattice="4.235113252753845 -6.620813426002866e-08 2.445143718682069 1.411704302988208 3.9929031929631176 2.445143809051439 -4.999527541772713e-08 7.532743288868773e-08 4.890287523958472" Properties=species:S:1:pos:R:3:forces:R:3 energy=-73.23458862304688 free_energy=-73.23458862304688 stress="0.00022477994207292795 -2.2804404125054134e-06 -2.670158892215113e-06 -2.2804404125054134e-06 0.00023298764426726848 -7.785919819980336e-08 -2.670158892215113e-06 -7.785919819980336e-08 0.000232625228818506" pbc="T T T"
Rh       1.41170418       0.99822616       2.44514441      -0.00002073      -0.00010766      -0.00025513
Rh       4.23511315       2.99467763       7.33543194      -0.00002782      -0.00011006      -0.00027087
Fe       0.00000395       0.00000352       0.00000898      -0.00134192      -0.00154449      -0.00396698
N        1.58349424       1.11969965       4.89028734       0.00604820       0.00425005       0.00013657
N        4.06332161       2.87320391       4.89028657      -0.00490665      -0.00368500       0.00024970
N        3.44336554       1.11969822       3.81648784      -0.00309134       0.00477028       0.00599003
N        2.20345270       2.87320007       5.96408010       0.00225592      -0.00283289      -0.00331688
N        2.20345097       2.87320337       3.81648978       0.00319147      -0.00424337       0.00542164
N        3.44336349       1.11970024       5.96408309      -0.00210238       0.00350714      -0.00398159
