9
Lattice="4.100069890872064 1.2720579592134437e-07 2.367176330135304 1.3666900654948022 3.865583094544264 2.3671763614161216 -1.1232010435729684e-08 3.0368785990823976e-08 4.734352679725006" Properties=species:S:1:pos:R:3:forces:R:3 energy=-51.06157684326172 free_energy=-51.06157684326172 stress="-1.7223329678017762e-06 -2.9369893184139073e-08 2.983060554129224e-08 -2.9369893184139073e-08 -1.6246276572928764e-06 -1.1936766952658218e-07 2.983060554129224e-08 -1.1936766952658218e-07 -1.5334911722675315e-06" pbc="T T T"
Rh       1.36669011       0.96639593       2.36717648      -0.00000269      -0.00000218       0.00000140
Rh       4.10006951       2.89918756       7.10152911      -0.00000065       0.00000162      -0.00000044
Ge      -0.00000002      -0.00000004      -0.00000003      -0.00000224      -0.00000006      -0.00000053
N        1.50811747       1.06640005       4.73435245      -0.00096154      -0.00067604      -0.00000019
N        3.95864260       2.79918300       4.73435247       0.00096321       0.00068188       0.00000050
N        3.34601111       1.06640029       3.67324434       0.00048119      -0.00067973      -0.00083768
N        2.12074905       2.79918302       5.79546117      -0.00047773       0.00067639       0.00083148
N        2.12074889       2.79918303       3.67324437      -0.00048000       0.00068092      -0.00083387
N        3.34601101       1.06640022       5.79546092       0.00047970      -0.00068235       0.00083947
