9
Lattice="4.294122184702326 0.0025213007443706564 2.48230587188542 1.4339915238867953 4.054164501825276 2.4818781631422095 0.0057737424676422 0.003556465626086124 4.954494135310191" Properties=species:S:1:pos:R:3:forces:R:3 energy=-80.36471557617188 free_energy=-80.36471557617188 stress="0.5978306531906128 -0.007922357879579067 0.044206589460372925 -0.007922357879579067 0.6606629490852356 0.020229825749993324 0.044206589460372925 0.020229825749993324 0.6197766661643982" pbc="T T T"
Rh       1.33133823       0.97575196       2.57019709      -0.18842725       0.99640262      -1.99841011
Rh       4.20571429       3.04463639       7.46361690       0.10761444      -1.00384617       1.23487520
Mn       0.03383294       0.00771387      -0.02240599      -1.85489726      -0.60463667       2.11127925
N        1.61779603       1.12196714       4.92901914     -20.19633102     -13.94888783       0.29668158
N        4.15831305       2.92297487       4.94245028      21.52964401      15.16175270      -0.11773790
N        3.53414173       1.14754843       3.85328134      10.76203728     -14.97776222     -18.49866676
N        2.26607104       2.94518697       6.04699498     -10.40546417      14.20436764      17.50135994
N        2.26247994       2.93400321       3.84765017     -10.28713322      14.82472038     -18.26911354
N        3.52586162       1.14118709       6.04390951      10.53295612     -14.65211678      17.73973083
