9
Lattice="4.0138527196214415 4.821994098975015e-08 2.3173988689620577 1.337950787672624 3.7842983807401906 2.317399153590099 8.705815685662384e-08 4.101561006333181e-07 4.634797587134955" Properties=species:S:1:pos:R:3:forces:R:3 energy=-51.69995880126953 free_energy=-51.69995880126953 stress="0.00022338805138133466 6.309637683443725e-07 -1.025416835886972e-07 6.309637683443725e-07 0.00021511352679226547 -1.6723558928788407e-06 -1.025416835886972e-07 -1.6723558928788407e-06 0.00022668868768960238" pbc="T T T"
Rh       1.33794551       0.94607444       2.31741153      -0.00015698      -0.00010466       0.00030334
Rh       4.01383897       2.83819798       6.95221433      -0.00028873      -0.00050695       0.00039773
Ni      -0.00000016      -0.00000038       0.00000035      -0.00000119      -0.00001197       0.00001632
N        1.50179157       1.06193003       4.63479837       0.00040638       0.00027055       0.00001410
N        3.85001564       2.72236525       4.63479541      -0.00032187      -0.00039232      -0.00001886
N        3.26295884       1.06194479       3.61797563      -0.00016940       0.00067139       0.00002241
N        2.08884586       2.72238147       5.65159787       0.00018710       0.00000215      -0.00057173
N        2.08885693       2.72236605       3.61798140       0.00038457      -0.00032157       0.00020802
N        3.26296150       1.06193571       5.65160749      -0.00004053       0.00039250      -0.00037074
