9
Lattice="4.233098407113325 -1.0153399896331897e-07 2.443980616653881 1.411032758961735 3.9910034887610735 2.4439805260367926 2.4657494736329127e-09 -1.092392644804393e-07 4.887961229036983" Properties=species:S:1:pos:R:3:forces:R:3 energy=-56.25457000732422 free_energy=-56.25457000732422 stress="-8.995607640827075e-05 -1.0480453482841767e-07 5.478854347984452e-08 -1.0480453482841767e-07 -9.034512186190113e-05 -9.89190525046979e-08 5.478854347984452e-08 -9.89190525046979e-08 -9.010159556055441e-05" pbc="T T T"
Rh       1.41103274       0.99775092       2.44398087      -0.00000006       0.00000125       0.00000148
Rh       4.23309845       2.99325222       7.33194197       0.00000095      -0.00000063       0.00000139
P        0.00000032       0.00000028       0.00000017      -0.00000589      -0.00000902      -0.00000819
N        1.39202400       0.98430971       4.88796131       0.00177205       0.00125188       0.00000083
N        4.25210721       3.00669399       4.88796137      -0.00176585      -0.00124663       0.00000021
N        3.53708610       0.98430952       3.64950851      -0.00088745       0.00125533       0.00153565
N        2.10704450       3.00669346       6.12641342       0.00088131      -0.00124735      -0.00152957
N        2.10704480       3.00669348       3.64950853       0.00088376      -0.00125057       0.00152814
N        3.53708661       0.98430944       6.12641315      -0.00087833       0.00124604      -0.00152910
