9
Lattice="4.081490947969787 5.9862447051607576e-05 2.356478827259511 1.3605632413335889 3.8480194901794857 2.356476489189747 -2.2964743621621303e-05 -7.278511853932483e-06 4.712859863067118" Properties=species:S:1:pos:R:3:forces:R:3 energy=-63.441768646240234 free_energy=-63.441768646240234 stress="0.00016761381994001567 3.153755096718669e-05 -1.9969271306763403e-05 3.153755096718669e-05 0.00010761694284155965 3.0126393539831042e-05 -1.9969271306763403e-05 3.0126393539831042e-05 6.599446351174265e-05" pbc="T T T"
Rh       1.36057153       0.96203775       2.35646906      -0.00217647      -0.00054536      -0.00103234
Rh       4.08149026       2.88600497       7.06932871       0.00141467       0.00171036       0.00062240
Se       0.00000488      -0.00001640      -0.00001448      -0.00004493       0.00300335       0.00064476
N        1.51625153       1.07211569       4.71289125       0.00226212       0.00228119      -0.00046599
N        3.92578805       2.77595788       4.71289619      -0.00332069      -0.00378227       0.00093330
N        3.32339534       1.07219503       3.66962394      -0.00088692      -0.00029421      -0.00148392
N        2.11865217       2.77588188       5.75616914       0.00210953      -0.00214481      -0.00048542
N        2.11866618       2.77588155       3.66959664       0.00209284      -0.00198650       0.00186253
N        3.32337426       1.07217616       5.75618583      -0.00145197       0.00175524      -0.00059891
