9
Lattice="2.6458528701393993 0.3451679393103778 0.34440633404872184 -0.07584848783474941 4.498689224170133 0.6382370164773478 -0.8857720867835205 1.1004069602367705 2.6771127020041066" Properties=species:S:1:pos:R:3:forces:R:3 energy=-60953840.0 free_energy=-60953840.0 stress="3631065.5 157380.796875 1557668.0 157380.796875 5132643.5 3018274.75 1557668.0 3018274.75 10517743.0" pbc="T T T"
Rh      -1.12024727      -3.69251042       3.66014706 -23765552.00000000 3613434.00000000 -65827416.00000000
Rh      -0.43604654       2.62609764       4.64139571 -37677824.00000000 -9078132.00000000 -19021772.00000000
S       -1.48973216      -3.45847240       2.73444383 -61962256.00000000 -202989472.00000000 334085568.00000000
N       -3.38919783      -1.97966109       4.10034222 69088784.00000000 12081054.00000000 -25688736.00000000
N       -0.42241787       1.43450040       3.14922986    7946.00000000 82995504.00000000 47370052.00000000
N       -0.33376478      -2.67491777       2.80004205 -51453384.00000000 -54677372.00000000 -33942660.00000000
N       -1.74981535       1.62315482       4.63179723 13235829.00000000 58788176.00000000 32517764.00000000
N       -1.54211484       1.10491691       3.44236814 78731664.00000000 215700448.00000000 -302823072.00000000
N       -0.67024128      -1.81963637       4.26867985 13794888.00000000 -106433744.00000000 33330300.00000000
