9
Lattice="4.0754837683530525 -1.2417746572761683e-06 2.3529777680358626 1.358492570985018 3.8423977569251324 2.3529792363061897 -1.358356903169701e-06 8.377521222058469e-07 4.705957888813987" Properties=species:S:1:pos:R:3:forces:R:3 energy=-56.661685943603516 free_energy=-56.661685943603516 stress="5.892035915167071e-06 1.372880319649994e-06 -2.625625029395451e-06 1.372880319649994e-06 5.542688086279668e-06 -1.6317179643010604e-06 -2.625625029395451e-06 -1.6317179643010604e-06 8.882304427970666e-06" pbc="T T T"
Rh       1.35849862       0.96059554       2.35296183      -0.00000065      -0.00004843      -0.00007224
Rh       4.07547031       2.88179401       7.05893217      -0.00005534      -0.00001970      -0.00007604
Si       0.00000197       0.00000226       0.00000252       0.00000652       0.00002136       0.00003660
N        1.47312277       1.04165624       4.70595805      -0.00035334      -0.00025260       0.00002905
N        3.96085370       2.80074607       4.70596093       0.00035548       0.00025856       0.00000670
N        3.33892176       1.04165373       3.62873982       0.00020343      -0.00023282      -0.00030470
N        2.09505245       2.80074307       5.78317859      -0.00013512       0.00026917       0.00030303
N        2.09506119       2.80074692       3.62873929      -0.00018853       0.00025368      -0.00026894
N        3.33892138       1.04165563       5.78317622       0.00016749      -0.00024951       0.00034606
