9
Lattice="4.205318722925129 1.0155831125910148e-07 2.427941944342 1.4017729857762486 3.9648127006320055 2.427941974853023 -1.6454446820249745e-08 2.573320806609476e-08 4.855883917183925" Properties=species:S:1:pos:R:3:forces:R:3 energy=-57.108951568603516 free_energy=-57.108951568603516 stress="-0.00035296010901220143 -1.0356129109823087e-07 -2.4591955138930643e-07 -1.0356129109823087e-07 -0.0003533976268954575 -6.739863067650731e-08 -2.4591955138930643e-07 -6.739863067650731e-08 -0.00035317701986059546" pbc="T T T"
Rh       1.40177093       0.99120182       2.42794231      -0.00004477      -0.00004812       0.00002062
Rh       4.20531714       2.97360615       7.28382881      -0.00004711      -0.00008240       0.00006207
V       -0.00000047      -0.00000102       0.00000028      -0.00001133      -0.00001737       0.00001132
N        1.56046370       1.10341558       4.85588351       0.00453338       0.00322923      -0.00000942
N        4.04662900       2.86139949       4.85588285      -0.00450695      -0.00317821      -0.00003068
N        3.42508826       1.10341575       3.77934219      -0.00223492       0.00323418       0.00390220
N        2.18200502       2.86139863       5.93242475       0.00227259      -0.00318679      -0.00392702
N        2.18200571       2.86139938       3.77934180       0.00228959      -0.00317875       0.00389704
N        3.42508745       1.10341547       5.93242488      -0.00225003       0.00322792      -0.00392598
