9
Lattice="4.302593734130609 -5.1225994147390975e-08 2.484103662081376 1.4341978934682347 4.0565239921695175 2.4841036094483497 1.848989180595688e-08 -5.1387705460184714e-08 4.968207292137349" Properties=species:S:1:pos:R:3:forces:R:3 energy=-55.358642578125 free_energy=-55.358642578125 stress="-0.00011234718112973496 2.0548209533899353e-07 -4.9632635779062184e-08 2.0548209533899353e-07 -0.00011177671694895253 2.099366724905849e-08 -4.9632635779062184e-08 2.099366724905849e-08 -0.00011244689085287973" pbc="T T T"
Ru       1.43419987       1.01412816       2.48410153       0.00004571      -0.00005342      -0.00005212
Ru       4.30259431       3.04239556       7.45230852       0.00001408       0.00005315      -0.00005921
Co       0.00000001       0.00000010      -0.00000016       0.00000257      -0.00000021      -0.00000067
N        1.49104743       1.05432898       4.96820783       0.00057930       0.00039259       0.00001977
N        4.24574364       3.00219544       4.96820856      -0.00059474      -0.00038579       0.00003000
N        3.55707003       1.05432825       3.77538935      -0.00029725       0.00038296       0.00052175
N        2.17972178       3.00219512       6.16102639       0.00029328      -0.00039804      -0.00049603
N        2.17972115       3.00219516       3.77538900       0.00028262      -0.00039032       0.00052068
N        3.55706831       1.05432878       6.16102734      -0.00032589       0.00039935      -0.00048321
