9
Lattice="4.159655291329622 -1.741741609922679e-07 2.401578084224503 1.386551638148578 3.921760466202452 2.4015780173933257 -1.0464064165538232e-07 -1.5584327597327216e-07 4.8031563496919265" Properties=species:S:1:pos:R:3:forces:R:3 energy=-54.91321563720703 free_energy=-54.91321563720703 stress="-5.994642151563312e-07 -1.485900611442048e-07 -9.844915638268503e-08 -1.485900611442048e-07 -1.7963208165383548e-07 -3.937230819150983e-10 -9.844915638268503e-08 -3.937230819150983e-10 -1.2626625220946153e-06" pbc="T T T"
Ru       1.38654908       0.98043552       2.40157386      -0.00005359      -0.00011859      -0.00014042
Ru       4.15965589       2.94132135       7.20473022       0.00001877      -0.00000413      -0.00014383
C        0.00000082      -0.00001148      -0.00002023       0.00001928      -0.00035288      -0.00062671
N        1.29716265       0.91723152       4.80315655       0.00023937       0.00015914       0.00002115
N        4.24905018       3.00453400       4.80315639      -0.00005162      -0.00000429       0.00002221
N        3.51107140       0.91723639       3.52496288      -0.00020975       0.00031030       0.00045860
N        2.03512604       3.00453869       6.08137080      -0.00008750       0.00015724       0.00017500
N        2.03513299       3.00452861       3.52495559       0.00012219      -0.00014865       0.00025606
N        3.51107820       0.91722602       6.08136355       0.00000304       0.00000358      -0.00002015
