9
Lattice="4.381327979536392 5.913567816039157e-08 2.5295610284257686 1.4604426864868196 4.130755878287212 2.5295610788497256 -3.425777448376755e-08 3.753259115533766e-08 5.059122116187724" Properties=species:S:1:pos:R:3:forces:R:3 energy=-60.59962463378906 free_energy=-60.59962463378906 stress="-0.00011219731823075563 -9.63369402029457e-08 -1.1006316746886569e-08 -9.63369402029457e-08 -0.00011250653915340081 -2.6047010237562063e-07 -1.1006316746886569e-08 -2.6047010237562063e-07 -0.00011297372111584991" pbc="T T T"
Ru       1.46044140       1.03268842       2.52956055      -0.00003102      -0.00002179      -0.00002088
Ru       4.38132752       3.09806604       7.58868035      -0.00000275      -0.00002832      -0.00005979
Cr       0.00000024       0.00000052      -0.00000012      -0.00002513      -0.00003951       0.00006879
N        1.52972854       1.08168230       5.05912226       0.00531650       0.00376856       0.00001246
N        4.31204183       3.04907397       5.05912366      -0.00527108      -0.00373542       0.00003840
N        3.61646411       1.08168177       3.85434598      -0.00262576       0.00373101       0.00459707
N        2.22530758       3.04907507       6.26389872       0.00266951      -0.00374329      -0.00459456
N        2.22530777       3.04907365       3.85434573       0.00263590      -0.00371373       0.00455773
N        3.61646356       1.08168209       6.26389968      -0.00266600       0.00378311      -0.00459790
