9
Lattice="4.234942773203422 -5.769609414889067e-07 2.445040551022311 1.4116472533512712 3.9927421638394605 2.4450401937890023 6.334942147420159e-07 1.0431728789595378e-08 4.890080004801291" Properties=species:S:1:pos:R:3:forces:R:3 energy=-89.67724609375 free_energy=-89.67724609375 stress="3.569008913473226e-05 3.316687434562482e-05 4.55617828265531e-06 3.316687434562482e-05 1.01767500382266e-05 -5.484133453137474e-06 4.55617828265531e-06 -5.484133453137474e-06 -5.891063483431935e-05" pbc="T T T"
Ru       1.41164802       0.99818581       2.44504282       0.00000355      -0.00003262      -0.00069856
Ru       4.23494234       2.99455591       7.33512325       0.00004613      -0.00000981      -0.00065674
Fe       0.00000026      -0.00000035      -0.00000840      -0.00008925       0.00008835       0.00241291
N        1.57325674       1.11246023       4.89008477      -0.00122738      -0.00095272      -0.00119718
N        4.07333399       2.88028163       4.89008483       0.00117588       0.00080490      -0.00120034
N        3.44832215       1.11244924       3.80750856      -0.00135183       0.00198078       0.00078106
N        2.19827528       2.88028244       5.97264915      -0.00036955       0.00059223      -0.00007153
N        2.19826879       2.88029147       3.80750978       0.00127411      -0.00173092       0.00049686
N        3.44831488       1.11245975       5.97264828       0.00053978      -0.00074196       0.00012779
