9
Lattice="4.343274743434712 -8.804824420888406e-08 2.5075908635871875 1.4477581103155264 4.0948789231856075 2.507590957955129 -9.968914344089366e-08 4.5085811521879075e-08 5.01518189984102" Properties=species:S:1:pos:R:3:forces:R:3 energy=-52.46870422363281 free_energy=-52.46870422363281 stress="-8.849441655911505e-05 -3.892359146107083e-08 2.098726383792382e-07 -3.892359146107083e-08 -8.841364615364e-05 1.473089099590652e-07 2.098726383792382e-07 1.473089099590652e-07 -8.84973633219488e-05" pbc="T T T"
Ru       1.44775594       1.02371648       2.50759177      -0.00004624      -0.00006274       0.00001463
Ru       4.34327324       3.07115851       7.52276898      -0.00003053      -0.00001962      -0.00007805
Ge      -0.00000034      -0.00000024       0.00000036       0.00000138      -0.00000029      -0.00001234
N        1.53830285       1.08774446       5.01518249       0.00060046       0.00042522       0.00000673
N        4.25272917       3.00713536       5.01518424      -0.00061667      -0.00040799       0.00004567
N        3.57412316       1.08774432       3.83980058      -0.00029483       0.00042021       0.00052840
N        2.21691164       3.00713565       6.19056310       0.00033641      -0.00039428      -0.00051725
N        2.21690981       3.00713542       3.83980108       0.00030687      -0.00040591       0.00053763
N        3.57412552       1.08774558       6.19056210      -0.00025746       0.00044477      -0.00052607
