9
Lattice="4.375158804386904 1.4901054856240944e-08 2.5259991010343232 1.4583862887624146 4.124939333233055 2.5259990896294715 -2.5934788077430348e-08 -3.230668994992314e-08 5.0519982469890365" Properties=species:S:1:pos:R:3:forces:R:3 energy=-62.39874267578125 free_energy=-62.39874267578125 stress="-0.0001472512522013858 9.467846240340805e-08 1.1403435706824894e-07 9.467846240340805e-08 -0.00014751640264876187 3.4287829464574315e-08 1.1403435706824894e-07 3.4287829464574315e-08 -0.00014735727745573968" pbc="T T T"
Ru       1.45838631       1.03123228       2.52599915       0.00000488      -0.00005107      -0.00000239
Ru       4.37516076       3.09370177       7.57799594       0.00003472      -0.00004814      -0.00002220
Hf      -0.00000008       0.00000014       0.00000019       0.00000083      -0.00000100       0.00000088
N        1.70920215       1.20858840       5.05199821      -0.00186467      -0.00130722      -0.00000026
N        4.12434306       2.91635159       5.05199829       0.00185928       0.00133039       0.00000450
N        3.52055734       1.20858848       4.00621230       0.00092319      -0.00130674      -0.00160173
N        2.31298607       2.91635241       6.09778473      -0.00094657       0.00133906       0.00160709
N        2.31298617       2.91635249       4.00621231      -0.00094886       0.00134017      -0.00159958
N        3.52055841       1.20858966       6.09778475       0.00093719      -0.00129543       0.00161317
