9
Lattice="4.310106361831303 -4.620452763315053e-07 2.488440982823974 1.4367013472640289 4.063606208019728 2.488441567782273 -5.527276337906708e-07 3.2558736270584924e-07 4.976882923000269" Properties=species:S:1:pos:R:3:forces:R:3 energy=-55.78404998779297 free_energy=-55.78404998779297 stress="-0.0002699159667827189 1.0977393003486213e-06 3.163961537211435e-07 1.0977393003486213e-06 -0.00026906534912995994 -3.3879328498187533e-07 3.163961537211435e-07 -3.3879328498187533e-07 -0.00027173571288585663" pbc="T T T"
Ru       1.43672394       1.01602776       2.48846185       0.00043734       0.00265025       0.00041538
Ru       4.31013188       3.04778201       7.46536263       0.00052511       0.00150309       0.00081771
Ir       0.00000074       0.00000902       0.00000376       0.00001382       0.00013808       0.00006512
N        1.66567270       1.17779449       4.97690382      -0.00230676      -0.00184709       0.00053075
N        4.08124119       2.88576500       4.97687688       0.00424558       0.00090712      -0.00005167
N        3.47721438       1.17778610       3.93093633       0.00011605      -0.00195545      -0.00242299
N        2.26942624       2.88576716       6.02287926      -0.00339776       0.00080013       0.00316459
N        2.26952533       2.88574970       3.93085344      -0.00128731       0.00053394      -0.00399339
N        3.47729186       1.17774276       6.02278363       0.00165367      -0.00273025       0.00147468
