9
Lattice="4.234613458664443 -4.5378407995625445e-06 2.444843749062968 1.411527878059845 3.9924414314924945 2.4448535618573937 -5.336682806234515e-06 8.23967044697014e-06 4.889696745661015" Properties=species:S:1:pos:R:3:forces:R:3 energy=-100.22270965576172 free_energy=-100.22270965576172 stress="9.192713150696363e-06 -5.1141963922418654e-05 -3.901525633409619e-05 -5.1141963922418654e-05 4.424207872943953e-05 5.8693352912086993e-05 -3.901525633409619e-05 5.8693352912086993e-05 8.13149927125778e-06" pbc="T T T"
Ru       1.41153136       0.99810948       2.44484796       0.00022330       0.00008993      -0.00006196
Ru       4.23460459       2.99433565       7.33454469      -0.00013193      -0.00015673      -0.00002053
Mn       0.00000565      -0.00000550      -0.00000866      -0.00359578       0.00384013       0.00535714
N        1.49163754       1.05475770       4.88969636       0.00681067       0.00498915       0.00009087
N        4.15449889       2.93768483       4.88969726      -0.00646067      -0.00437546       0.00002796
N        3.48878031       1.05476280       3.73665703      -0.00073862       0.00108147       0.00089073
N        2.15734923       2.93769097       6.04274981       0.00392604      -0.00555372      -0.00658369
N        2.15735221       2.93768624       3.73664905       0.00338030      -0.00469923       0.00566339
N        3.48878414       1.05475817       6.04274257      -0.00341773       0.00478697      -0.00536966
