9
Lattice="4.380326458060461 6.682370581383904e-09 2.528982682782717 1.46010883929169 4.129811436213495 2.528982659161006 1.543996076331436e-08 -1.8012872782558483e-08 5.057965338822639" Properties=species:S:1:pos:R:3:forces:R:3 energy=-60.445579528808594 free_energy=-60.445579528808594 stress="-0.0003337324014864862 -4.616789084366246e-08 -6.834388699417104e-08 -4.616789084366246e-08 -0.00033375638304278255 -2.9960538938667014e-08 -6.834388699417104e-08 -2.9960538938667014e-08 -0.00033378475927747786" pbc="T T T"
Ru       1.46010887       1.03245325       2.52898273      -0.00000137       0.00000732      -0.00000040
Ru       4.38032633       3.09735826       7.58694786      -0.00000334      -0.00000478      -0.00000031
Nb       0.00000006      -0.00000007      -0.00000008       0.00000056       0.00000031       0.00000031
N        1.69548697       1.19889053       5.05796529       0.00253844       0.00179815      -0.00000032
N        4.14494835       2.93092101       5.05796532      -0.00253528      -0.00179476      -0.00000036
N        3.53258276       1.19889032       3.99731762      -0.00127095       0.00179386       0.00219601
N        2.30785241       2.93092088       6.11861337       0.00127113      -0.00179780      -0.00219655
N        2.30785246       2.93092093       3.99731743       0.00127158      -0.00179827       0.00219721
N        3.53258305       1.19889058       6.11861325      -0.00127068       0.00179636      -0.00219536
