9
Lattice="4.324938765846786 6.803060531709165e-07 2.497004407597197 1.4416467002834326 4.077591790470504 2.4970047477674147 8.910226878861293e-07 1.0466695328031118e-06 4.994007271898277" Properties=species:S:1:pos:R:3:forces:R:3 energy=-51.13954162597656 free_energy=-51.13954162597656 stress="-0.0002831337624229491 -2.4736089017096674e-06 -5.0728140195133165e-06 -2.4736089017096674e-06 -0.0002991178189404309 -3.80196479454753e-06 -5.0728140195133165e-06 -3.80196479454753e-06 -0.0002894187637139112" pbc="T T T"
Ru       1.44166114       1.01941258       2.49702511       0.00037169       0.00026393       0.00050747
Ru       4.32501109       3.05811614       7.49110526       0.00152436      -0.00159026       0.00190872
Pd       0.00000390       0.00000008       0.00000263       0.00004442       0.00000005       0.00002450
N        1.63885504       1.15891604       4.99401093      -0.00342649      -0.00108498      -0.00002973
N        4.12772640       2.91872407       4.99396319       0.00301188       0.00185516      -0.00090017
N        3.50550230       1.15891604       3.91627185       0.00147423      -0.00106707      -0.00319451
N        2.26101961       2.91872454       6.07166922      -0.00259218       0.00193000       0.00184208
N        2.26106374       2.91871022       3.91631731      -0.00179657       0.00174472      -0.00252283
N        3.50550212       1.15885504       6.07170003       0.00138897      -0.00205126       0.00236368
