9
Lattice="5.352232086722658 -0.0929013463049851 2.4246898539968815 1.728975550272494 4.3106415773380515 2.322461515655465 -1.0325115310961834 -0.8473901636177821 6.528983715926484" Properties=species:S:1:pos:R:3:forces:R:3 energy=-75.69771575927734 free_energy=-75.69771575927734 stress="8.591048390371725e-05 0.00010122587264049798 -0.00015365068975370377 0.00010122587264049798 2.1026362162501755e-07 0.00017283097258768976 -0.00015365068975370377 0.00017283097258768976 -0.00012118038284825161" pbc="T T T"
Ru       2.49022425       1.15000690       0.64334615       0.00161678       0.00511257       0.00641099
Ru       3.55820930       2.22027330      10.63279551      -0.00097823      -0.00434885      -0.00243793
Re       0.00089325       0.00083834      -0.00000189      -0.00204830      -0.00325174      -0.00059773
N        0.43625693       0.18814448       5.67364885      -0.00324237      -0.00083017      -0.00093085
N        5.61169600       3.18179897       5.60041560       0.00359946       0.00244349       0.00041568
N        4.70887201       1.54195072       3.28217465       0.00111735      -0.00092924      -0.00076658
N        1.34003222       1.82702721       7.99466139      -0.00207615       0.00359809      -0.00114661
N        2.99693811       4.15104146       3.93313552      -0.00165719       0.00057226      -0.00496334
N        3.05162656      -0.77971688       7.34435774       0.00366824      -0.00236619       0.00401598
