9
Lattice="4.400256192510528 8.906585314777393e-08 2.5404890448535067 1.4667521601266038 4.148601171491128 2.540489024096004 2.3181430266970993e-09 -2.3783476947496866e-08 5.080978085691876" Properties=species:S:1:pos:R:3:forces:R:3 energy=-52.96348190307617 free_energy=-52.96348190307617 stress="0.00029927107971161604 -1.7052646228421509e-07 1.0009987505554818e-07 -1.7052646228421509e-07 0.00029911237652413547 -5.2986816712063955e-08 1.0009987505554818e-07 -5.2986816712063955e-08 0.0002988823689520359" pbc="T T T"
Ru       1.46675260       1.03714947       2.54049002       0.00001555      -0.00001599       0.00002126
Ru       4.40026096       3.11145246       7.62146896       0.00010647       0.00003232       0.00004897
S       -0.00000080      -0.00000014       0.00000157      -0.00001144      -0.00000240       0.00002287
N        1.42750612       1.00940037       5.08097777      -0.00106597      -0.00073302      -0.00000814
N        4.43950131       3.13920236       5.08097738       0.00104260       0.00075841      -0.00002002
N        3.68650261       1.00939933       3.77674550       0.00052130      -0.00075901      -0.00091815
N        2.18050367       3.13920194       6.38520846      -0.00056875       0.00075412       0.00087678
N        2.18050401       3.13920118       3.77674565      -0.00055575       0.00074410      -0.00091004
N        3.68650278       1.00939800       6.38520869       0.00051689      -0.00077963       0.00088608
