9
Lattice="4.137194491640392 -7.313990789794634e-08 2.38861042742121 1.3790647281703203 3.9005842433785696 2.3886104853055055 -5.7519555149455796e-08 3.0221027426044174e-08 4.77722095446922" Properties=species:S:1:pos:R:3:forces:R:3 energy=-64.81749725341797 free_energy=-64.81749725341797 stress="-3.483333330223104e-06 -4.797425390279386e-07 -2.5384136392858636e-07 -4.797425390279386e-07 -3.4492879876779625e-06 -1.0922465776275203e-07 -2.5384136392858636e-07 -1.0922465776275203e-07 -2.6451996291143587e-06" pbc="T T T"
Ru       1.37906490       0.97514606       2.38861037      -0.00001702      -0.00001466       0.00000652
Ru       4.13719429       2.92543821       7.16583126       0.00000479      -0.00000826       0.00000819
Se      -0.00000286      -0.00000388       0.00000140       0.00048832       0.00068071      -0.00023028
N        1.54409826       1.09184176       4.77722119      -0.00081682      -0.00049162      -0.00005654
N        3.97216866       2.80874681       4.77722111      -0.00054789      -0.00029230      -0.00005345
N        3.36514622       1.09183890       3.72583612       0.00022840       0.00002480      -0.00021458
N        2.15111109       2.80874376       5.82860669       0.00007224       0.00024414       0.00004148
N        2.15111026       2.80874489       3.72583421       0.00022340       0.00003624       0.00013256
N        3.36514536       1.09183994       5.82860486       0.00036860      -0.00017309       0.00036764
