9
Lattice="4.258331896304546 8.559180688625112e-09 2.4585489763655755 1.419443978119906 4.014793746831601 2.4585489683715096 3.188340071211753e-08 1.275428084258614e-08 4.917097897507479" Properties=species:S:1:pos:R:3:forces:R:3 energy=-51.98896026611328 free_energy=-51.98896026611328 stress="0.00011034718045266345 -9.591501992645135e-08 -6.60396537455199e-08 -9.591501992645135e-08 0.00011055077629862353 4.427486999247776e-08 -6.60396537455199e-08 4.427486999247776e-08 0.00011081960838055238" pbc="T T T"
Ru       1.41944419       1.00369876       2.45854877      -0.00000288       0.00000075       0.00000288
Ru       4.25833169       3.01109521       7.37564701       0.00000169      -0.00000042       0.00000034
Sn      -0.00000007       0.00000006       0.00000043       0.00001110      -0.00001728      -0.00007129
N        1.58337118       1.11961233       4.91709796       0.00091112       0.00064141       0.00000053
N        4.09440487       2.89518123       4.91709793      -0.00090450      -0.00063756       0.00000266
N        3.46664640       1.11961265       3.82978842      -0.00046530       0.00065193       0.00080103
N        2.21112955       2.89518099       6.00440710       0.00043893      -0.00062066      -0.00075880
N        2.21112956       2.89518128       3.82978860       0.00045499      -0.00064674       0.00079033
N        3.46664623       1.11961257       6.00440706      -0.00044590       0.00062829      -0.00076857
