9
Lattice="4.274076891663275 2.821126879772542e-07 2.467640329504278 1.424692580852287 4.029640014084518 2.4676402989287487 4.6408653162816264e-08 -4.631376457700282e-09 4.935280578626425" Properties=species:S:1:pos:R:3:forces:R:3 energy=-67.81603240966797 free_energy=-67.81603240966797 stress="0.000700717733707279 5.09748865340498e-08 -1.7670463137164916e-07 5.09748865340498e-08 0.0007012811838649213 -1.5285600341030658e-07 -1.7670463137164916e-07 -1.5285600341030658e-07 0.0007011477136984468" pbc="T T T"
Ru       1.42469226       1.00741132       2.46764039      -0.00000464      -0.00000803      -0.00000225
Ru       4.27407748       3.02223016       7.40292099      -0.00000235       0.00000127      -0.00000392
Ta       0.00000008      -0.00000048       0.00000016       0.00000136       0.00000040      -0.00002637
N        1.66308823       1.17597941       4.93528081       0.00450218       0.00318635       0.00000109
N        4.03568293       2.85365820       4.93528044      -0.00450432      -0.00318658       0.00000991
N        3.44253303       1.17598129       3.90791584      -0.00225085       0.00319034       0.00390196
N        2.25623558       2.85366004       5.96264339       0.00224900      -0.00317907      -0.00389886
N        2.25623553       2.85366030       3.90791753       0.00225508      -0.00318789       0.00390482
N        3.44253337       1.17598113       5.96264520      -0.00224560       0.00318319      -0.00388575
