9
Lattice="4.296717830495256 1.1953683535962986e-07 2.480711114242019 1.432239353520993 4.050984695196251 2.480711176615207 1.5110232411091856e-08 8.707578023955754e-08 4.961422202312362" Properties=species:S:1:pos:R:3:forces:R:3 energy=-60.11244583129883 free_energy=-60.11244583129883 stress="-0.0008711377158761024 4.1886227819531996e-08 -9.795476785257051e-08 4.1886227819531996e-08 -0.000871759548317641 -1.5836819500236743e-07 -9.795476785257051e-08 -1.5836819500236743e-07 -0.0008713973220437765" pbc="T T T"
Ru       1.43223771       1.01274760       2.48071046      -0.00003657       0.00003786      -0.00000752
Ru       4.29671699       3.03823924       7.44213588      -0.00001922       0.00001454       0.00005644
V       -0.00000009       0.00000016       0.00000030      -0.00000126      -0.00000065       0.00000205
N        1.54217074       1.09047834       4.96142211       0.00051975       0.00033891      -0.00000231
N        4.18678758       2.96050501       4.96142114      -0.00048888      -0.00037575      -0.00002872
N        3.52563396       1.09047967       3.81626902      -0.00023314       0.00037265       0.00043428
N        2.20332403       2.96050509       6.10657495       0.00024825      -0.00037551      -0.00043803
N        2.20332466       2.96050607       3.81626978       0.00026026      -0.00035816       0.00043839
N        3.52563318       1.09047843       6.10657442      -0.00024948       0.00034565      -0.00045395
