9
Lattice="4.465760005711882 5.9340538227182436e-09 2.578307744424978 1.4885866784770587 4.210358812526403 2.5783077369567904 1.9839778918897098e-10 -9.006334916139527e-09 5.156615488506318" Properties=species:S:1:pos:R:3:forces:R:3 energy=-60.265625 free_energy=-60.265625 stress="0.00027780450182035565 -3.590109187712187e-08 -1.0455336507675383e-07 -3.590109187712187e-08 0.0002778524358291179 -7.976701965617394e-08 -1.0455336507675383e-07 -7.976701965617394e-08 0.0002778666967060417" pbc="T T T"
Ru       1.48858690       1.05258963       2.57830814       0.00000685      -0.00000278       0.00000103
Ru       4.46576004       3.15776882       7.73492382      -0.00000029      -0.00001176       0.00001162
Zr      -0.00000013      -0.00000035      -0.00000027       0.00000192       0.00001312       0.00002301
N        1.73803714       1.22897845       5.15661555       0.00568432       0.00402856      -0.00000367
N        4.21630901       2.98138061       5.15661506      -0.00569242      -0.00402427      -0.00001010
N        3.59674165       1.22897817       4.08349211      -0.00284258       0.00402546       0.00491834
N        2.35760575       2.98138035       6.22973880       0.00284457      -0.00402617      -0.00493056
N        2.35760523       2.98138096       4.08349200       0.00284544      -0.00402701       0.00491959
N        3.59674110       1.22897860       6.22973856      -0.00284758       0.00402522      -0.00492907
