9
Lattice="4.299465552072687 1.0346396612205055e-07 2.4822975429996674 1.4331552487150827 4.053575142732579 2.4822975999077714 -1.2437584993838655e-08 6.090321156074495e-08 4.964595107541861" Properties=species:S:1:pos:R:3:forces:R:3 energy=-35.75432205200195 free_energy=-35.75432205200195 stress="-0.0001368500234093517 3.658694680552799e-08 -7.349402419976059e-09 3.658694680552799e-08 -0.00013684792793355882 8.366103365631261e-09 -7.349402419976059e-09 8.366103365631261e-09 -0.0001369111123494804" pbc="T T T"
S        1.43315532       1.01339412       2.48229758       0.00000080      -0.00000335      -0.00000152
S        4.29946575       3.04018142       7.44689262      -0.00000314      -0.00000258       0.00000053
Be       0.00000002       0.00000005       0.00000013      -0.00000419      -0.00000002      -0.00000661
O        1.35964126       0.96141170       4.96459511       0.00657092       0.00464718      -0.00000214
O        4.37297947       3.09216360       4.96459520      -0.00657248      -0.00464538      -0.00000248
O        3.61964492       0.96141173       3.65978137      -0.00328618       0.00465183       0.00569294
O        2.11297576       3.09216345       6.26940875       0.00328698      -0.00464603      -0.00568943
O        2.11297582       3.09216353       3.65978146       0.00329193      -0.00464928       0.00569585
O        3.61964484       0.96141169       6.26940872      -0.00328431       0.00464776      -0.00568706
