9
Lattice="4.179713996232599 2.1183174538067475e-07 2.4131591357299973 1.3932382541940171 3.9406720405874807 2.413159039197762 -6.115106106261661e-09 -1.2255141528803294e-07 4.8263182820516315" Properties=species:S:1:pos:R:3:forces:R:3 energy=-42.89592742919922 free_energy=-42.89592742919922 stress="2.752801083261147e-05 -9.114021395362215e-07 -1.4098874601131683e-07 -9.114021395362215e-07 2.6121655537281185e-05 -1.0929532123782337e-07 -1.4098874601131683e-07 -1.0929532123782337e-07 2.5001996618811972e-05" pbc="T T T"
S        1.39324386       0.98517014       2.41315842       0.00007464       0.00001607      -0.00000166
S        4.17970607       2.95550632       7.23947583      -0.00008296       0.00001548      -0.00001498
C        0.00000044       0.00000026      -0.00000039      -0.00000801       0.00000686      -0.00000309
N        1.31942438       0.93296971       4.82631831      -0.00061786      -0.00046402      -0.00000021
N        4.25352874       3.00769934       4.82631907       0.00062394       0.00045538       0.00000451
N        3.52000006       0.93297398       3.55581197       0.00029671      -0.00044578      -0.00056481
N        2.05295288       3.00769738       6.09682595      -0.00029421       0.00043321       0.00056207
N        2.05295229       3.00769747       3.55581143      -0.00029349       0.00043082      -0.00055444
N        3.52000063       0.93297400       6.09682532       0.00030172      -0.00044805       0.00057304
