9
Lattice="2.8772709924497195 -1.2659083188018079 0.17932640393196886 1.3199391241596334 1.9195356883082089 0.4177381886574565 0.3179103859757999 -0.9202358001800613 2.5548826085986107" Properties=species:S:1:pos:R:3:forces:R:3 energy=-160327696384.0 free_energy=-160327696384.0 stress="0.0 3732161024.0 0.0 3732161024.0 0.0 -7594812928.0 0.0 -7594812928.0 0.0" pbc="T T T"
S        1.10797843      -0.80238349       3.18243203 61097312256.00000000 833763672064.00000000 909622312960.00000000
S        4.63820028       2.15332596       2.50357270 14070106112.00000000 -11971473408.00000000 64353443840.00000000
C        0.66320466       0.17062148       0.44873357 452757651456.00000000 63272415232.00000000 141594411008.00000000
O        1.11661489      -0.81314759       3.21277228 144848617472.00000000 -391291207680.00000000 -471060250624.00000000
O        2.63754876       1.28613224       0.65861143 8944244736.00000000 -32145305600.00000000 -8722341888.00000000
O        1.46757712      -0.54933483       2.23070543 -23429615616.00000000 35845619712.00000000 -89199181824.00000000
O       -0.14787337      -1.51798567       4.37735314 -25743306752.00000000 -24481763328.00000000 -20721029120.00000000
O        1.61813893       0.46650555       1.59035433 23417753600.00000000 -116543648.00000000 41084506112.00000000
O        1.11309860      -0.75273747       3.13872658 -655962996736.00000000 -472875728896.00000000 -566951739392.00000000
