9
Lattice="3.6868225413970737 -1.7413534806901033e-06 2.128586447420541 1.2289393985442922 3.475971398755923 2.128586112830487 -5.528627531479728e-07 -8.007206246313493e-07 4.257173852428177" Properties=species:S:1:pos:R:3:forces:R:3 energy=-42.86742401123047 free_energy=-42.86742401123047 stress="-1.9371607322682394e-06 -8.524903932993766e-06 2.8003149054711685e-05 -8.524903932993766e-06 2.351104558329098e-05 -7.536800126217713e-07 2.8003149054711685e-05 -7.536800126217713e-07 3.0912306101527065e-05" pbc="T T T"
S        1.22896779       0.86902279       2.12855618       0.00144806       0.00199996      -0.00249664
S        3.68684639       2.60700902       6.38572294       0.00169093       0.00160981      -0.00159390
P       -0.00000653      -0.00000579       0.00000773      -0.00015785      -0.00037105       0.00069924
N        1.35031460       0.95481692       4.25717238      -0.00091457       0.00053501       0.00246432
N        3.56542416       2.52113407       4.25719240      -0.00048542      -0.00165701      -0.00110785
N        3.01163783       0.95480808       3.29801871       0.00102854       0.00049686       0.00063133
N        1.90410762       2.52115039       5.21635188      -0.00163221      -0.00179863       0.00014973
N        1.90410188       2.52112832       3.29801310       0.00003767       0.00010157       0.00035667
N        3.01165082       0.95481632       5.21635257      -0.00101185      -0.00091791       0.00090122
