9
Lattice="6.169278553112708 2.260270570527688e-08 3.561834576939696 2.056426248477148 5.816451376821016 3.5618345028144978 4.574729222589327e-08 -5.843624470875805e-08 7.123669074642753" Properties=species:S:1:pos:R:3:forces:R:3 energy=-35.43668746948242 free_energy=-35.43668746948242 stress="-0.0002363009552937001 7.395126289111431e-09 -3.232613288162156e-09 7.395126289111431e-09 -0.00023631114163435996 5.9268536745094025e-09 -3.232613288162156e-09 5.9268536745094025e-09 -0.00023631799558643252" pbc="T T T"
Sc       2.05642690       1.45411252       3.56183458       0.00000433      -0.00000043      -0.00000032
Sc       6.16927821       4.36233850      10.68550368      -0.00000310      -0.00000004       0.00000098
Ag       0.00000023       0.00000013       0.00000002      -0.00000251      -0.00000127      -0.00000207
Te       2.19781461       1.55408929       7.12366904      -0.00643298      -0.00455010       0.00000029
Te       6.02789016       4.26236180       7.12366905       0.00643569       0.00455198      -0.00000054
Te       5.07037122       1.55408946       5.46519756       0.00321588      -0.00454976      -0.00557375
Te       3.15533345       4.26236209       8.78214072      -0.00321762       0.00454961       0.00557363
Te       3.15533365       4.26236193       5.46519735      -0.00321563       0.00455007      -0.00557280
Te       5.07037095       1.55408964       8.78214063       0.00321600      -0.00455002       0.00557463
