9
Lattice="4.528546459933781 -1.149653125639442e-07 2.6145577139821037 1.5095154535741293 4.269554261704757 2.61455758352426 1.0466041104399225e-07 -8.57714982087598e-08 5.229115246687043" Properties=species:S:1:pos:R:3:forces:R:3 energy=-53.171756744384766 free_energy=-53.171756744384766 stress="-0.0001936754706548527 -9.287183644346442e-08 -3.2038620645380433e-08 -9.287183644346442e-08 -0.0001935871841851622 -7.541989788251158e-08 -3.2038620645380433e-08 -7.541989788251158e-08 -0.00019313929078634828" pbc="T T T"
Sc       1.50951605       1.06738854       2.61455828       0.00000814       0.00000167       0.00000547
Sc       4.52854663       3.20216520       7.84367344       0.00000139      -0.00000304       0.00000834
Ag       0.00000183      -0.00000069       0.00000098      -0.00006951       0.00003446      -0.00003603
O        1.61736719       1.14365093       5.22911511      -0.00702858      -0.00496352      -0.00000122
O        4.42069395       3.12590259       5.22911475       0.00705475       0.00499368      -0.00000464
O        3.71986216       1.14365159       4.01523968       0.00352705      -0.00499374      -0.00611484
O        2.31819888       3.12590296       6.44299117      -0.00352168       0.00497627       0.00608647
O        2.31819958       3.12590247       4.01523850      -0.00351191       0.00496000      -0.00608182
O        3.71986173       1.14365264       6.44299023       0.00354013      -0.00500566       0.00613767
