9
Lattice="4.471173006995398 4.2547894086333705e-08 2.581432939605625 1.4903910143914993 4.215462181251298 2.581432988198005 1.1643030261085328e-07 1.4184194104549462e-07 5.1628656775480675" Properties=species:S:1:pos:R:3:forces:R:3 energy=-54.86897659301758 free_energy=-54.86897659301758 stress="8.793577580945566e-05 9.787356702872785e-08 -1.1245617770327954e-07 9.787356702872785e-08 8.777691255090758e-05 4.641566064833569e-08 -1.1245617770327954e-07 4.641566064833569e-08 8.786193211562932e-05" pbc="T T T"
Sc       1.49039156       1.05386502       2.58143254       0.00000411      -0.00000678      -0.00000266
Sc       4.47117296       3.16159586       7.74429915      -0.00000151      -0.00000849       0.00000283
Au      -0.00000006      -0.00000005      -0.00000001       0.00000210      -0.00000339      -0.00000239
O        1.58465922       1.12052361       5.16286573      -0.00139013      -0.00098063       0.00000012
O        4.37690452       3.09493932       5.16286570       0.00138831       0.00098747       0.00000143
O        3.67884334       1.12052376       3.95378787       0.00069414      -0.00097835      -0.00120533
O        2.28272055       3.09493894       6.37194333      -0.00069492       0.00098202       0.00120637
O        2.28272097       3.09493950       3.95378818      -0.00069188       0.00098331      -0.00119984
O        3.67884349       1.12052360       6.37194400       0.00068954      -0.00097561       0.00119986
