9
Lattice="5.445498652526689 3.0283991163037647e-09 3.1439600613139245 1.815166234285053 5.134065373390311 3.1439600372021452 4.6780329612607263e-08 3.5478767747485877e-09 6.287920041601965" Properties=species:S:1:pos:R:3:forces:R:3 energy=-41.948143005371094 free_energy=-41.948143005371094 stress="-0.00018583171186037362 -1.936442117767001e-08 1.4709561568793106e-08 -1.936442117767001e-08 -0.0001858361210906878 1.0954742890589841e-08 1.4709561568793106e-08 1.0954742890589841e-08 -0.00018577936862129718" pbc="T T T"
Sc       1.81516654       1.28351669       3.14396035       0.00000171       0.00000241       0.00000110
Sc       5.44549904       3.85054983       9.43187955       0.00000287       0.00000542      -0.00000038
Au       0.00000020      -0.00000006       0.00000011      -0.00000399       0.00000031      -0.00000070
S        1.92137884       1.35861991       6.28791998      -0.00434017      -0.00307053      -0.00000062
S        5.33928575       3.77544524       6.28792020       0.00434172       0.00307012       0.00000050
S        4.48480875       1.35861984       4.80792318       0.00217026      -0.00307381      -0.00375938
S        2.77585584       3.77544502       7.76791727      -0.00217134       0.00306988       0.00375968
S        2.77585553       3.77544498       4.80792302      -0.00217158       0.00306839      -0.00375998
S        4.48480912       1.35862007       7.76791695       0.00217059      -0.00307226       0.00375968
