9
Lattice="5.357710818300204 -9.041446121525161e-08 3.0932758938102363 1.7859035503222096 5.051298056899438 3.093275842774002 -1.4990950383286655e-07 -1.6850835190822136e-07 6.186552047271258" Properties=species:S:1:pos:R:3:forces:R:3 energy=-43.062042236328125 free_energy=-43.062042236328125 stress="-3.960006506531499e-05 -2.592905801179768e-08 -6.648028350042523e-09 -2.592905801179768e-08 -3.9603979530511424e-05 1.3349108485272154e-08 -6.648028350042523e-09 1.3349108485272154e-08 -3.955599095206708e-05" pbc="T T T"
Sc       1.78590355       1.26282444       3.09327628      -0.00000001       0.00000074       0.00000076
Sc       5.35771063       3.78847278       9.27982836      -0.00000047      -0.00000060       0.00000073
Be       0.00000021       0.00000020       0.00000011      -0.00000136      -0.00000264      -0.00000096
Se       1.70033927       1.20232165       6.18655197       0.00020909       0.00014955       0.00000116
Se       5.44327474       3.84897632       6.18655174      -0.00020885      -0.00014681       0.00000046
Se       4.50754093       1.20232158       4.56581293      -0.00010413       0.00014555       0.00017944
Se       2.63607304       3.84897662       7.80729055       0.00010407      -0.00014645      -0.00018123
Se       2.63607354       3.84897639       4.56581273       0.00010467      -0.00014690       0.00018010
Se       4.50754095       1.20232118       7.80729047      -0.00010294       0.00014788      -0.00018075
