9
Lattice="4.976602725272289 7.084339844206998e-08 2.87324293386744 1.6588676029862381 4.69198612349116 2.8732430012378236 -3.319901268269784e-08 5.9036272886374134e-08 5.74648592523725" Properties=species:S:1:pos:R:3:forces:R:3 energy=-46.40157699584961 free_energy=-46.40157699584961 stress="-5.71166310692206e-05 4.6277943255290666e-08 -1.2210074729068765e-08 4.6277943255290666e-08 -5.7042612752411515e-05 5.5802455989351074e-08 -1.2210074729068765e-08 5.5802455989351074e-08 -5.7104232837446034e-05" pbc="T T T"
Sc       1.65886836       1.17299669       2.87324368       0.00000286      -0.00000004       0.00000108
Sc       4.97660258       3.51898936       8.61972827      -0.00000043      -0.00000027      -0.00000219
Be      -0.00000004       0.00000004      -0.00000003      -0.00000197      -0.00000475       0.00000351
S        1.66845904       1.17977896       5.74648552       0.00406548       0.00287476      -0.00000026
S        4.96701071       3.51220714       5.74648605      -0.00405466      -0.00286683       0.00000119
S        4.14237250       1.17977891       4.31817106      -0.00203339       0.00286933       0.00351718
S        2.49309738       3.51220726       7.17480075       0.00202844      -0.00287349      -0.00351612
S        2.49309746       3.51220730       4.31817138       0.00202763      -0.00287115       0.00351517
S        4.14237320       1.17977931       7.17480074      -0.00203384       0.00287237      -0.00351955
