9
Lattice="5.95326809816719 -2.9029373456591335e-09 3.4371209440804584 1.984422661629589 5.612794887283147 3.437121004741328 -1.1230089726908519e-07 -5.114679257544974e-09 6.874242082671761" Properties=species:S:1:pos:R:3:forces:R:3 energy=-37.76960372924805 free_energy=-37.76960372924805 stress="-5.052081178291701e-05 1.3978855406548973e-08 1.072905320143036e-08 1.3978855406548973e-08 -5.0535487389424816e-05 2.2292741874707644e-08 1.072905320143036e-08 2.2292741874707644e-08 -5.0534614274511114e-05" pbc="T T T"
Sc       1.98442247       1.40319893       3.43712119      -0.00000116      -0.00000072       0.00000106
Sc       5.95326800       4.20959605      10.31136257       0.00000024      -0.00000053      -0.00000246
Be       0.00000010       0.00000021       0.00000016      -0.00000095      -0.00000222      -0.00000112
Te       1.93141216       1.36571476       6.87424202       0.00317842       0.00224666      -0.00000048
Te       6.00627841       4.24707991       6.87424233      -0.00317562      -0.00224480       0.00000065
Te       4.98756197       1.36571443       5.10977307      -0.00158963       0.00224718       0.00275183
Te       2.95012869       4.24708025       8.63871085       0.00158834      -0.00224495      -0.00274995
Te       2.95012864       4.24708019       5.10977302       0.00158927      -0.00224711       0.00275165
Te       4.98756210       1.36571478       8.63871092      -0.00158889       0.00224642      -0.00275095
