9
Lattice="4.106078319695454 7.862152528766455e-08 2.3706453516163974 1.3686927932648392 3.8712481127358838 2.3706454453066237 -1.3137493260593178e-07 2.18504604344524e-08 4.741290930780882" Properties=species:S:1:pos:R:3:forces:R:3 energy=-61.37445068359375 free_energy=-61.37445068359375 stress="4.8656506805855315e-06 -1.471923294360522e-08 -1.4111001256367217e-08 -1.471923294360522e-08 4.951509708917001e-06 2.817095534624059e-08 -1.4111001256367217e-08 2.817095534624059e-08 4.876636467088247e-06" pbc="T T T"
Sc       1.36869306       0.96781138       2.37064533      -0.00000028      -0.00000258       0.00000175
Sc       4.10607845       2.90343517       7.11193724       0.00000096      -0.00000258       0.00000044
Be      -0.00000000      -0.00000009      -0.00000018       0.00000105      -0.00000088       0.00000040
O        1.37875703       0.97492921       4.74129070       0.00114441       0.00081158      -0.00000096
O        4.09601358       2.89631977       4.74129058      -0.00114572      -0.00080973       0.00000160
O        3.41669967       0.97492935       3.56468418      -0.00057170       0.00080949       0.00098991
O        2.05807104       2.89631956       5.91789716       0.00057241      -0.00081033      -0.00099158
O        2.05807200       2.89631997       3.56468455       0.00057164      -0.00080734       0.00099003
O        3.41669936       0.97492886       5.91789728      -0.00057247       0.00081205      -0.00099200
