9
Lattice="5.999096837364663 -4.379255376993245e-08 3.463580271007889 1.9996988896399124 5.656002849451899 3.463580296746671 -9.908090095508015e-09 2.4517353811879254e-08 6.927160559177138" Properties=species:S:1:pos:R:3:forces:R:3 energy=-41.5259895324707 free_energy=-41.5259895324707 stress="-1.8948835531773511e-06 -4.396174091425564e-08 -4.755470683903695e-09 -4.396174091425564e-08 -1.939888534252532e-06 8.754292402102237e-09 -4.755470683903695e-09 8.754292402102237e-09 -1.9325186713103903e-06" pbc="T T T"
Sc       1.99969962       1.41400096       3.46358029       0.00000363       0.00000134       0.00000059
Sc       5.99909652       4.24200180      10.39074079      -0.00000145      -0.00000090      -0.00000176
Co       0.00000013       0.00000012       0.00000016      -0.00000130      -0.00000108      -0.00000430
Te       2.00009275       1.41427946       6.92716043       0.00030388       0.00021516      -0.00000105
Te       5.99870257       4.24172354       6.92716065      -0.00030479      -0.00021337       0.00000120
Te       4.99905030       1.41427936       5.19571150      -0.00015168       0.00021386       0.00026313
Te       2.99974531       4.24172297       8.65860963       0.00015025      -0.00021397      -0.00025898
Te       2.99974555       4.24172363       5.19571151       0.00015197      -0.00021366       0.00026149
Te       4.99905013       1.41427947       8.65860959      -0.00015060       0.00021263      -0.00026037
