9
Lattice="5.562490504530188 9.154959761268935e-08 3.2115055729199473 1.8541635602401327 5.244366338167559 3.2115056206964305 -5.66720666916774e-08 1.8440765628246402e-08 6.423011243998804" Properties=species:S:1:pos:R:3:forces:R:3 energy=-47.72673034667969 free_energy=-47.72673034667969 stress="-2.5999338504334446e-06 2.8975613020065794e-09 -1.3990865355140158e-08 2.8975613020065794e-09 -2.5781332624319475e-06 8.640482107580283e-09 -1.3990865355140158e-08 8.640482107580283e-09 -2.616756546558463e-06" pbc="T T T"
Sc       1.85416452       1.31109252       3.21150588       0.00000707       0.00000423       0.00000028
Sc       5.56249033       3.93327336       9.63451720      -0.00000051      -0.00000814       0.00000293
Cr       0.00000001       0.00000020      -0.00000019       0.00000043      -0.00000401       0.00000111
Se       1.90621190       1.34789619       6.42301108       0.00046121       0.00032977      -0.00000010
Se       5.51044183       3.89647060       6.42301071      -0.00046000      -0.00032783      -0.00000404
Se       4.60938397       1.34789580       4.86233366      -0.00023437       0.00032855       0.00040017
Se       2.80726975       3.89647056       7.98368858       0.00022929      -0.00032469      -0.00039864
Se       2.80726955       3.89647045       4.86233370       0.00023127      -0.00032871       0.00039788
Se       4.60938415       1.34789615       7.98368910      -0.00023449       0.00033081      -0.00039986
