9
Lattice="5.232302504414764 5.314910621926188e-08 3.020871338452793 1.7441009009474038 4.933062118963968 3.020871310682759 4.3153078362686823e-08 -3.497355187555546e-09 6.041742602162269" Properties=species:S:1:pos:R:3:forces:R:3 energy=-44.09324645996094 free_energy=-44.09324645996094 stress="1.8995490336237708e-06 2.6218316406811937e-08 2.0742634276871286e-08 2.6218316406811937e-08 1.8678542801353615e-06 -7.711101090990269e-09 2.0742634276871286e-08 -7.711101090990269e-09 1.8879519529946265e-06" pbc="T T T"
Sc       1.74410162       1.23326542       3.02087159       0.00000358      -0.00000144       0.00000310
Sc       5.23230232       3.69979655       9.06261271      -0.00000272      -0.00000057      -0.00000754
Cu      -0.00000024       0.00000004       0.00000035       0.00000046      -0.00000030      -0.00000578
S        1.82672494       1.29168966       6.04174271      -0.00023413      -0.00016576      -0.00000024
S        5.14967820       3.64137268       6.04174346       0.00023299       0.00016749       0.00000388
S        4.31893984       1.29168961       4.60286159       0.00011367      -0.00016463      -0.00020206
S        2.65746365       3.64137270       7.48062353      -0.00011614       0.00016809       0.00020570
S        2.65746346       3.64137215       4.60286140      -0.00011656       0.00016302      -0.00020283
S        4.31894002       1.29168986       7.48062359       0.00011840      -0.00016570       0.00020581
