9
Lattice="5.565569401012038 3.2022632009167924e-08 3.213283010331773 1.8551898976902448 5.247268735608689 3.2132828940043527 2.025060383451877e-07 7.21957915922478e-10 6.426565669912798" Properties=species:S:1:pos:R:3:forces:R:3 energy=-40.46931076049805 free_energy=-40.46931076049805 stress="-0.0003555617877282202 -1.8486378650095503e-08 6.402355978707419e-09 -1.8486378650095503e-08 -0.00035557246883399785 -1.2441171426402775e-09 6.402355978707419e-09 -1.2441171426402775e-09 -0.00035553795169107616" pbc="T T T"
Sc       1.85518927       1.31181710       3.21328277      -0.00000208      -0.00000051      -0.00000103
Sc       5.56556928       3.93545144       9.63984953      -0.00000143      -0.00000189       0.00000788
Cu      -0.00000001       0.00000005      -0.00000043       0.00000220      -0.00000170       0.00000564
Se       1.95405172       1.38172273       6.42656667      -0.00105846      -0.00075114       0.00000520
Se       5.46670804       3.86554620       6.42656529       0.00105864       0.00074911      -0.00000202
Se       4.58854386       1.38172339       4.90554050       0.00053015      -0.00074828      -0.00092041
Se       2.83221537       3.86554598       7.94759025      -0.00052992       0.00074974       0.00091493
Se       2.83221575       3.86554559       4.90554110      -0.00053081       0.00075129      -0.00092208
Se       4.58854472       1.38172262       7.94759061       0.00053182      -0.00074640       0.00091189
