9
Lattice="4.305371479189941 7.736872597375113e-08 2.4857075724604063 1.435123853821985 4.059143638808406 2.485707651300929 -4.169672703505873e-08 6.70754840227839e-08 4.97141521714167" Properties=species:S:1:pos:R:3:forces:R:3 energy=-58.78904724121094 free_energy=-58.78904724121094 stress="0.00019794382387772202 -4.4578712277143495e-08 -5.426948845865809e-08 -4.4578712277143495e-08 0.00019806357158813626 5.514138123885459e-08 -5.426948845865809e-08 5.514138123885459e-08 0.00019805404008366168" pbc="T T T"
Sc       1.43512417       1.01478554       2.48570728      -0.00000021      -0.00000249      -0.00000321
Sc       4.30537149       3.04435828       7.45712245       0.00000043       0.00000466      -0.00000371
Cu      -0.00000000       0.00000015       0.00000009       0.00000141      -0.00000078      -0.00000480
O        1.51291650       1.06979354       4.97141525       0.00059465       0.00041685       0.00000028
O        4.22757892       2.98935012       4.97141536      -0.00059700      -0.00042029       0.00000281
O        3.54891321       1.06979348       3.79593185      -0.00029887       0.00041869       0.00051656
O        2.19158220       2.98935028       6.14689866       0.00029877      -0.00041661      -0.00051326
O        2.19158188       2.98935024       3.79593183       0.00030030      -0.00041828       0.00051770
O        3.54891276       1.06979357       6.14689895      -0.00029962       0.00041819      -0.00051191
