9
Lattice="5.263471625269378 -1.7632247572184118e-08 3.038866595769196 1.7544905371705248 4.962448564612264 3.038866574918925 1.0443466550413261e-08 -1.815159338013989e-08 6.077733173449744" Properties=species:S:1:pos:R:3:forces:R:3 energy=-52.29063034057617 free_energy=-52.29063034057617 stress="-0.00013310489885043353 1.205900534984039e-08 1.5242920259339598e-09 1.205900534984039e-08 -0.00013310307986102998 1.8239893151417164e-08 1.5242920259339598e-09 1.8239893151417164e-08 -0.00013309146743267775" pbc="T T T"
Sc       1.75449173       1.24061153       3.03886578       0.00000833      -0.00000422      -0.00000647
Sc       5.26347156       3.72183601       9.11660130      -0.00000041      -0.00000331       0.00000927
Cr      -0.00000027       0.00000010      -0.00000022       0.00000223      -0.00000284       0.00000080
S        1.80841051       1.27873975       6.07773342      -0.00195533      -0.00138217       0.00000146
S        5.20955107       3.68370913       6.07773218       0.00195464       0.00138310      -0.00000344
S        4.35926595       1.27873981       4.60499566       0.00097424      -0.00138092      -0.00169280
S        2.65869545       3.68370878       7.55047032      -0.00097953       0.00138280       0.00169471
S        2.65869676       3.68370942       4.60499631      -0.00097741       0.00138679      -0.00169551
S        4.35926593       1.27873963       7.55047060       0.00097330      -0.00137928       0.00169197
