9
Lattice="5.169417591469443 -4.097776505262337e-09 2.9845645456001937 1.7231391990020455 4.873773588557542 2.9845645357119372 -1.8765036815239987e-08 -2.5379468897227755e-08 5.969129123702376" Properties=species:S:1:pos:R:3:forces:R:3 energy=-46.7928581237793 free_energy=-46.7928581237793 stress="-0.00010116055636899546 5.047752882347822e-09 1.0901568536780815e-08 5.047752882347822e-09 -0.0001011805870803073 -1.028830531879521e-08 1.0901568536780815e-08 -1.028830531879521e-08 -0.00010119316721102223" pbc="T T T"
Sc       1.72313884       1.21844285       2.98456428      -0.00000115      -0.00000116      -0.00000059
Sc       5.16941734       3.65533028       8.95369408       0.00000053       0.00000062       0.00000251
C        0.00000120      -0.00000072      -0.00000006       0.00001729      -0.00001222      -0.00000045
S        1.61548801       1.14232219       5.96912924       0.00091845       0.00064777       0.00000004
S        5.27706841       3.73145105       5.96912890      -0.00092423      -0.00065395      -0.00000035
S        4.36167356       1.14232293       4.38361849      -0.00046370       0.00065687       0.00080311
S        2.53088302       3.73145133       7.55464034       0.00045723      -0.00064725      -0.00079367
S        2.53088322       3.73145163       4.38361790       0.00045870      -0.00064644       0.00079431
S        4.36167354       1.14232268       7.55463957      -0.00046315       0.00065610      -0.00080489
