9
Lattice="5.531944271578 9.576497945171575e-08 3.1938695362895255 1.8439814722648178 5.215567237975577 3.1938696088323266 -6.284327791250281e-08 4.4409534769069185e-08 6.387739181426833" Properties=species:S:1:pos:R:3:forces:R:3 energy=-44.865379333496094 free_energy=-44.865379333496094 stress="-6.0823185776825994e-05 9.64550128657038e-09 -1.3045825753010831e-08 9.64550128657038e-09 -6.079195736674592e-05 2.3807981364143416e-08 -1.3045825753010831e-08 2.3807981364143416e-08 -6.081701212679036e-05" pbc="T T T"
Sc       1.84398109       1.30389234       3.19386977      -0.00000082       0.00000099       0.00000293
Sc       5.53194352       3.91167488       9.58160789      -0.00000497      -0.00000191      -0.00000766
Co       0.00000024      -0.00000009      -0.00000017      -0.00000138       0.00000060      -0.00000006
Se       1.86568720       1.31924007       6.38773936       0.00385532       0.00272505       0.00000098
Se       5.51023861       3.89632687       6.38773933      -0.00385252      -0.00272618      -0.00000037
Se       4.59910070       1.31923979       4.80960231      -0.00192750       0.00272466       0.00333871
Se       2.77682575       3.89632748       7.96587628       0.00193059      -0.00272471      -0.00333673
Se       2.77682471       3.89632735       4.80960220       0.00192821      -0.00272705       0.00333822
Se       4.59910088       1.31924084       7.96587636      -0.00192668       0.00272848      -0.00333607
