9
Lattice="6.078143736677229 -4.8880139036207965e-08 3.5092179633026674 2.0260478572542007 5.7305290290632716 3.5092179786952094 -4.859943300636672e-08 -1.5513062982057276e-08 7.018436010782028" Properties=species:S:1:pos:R:3:forces:R:3 energy=-43.470088958740234 free_energy=-43.470088958740234 stress="-9.097532893065363e-05 2.436429014096575e-08 3.8125120838117255e-09 2.436429014096575e-08 -9.099360613618046e-05 -7.567972026834013e-09 3.8125120838117255e-09 -7.567972026834013e-09 -9.101274190470576e-05" pbc="T T T"
Sc       2.02604755       1.43263212       3.50921794      -0.00000251      -0.00000145      -0.00000091
Sc       6.07814368       4.29789635      10.52765419       0.00000013      -0.00000124       0.00000247
Cr      -0.00000014      -0.00000000       0.00000037       0.00000323       0.00000207      -0.00000346
Te       2.07524930       1.46742298       7.01843602       0.00153516       0.00108469      -0.00000095
Te       6.02894235       4.26310634       7.01843600      -0.00153749      -0.00108667      -0.00000138
Te       5.04051952       1.46742283       5.30643647      -0.00076925       0.00108988       0.00133390
Te       3.06367243       4.26310595       8.73043525       0.00076779      -0.00108657      -0.00133121
Te       3.06367244       4.26310618       5.30643640       0.00077053      -0.00108776       0.00133329
Te       5.04051901       1.46742309       8.73043517      -0.00076738       0.00108699      -0.00133181
