9
Lattice="6.036054694157908 1.2712246025348745e-08 3.484917858864661 2.0120182552185106 5.690846830810228 3.4849178383443893 -6.039397440201623e-09 -2.940257408369012e-08 6.969835728189845" Properties=species:S:1:pos:R:3:forces:R:3 energy=-37.52227020263672 free_energy=-37.52227020263672 stress="3.800028207479045e-05 1.4813340831754118e-10 -5.939866376536429e-09 1.4813340831754118e-10 3.8002988731022924e-05 1.668033600132901e-09 -5.939866376536429e-09 1.668033600132901e-09 3.800529884756543e-05" pbc="T T T"
Sc       2.01201877       1.42271172       3.48491790       0.00000192       0.00000109       0.00000028
Sc       6.03605409       4.26813493      10.45475378      -0.00000236      -0.00000065       0.00000049
Cu      -0.00000009      -0.00000016      -0.00000020       0.00000087       0.00000089      -0.00000002
Te       2.09352676       1.48034658       6.96983572      -0.00052243      -0.00037189       0.00000040
Te       5.95454625       4.21050041       6.96983556       0.00052121       0.00037022      -0.00000015
Te       4.98929141       1.48034713       5.29796496       0.00026169      -0.00036949      -0.00045355
Te       3.05878139       4.21049979       8.64170643      -0.00026175       0.00036961       0.00045273
Te       3.05878174       4.21049985       5.29796501      -0.00026087       0.00036946      -0.00045335
Te       4.98929145       1.48034704       8.64170654       0.00026162      -0.00036918       0.00045322
