9
Lattice="4.3566837905561755 2.1550101143099356e-07 2.515332576980564 1.4522280274195194 4.107521210398929 2.5153327604778197 -3.997515700558249e-08 1.9647060268617403e-07 5.030665223200134" Properties=species:S:1:pos:R:3:forces:R:3 energy=-65.2247314453125 free_energy=-65.2247314453125 stress="-6.186075188452378e-05 7.287006553724495e-08 -5.674726466509128e-08 7.287006553724495e-08 -6.181307253427804e-05 -8.644400750768e-09 -5.674726466509128e-08 -8.644400750768e-09 -6.175891030579805e-05" pbc="T T T"
Sc       1.45222799       1.02688020       2.51533273      -0.00000367      -0.00000402       0.00000244
Sc       4.35668418       3.08064016       7.54599849       0.00000539      -0.00000445       0.00000473
Cr      -0.00000016       0.00000011       0.00000032       0.00000091       0.00000020      -0.00000184
O        1.47157986       1.04056496       5.03066510      -0.00007617      -0.00004902      -0.00000269
O        4.33733167       3.06695687       5.03066511       0.00007230       0.00005268      -0.00000336
O        3.62089378       1.04056489       3.78975858       0.00003672      -0.00004996      -0.00006966
O        2.18801791       3.06695717       6.27157140      -0.00003783       0.00005399       0.00006734
O        2.18801817       3.06695714       3.78975899      -0.00003302       0.00005387      -0.00006852
O        3.62089357       1.04056503       6.27157162       0.00003594      -0.00005375       0.00007196
