9
Lattice="4.274768846631713 9.925871277968487e-08 2.4680389416486848 1.4249230463563152 4.030290634801374 2.4680389348987517 3.465295640013105e-08 1.6236393230623514e-08 4.936077823276724" Properties=species:S:1:pos:R:3:forces:R:3 energy=-61.605369567871094 free_energy=-61.605369567871094 stress="0.00027678528567776084 3.791141622855321e-08 4.752832793997186e-08 3.791141622855321e-08 0.0002769039128907025 2.4847263802030284e-08 4.752832793997186e-08 2.4847263802030284e-08 0.0002769107522908598" pbc="T T T"
Sc       1.42492390       1.00757225       2.46803881       0.00000382      -0.00000081      -0.00000243
Sc       4.27476951       3.02271850       7.40411688       0.00000475       0.00000175       0.00000277
Co       0.00000001       0.00000031      -0.00000013       0.00000502      -0.00000935       0.00000018
O        1.44399774       1.02106010       4.93607793      -0.00027715      -0.00020225       0.00000033
O        4.25569442       3.00923067       4.93607778       0.00027294       0.00019816      -0.00000192
O        3.55276999       1.02106039       3.71857714       0.00013615      -0.00019437      -0.00023884
O        2.14692119       3.00923008       6.15357798      -0.00014138       0.00020176       0.00024396
O        2.14692108       3.00923016       3.71857776      -0.00014322       0.00020050      -0.00024451
O        3.55276991       1.02106056       6.15357851       0.00013876      -0.00019577       0.00023969
