9
Lattice="4.0369474162811425 1.5317968614000226e-08 2.330732766058995 1.345649151810724 3.806070422387276 2.3307327684692885 6.163822607602946e-08 4.653680109621203e-08 4.661465425357441" Properties=species:S:1:pos:R:3:forces:R:3 energy=-65.84876251220703 free_energy=-65.84876251220703 stress="0.0005148354102857411 7.034382321080557e-08 -1.6993210749660648e-07 7.034382321080557e-08 0.0005151478108018637 -6.152495046762851e-08 -1.6993210749660648e-07 -6.152495046762851e-08 0.0005153246456757188" pbc="T T T"
Sc       1.34564912       0.95151765       2.33073283      -0.00000079       0.00000004       0.00000090
Sc       4.03694740       2.85455274       6.99219829       0.00000118      -0.00000174       0.00000000
C       -0.00000018      -0.00000014       0.00000052       0.00000295       0.00000014       0.00000293
O        1.27354909       0.90053545       4.66146508       0.00453162       0.00320029       0.00000437
O        4.10904768       2.90553506       4.66146549      -0.00453115      -0.00319695      -0.00000423
O        3.40017300       0.90053535       3.43365880      -0.00226754       0.00320292       0.00391376
O        1.98242402       2.90553524       5.88927209       0.00226682      -0.00320518      -0.00391638
O        1.98242353       2.90553537       3.43365892       0.00227225      -0.00320113       0.00391710
O        3.40017292       0.90053539       5.88927202      -0.00227344       0.00320363      -0.00391924
