9
Lattice="4.364518880650606 1.9021670626197198e-08 2.5198561672530135 1.4548396626432347 4.114907869322353 2.5198561363776695 3.1703892944182983e-08 -1.5396395091958457e-08 5.039712279593249" Properties=species:S:1:pos:R:3:forces:R:3 energy=-61.95318603515625 free_energy=-61.95318603515625 stress="-0.00019180098024662584 2.2530169729861882e-08 2.777942675891154e-08 2.2530169729861882e-08 -0.00019205886928830296 -4.9809095514774526e-08 2.777942675891154e-08 -4.9809095514774526e-08 -0.00019197248911950737" pbc="T T T"
Sc       1.45483918       1.02872764       2.51985616      -0.00000188       0.00000437      -0.00000007
Sc       4.36451958       3.08618074       7.55956833       0.00000536      -0.00000013      -0.00000147
Fe      -0.00000004      -0.00000007      -0.00000012       0.00000288       0.00000057       0.00000384
O        1.46974354       1.03926581       5.03971225      -0.00073633      -0.00052047       0.00000061
O        4.34961470       3.07564204       5.03971247       0.00073958       0.00052068       0.00000088
O        3.62964736       1.03926543       3.79269142       0.00036649      -0.00052242      -0.00063317
O        2.18971125       3.07564229       6.28673314      -0.00037066       0.00051867       0.00063602
O        2.18971131       3.07564195       3.79269122      -0.00037127       0.00051709      -0.00064081
O        3.62964736       1.03926573       6.28673347       0.00036612      -0.00051807       0.00063357
