9
Lattice="5.208437848386114 -2.421618925517331e-08 3.0070929790341325 1.7361459754011368 4.910562414534556 3.0070928945614073 1.20256420829144e-07 -1.842337328860381e-08 6.014185749778024" Properties=species:S:1:pos:R:3:forces:R:3 energy=-50.95403289794922 free_energy=-50.95403289794922 stress="-0.00011146536417072639 4.975936462869868e-08 5.894229548886187e-09 4.975936462869868e-08 -0.00011142019502585754 -6.932840790341288e-08 5.894229548886187e-09 -6.932840790341288e-08 -0.00011145993630634621" pbc="T T T"
Sc       1.73614502       1.22764094       3.00709293      -0.00000700       0.00000323       0.00000229
Sc       5.20843785       3.68292106       9.02127749      -0.00000008      -0.00000577      -0.00000888
Fe       0.00000021       0.00000010      -0.00000018       0.00000074      -0.00000247       0.00000240
S        1.75686532       1.24229194       6.01418566       0.00176346       0.00124630      -0.00000029
S        5.18771851       3.66827052       6.01418660      -0.00175834      -0.00124502       0.00000186
S        4.33000563       1.24229164       4.52858326      -0.00087994       0.00124800       0.00152886
S        2.61457915       3.66827084       7.49978877       0.00088286      -0.00124583      -0.00152433
S        2.61457849       3.66827040       4.52858336       0.00087881      -0.00124422       0.00152451
S        4.33000564       1.24229191       7.49978864      -0.00088039       0.00124583      -0.00152618
