9
Lattice="5.59900160189063 2.5220528172028408e-08 3.2325850432613956 1.866333863714024 5.278789246972044 3.232585090652082 1.6427678490087205e-08 6.965761842154973e-08 6.465170058069313" Properties=species:S:1:pos:R:3:forces:R:3 energy=-46.492549896240234 free_energy=-46.492549896240234 stress="-9.252431482309476e-05 4.360866334707225e-09 -3.9201033530389395e-09 4.360866334707225e-09 -9.257483179681003e-05 2.2526332799088777e-08 -3.9201033530389395e-09 2.2526332799088777e-08 -9.258819773094729e-05" pbc="T T T"
Sc       1.86633544       1.31969734       3.23258402       0.00001108      -0.00000021      -0.00000920
Sc       5.59900036       3.95909192       9.69775564      -0.00000844       0.00000042       0.00000672
Fe      -0.00000004       0.00000036       0.00000036      -0.00000066      -0.00000260      -0.00000062
Se       1.85915877       1.31462320       6.46517076      -0.00002506      -0.00002086       0.00000325
Se       5.60617688       3.96416588       6.46517012       0.00002536       0.00002083      -0.00000115
Se       4.66942209       1.31462407       4.84266305       0.00001089      -0.00001684      -0.00002408
Se       2.79591300       3.96416524       8.08767665      -0.00001235       0.00001821       0.00002429
Se       2.79591361       3.96416572       4.84266331      -0.00001009       0.00001761      -0.00002339
Se       4.66942179       1.31462371       8.08767674       0.00000942      -0.00001666       0.00002399
