9
Lattice="5.988382972215823 -6.295902617676674e-08 3.4573944583353478 1.9961275997888617 5.645901585070444 3.4573944553183074 -4.146402037750051e-08 -3.3014659725643275e-08 6.914788988488545" Properties=species:S:1:pos:R:3:forces:R:3 energy=-42.959190368652344 free_energy=-42.959190368652344 stress="-5.29128810740076e-05 -2.977839663742543e-08 1.893848278200494e-08 -2.977839663742543e-08 -5.292126297717914e-05 -1.385408587850634e-08 1.893848278200494e-08 -1.385408587850634e-08 -5.290926492307335e-05" pbc="T T T"
Sc       1.99612805       1.41147601       3.45739441       0.00000249       0.00000330       0.00000004
Sc       5.98838232       4.23442538      10.37218293      -0.00000282      -0.00000349      -0.00000239
Fe      -0.00000013       0.00000006       0.00000022       0.00000304      -0.00000172      -0.00000030
Te       1.95749777       1.38415998       6.91478897       0.00772881       0.00546461       0.00000017
Te       6.02701290       4.26174143       6.91478930      -0.00772945      -0.00546490       0.00000123
Te       5.00963392       1.38416023       5.15263718      -0.00386533       0.00546595       0.00669268
Te       2.97487686       4.26174119       8.67694069       0.00386430      -0.00546397      -0.00668992
Te       2.97487660       4.26174128       5.15263729       0.00386150      -0.00546341       0.00668979
Te       5.00963382       1.38416041       8.67694065      -0.00386256       0.00546363      -0.00669160
