9
Lattice="4.350205366929058 2.3341908005824108e-08 2.511592235700095 1.4500684781158661 4.101412991108769 2.511592234893159 -2.582836568429553e-08 -1.925168442785112e-08 5.023184516136227" Properties=species:S:1:pos:R:3:forces:R:3 energy=-62.29386520385742 free_energy=-62.29386520385742 stress="-0.0002770551363937557 -7.304641513883325e-08 1.0622521529057849e-07 -7.304641513883325e-08 -0.0002772922453004867 -1.180769615416466e-07 1.0622521529057849e-07 -1.180769615416466e-07 -0.0002769319398794323" pbc="T T T"
Sc       1.45006966       1.02535307       2.51159261       0.00000710       0.00000252       0.00000071
Sc       4.35020595       3.07605976       7.53477702       0.00000378      -0.00000126       0.00000318
Ge      -0.00000014       0.00000016      -0.00000023       0.00000339      -0.00000191       0.00000316
O        1.49483379       1.05700773       5.02318462      -0.00256133      -0.00181037      -0.00000217
O        4.30543946       3.04440576       5.02318447       0.00255561       0.00181007      -0.00000070
O        3.60278787       1.05700737       3.80615627       0.00127435      -0.00180990      -0.00221401
O        2.19748518       3.04440572       6.24021228      -0.00127780       0.00181019       0.00221044
O        2.19748547       3.04440523       3.80615623      -0.00128168       0.00180882      -0.00221467
O        3.60278806       1.05700735       6.24021249       0.00127661      -0.00180781       0.00221348
