9
Lattice="5.708692488066434 -4.2303449932692727e-08 3.2959151314989517 1.9028974773080238 5.382206697009101 3.2959150948315314 4.960256892774272e-10 -4.4557501215896956e-08 6.591830262138787" Properties=species:S:1:pos:R:3:forces:R:3 energy=-41.08197784423828 free_energy=-41.08197784423828 stress="-0.0004066576075274497 5.599201546857557e-09 -1.2255751080658683e-08 5.599201546857557e-09 -0.0004066380497533828 -3.3817693090298917e-10 -1.2255751080658683e-08 -3.3817693090298917e-10 -0.0004066364199388772" pbc="T T T"
Sc       1.90289692       1.34554979       3.29591537      -0.00000499      -0.00001456       0.00000322
Sc       5.70869342       4.03665646       9.88774502       0.00000769       0.00001153      -0.00000474
Ge       0.00000005      -0.00000008      -0.00000018       0.00000170      -0.00000019       0.00000524
Se       1.96485966       1.38936545       6.59183040      -0.00503021      -0.00355804       0.00000038
Se       5.64673024       3.99284142       6.59183064       0.00502719       0.00355746       0.00000332
Se       4.72626255       1.38936489       4.99753374       0.00251511      -0.00356206      -0.00435244
Se       2.88532740       3.99284221       8.18612662      -0.00251163       0.00356260       0.00434974
Se       2.88532701       3.99284159       4.99753369      -0.00251776       0.00356252      -0.00435467
Se       4.72626264       1.38936471       8.18612668       0.00251278      -0.00355937       0.00435019
