9
Lattice="5.4330125417894894 7.867186411651973e-08 3.136751262292857 1.8110042033894063 5.12229374659426 3.1367513512850387 9.935111460228471e-09 1.1601789689398714e-07 6.273502507377609" Properties=species:S:1:pos:R:3:forces:R:3 energy=-45.41917037963867 free_energy=-45.41917037963867 stress="-0.0001326603814959526 4.095099015444248e-08 -2.368383356099457e-08 4.095099015444248e-08 -0.00013270486670080572 2.1830436125469532e-08 -2.368383356099457e-08 2.1830436125469532e-08 -0.00013275440142024308" pbc="T T T"
Sc       1.81100535       1.28057319       3.13675127       0.00000770      -0.00000086       0.00000054
Sc       5.43301202       3.84172052       9.41025303      -0.00000594       0.00000109      -0.00000896
Ge       0.00000003       0.00000027       0.00000012       0.00000287      -0.00000430      -0.00000259
S        1.85654767       1.31277749       6.27350248      -0.00267589      -0.00189486      -0.00000125
S        5.38746873       3.80951638       6.27350295       0.00267857       0.00189477       0.00000168
S        4.50473874       1.31277709       4.74456861       0.00133395      -0.00189304      -0.00231320
S        2.73927849       3.80951648       7.80243650      -0.00133717       0.00189653       0.00232291
S        2.73927788       3.80951637       4.74456838      -0.00133738       0.00188926      -0.00231868
S        4.50473815       1.31277803       7.80243708       0.00133389      -0.00188854       0.00231969
