9
Lattice="6.19539039684266 1.0047201231446828e-07 3.5769102406723565 2.065130221950819 5.841069998730249 3.576910249429582 3.016412754677518e-08 3.205463258625259e-08 7.15382042909895" Properties=species:S:1:pos:R:3:forces:R:3 energy=-34.87652587890625 free_energy=-34.87652587890625 stress="-0.00011189810174982995 1.9562325093147592e-08 7.873689478188339e-10 1.9562325093147592e-08 -0.00011192980309715495 -5.984517881252316e-10 7.873689478188339e-10 -5.984517881252316e-10 -0.0001119210573961027" pbc="T T T"
Sc       2.06513000       1.46026746       3.57691036      -0.00000058      -0.00000042       0.00000038
Sc       6.19538996       4.38080301      10.73073019      -0.00000192       0.00000146      -0.00000328
Mg       0.00000002       0.00000038       0.00000010       0.00000058      -0.00000733      -0.00000060
Te       2.20746142       1.56091062       7.15382052      -0.00141545      -0.00100292       0.00000039
Te       6.05305920       4.28015924       7.15382084       0.00142107       0.00100528       0.00000158
Te       5.09165988       1.56091059       5.48862747       0.00070785      -0.00100157      -0.00122432
Te       3.16886108       4.28015945       8.81901328      -0.00070921       0.00100390       0.00123040
Te       3.16886100       4.28015902       5.48862754      -0.00070999       0.00100286      -0.00122932
Te       5.09166002       1.56091073       8.81901340       0.00070770      -0.00100130       0.00122478
