9
Lattice="6.0385750609097135 8.421037141913327e-08 3.4863728237707776 2.012858402841206 5.693223120742887 3.4863728760607557 2.4915804258328132e-09 6.580375049800592e-08 6.9727456432259505" Properties=species:S:1:pos:R:3:forces:R:3 energy=-43.22856521606445 free_energy=-43.22856521606445 stress="-3.9830239984439686e-05 1.3661138886789104e-08 -1.2034711893704753e-08 1.3661138886789104e-08 -3.982508133049123e-05 2.554792999376332e-08 -1.2034711893704753e-08 2.554792999376332e-08 -3.9852944610174745e-05" pbc="T T T"
Sc       2.01285828       1.42330474       3.48637305       0.00000114      -0.00000414      -0.00000084
Sc       6.03857536       4.26991849      10.45911799      -0.00000025       0.00000416      -0.00000231
Mn       0.00000001       0.00000010       0.00000007      -0.00000135       0.00000054       0.00000222
Te       2.03712958       1.44046810       6.97274569       0.00072117       0.00051079       0.00000000
Te       6.01430387       4.25275514       6.97274594      -0.00072056      -0.00051077       0.00000059
Te       5.02001020       1.44046780       5.25057880      -0.00036163       0.00050944       0.00062564
Te       3.03142348       4.25275534       8.69491247       0.00036190      -0.00050917      -0.00062558
Te       3.03142292       4.25275542       5.25057890       0.00036138      -0.00051175       0.00062823
Te       5.02001017       1.44046801       8.69491249      -0.00036181       0.00051096      -0.00062793
