9
Lattice="4.324903994716639 8.633789498132741e-08 2.496984426107984 1.4416346656428678 4.077558974120346 2.4969845658200844 -1.366084852189056e-07 7.451489402540394e-08 4.99396908882879" Properties=species:S:1:pos:R:3:forces:R:3 energy=-56.723968505859375 free_energy=-56.723968505859375 stress="-0.0004733828245662153 3.6523768454088668e-09 -2.456954639740161e-08 3.6523768454088668e-09 -0.00047317647840827703 -1.621732614864868e-08 -2.456954639740161e-08 -1.621732614864868e-08 -0.00047330677625723183" pbc="T T T"
Sc       1.44163541       1.01938950       2.49698451       0.00000541       0.00000021       0.00000005
Sc       4.32490423       3.05816978       7.49095332       0.00000415       0.00000416      -0.00000400
Mg      -0.00000002       0.00000010       0.00000010       0.00000110       0.00000196      -0.00000127
O        1.52832150       1.08068657       4.99396904      -0.00602418      -0.00426155       0.00000037
O        4.23821675       2.99687280       4.99396943       0.00601941       0.00425979      -0.00000162
O        3.56074296       1.08068664       3.82054965       0.00300985      -0.00425868      -0.00521739
O        2.20579556       2.99687237       6.16738828      -0.00301422       0.00425938       0.00521733
O        2.20579479       2.99687236       3.82054989      -0.00301345       0.00425999      -0.00521320
O        3.56074282       1.08068653       6.16738815       0.00301208      -0.00426500       0.00521939
