9
Lattice="5.207073290038299 -1.8026392951750639e-07 3.0063051210016694 1.7356909837539507 4.909275254787497 3.0063050222246193 -3.537464661269754e-08 -1.459903460429077e-07 6.01261030327392" Properties=species:S:1:pos:R:3:forces:R:3 energy=-42.43362045288086 free_energy=-42.43362045288086 stress="2.9443168386933394e-05 1.0091650182175727e-08 5.8834537242091756e-09 1.0091650182175727e-08 2.9569384423666634e-05 1.1168366675917696e-08 5.8834537242091756e-09 1.1168366675917696e-08 2.945510459539946e-05" pbc="T T T"
Sc       1.73569056       1.22731742       3.00630551      -0.00000088      -0.00000407       0.00000237
Sc       5.20707340       3.68195637       9.01891424       0.00000051       0.00000112      -0.00000446
Mg       0.00000007       0.00000007      -0.00000002      -0.00000009      -0.00000103       0.00000351
S        1.83740066       1.29923829       6.01261007      -0.00382566      -0.00270434       0.00000067
S        5.10536352       3.61003731       6.01261146       0.00382438       0.00270772       0.00000707
S        4.28837239       1.29923799       4.59754064       0.00191084      -0.00270684      -0.00331295
S        2.65439139       3.61003728       7.42767974      -0.00191094       0.00270534       0.00330922
S        2.65439131       3.61003689       4.59754063      -0.00191265       0.00270610      -0.00331339
S        4.28837367       1.29923798       7.42767954       0.00191432      -0.00270405       0.00330761
