9
Lattice="5.252079159757626 6.215969377995569e-09 3.0322890409146357 1.7506930642518033 4.951707484447954 3.0322890320139573 1.1340606185458738e-07 6.928914625015695e-08 6.064577885404214" Properties=species:S:1:pos:R:3:forces:R:3 energy=-51.85087585449219 free_energy=-51.85087585449219 stress="-9.924617188517004e-05 -6.907419081159105e-10 -3.419424743356103e-08 -6.907419081159105e-10 -9.927322389557958e-05 1.2951861805277076e-08 -3.419424743356103e-08 1.2951861805277076e-08 -9.928912913892418e-05" pbc="T T T"
Sc       1.75069216       1.23792868       3.03228889      -0.00000581       0.00001016      -0.00000114
Sc       5.25207905       3.71377912       9.09686500      -0.00000182      -0.00000947      -0.00001513
Mn       0.00000055       0.00000010       0.00000050      -0.00000082      -0.00000052      -0.00000068
S        1.78202730       1.26008362       6.06457788       0.00101471       0.00071836      -0.00000030
S        5.22074541       3.69162339       6.06457884      -0.00100940      -0.00071889       0.00000479
S        4.36106570       1.26008370       4.57556960      -0.00050688       0.00071913       0.00088060
S        2.64170687       3.69162330       7.55358660       0.00050581      -0.00071687      -0.00087291
S        2.64170622       3.69162395       4.57556979       0.00050738      -0.00072187       0.00088048
S        4.36106619       1.26008450       7.55358680      -0.00050327       0.00071973      -0.00087553
