9
Lattice="4.3928089552510245 -4.292237705949546e-08 2.5361895115625814 1.4642696232193824 4.14158019139934 2.536189490887726 -6.690388115055015e-08 -7.262959660795943e-08 5.072379139006096" Properties=species:S:1:pos:R:3:forces:R:3 energy=-65.41075897216797 free_energy=-65.41075897216797 stress="0.0008632643148303032 1.3895011363729282e-07 -5.59344250916638e-08 1.3895011363729282e-07 0.0008638865547254682 -1.991692677449919e-08 -5.59344250916638e-08 -1.991692677449919e-08 0.0008634630357846618" pbc="T T T"
Sc       1.46426960       1.03539386       2.53619026      -0.00000424      -0.00000226       0.00000712
Sc       4.39280956       3.10618672       7.60856846       0.00000652       0.00000359       0.00000101
Mn      -0.00000041       0.00000031      -0.00000034       0.00001250      -0.00001010       0.00000668
O        1.46564016       1.03636458       5.07237882       0.00062233       0.00043458       0.00000081
O        4.39143815       3.10521511       5.07237909      -0.00062203      -0.00043005      -0.00000230
O        3.65998855       1.03636419       3.80547193      -0.00031653       0.00043482       0.00053543
O        2.19708977       3.10521606       6.33928622       0.00031126      -0.00043547      -0.00053936
O        2.19708972       3.10521496       3.80547207       0.00030795      -0.00042909       0.00052845
O        3.65998884       1.03636411       6.33928626      -0.00031805       0.00043392      -0.00053829
