9
Lattice="5.532629861127396 1.3411412303224718e-08 3.194265664715808 1.8442100174757052 5.216213620101959 3.1942655761695504 6.776309939835589e-08 -6.053079942097287e-08 6.388531212062359" Properties=species:S:1:pos:R:3:forces:R:3 energy=-38.32844161987305 free_energy=-38.32844161987305 stress="0.000410613720305264 -4.1672507222756394e-08 -4.045697998833475e-09 -4.1672507222756394e-08 0.0004106596461497247 3.557499539397213e-08 -4.045697998833475e-09 3.557499539397213e-08 0.0004106618871446699" pbc="T T T"
Sc       1.84420985       1.30405179       3.19426679       0.00000001      -0.00000957       0.00000718
Sc       5.53262896       3.91216047       9.58279549      -0.00000387       0.00000165      -0.00001212
Mg      -0.00000029       0.00000023      -0.00000005       0.00000552      -0.00000458      -0.00000781
Se       1.98092618       1.40072571       6.38853121      -0.00080557      -0.00057340      -0.00000218
Se       5.39591428       3.81548793       6.38853201       0.00080669       0.00057165       0.00000185
Se       4.54216734       1.40072553       4.90979816       0.00040120      -0.00056928      -0.00069506
Se       2.83467423       3.81548832       7.86726350      -0.00040372       0.00058486       0.00070536
Se       2.83467252       3.81548730       4.90979793      -0.00040454       0.00056934      -0.00070100
Se       4.54216674       1.40072690       7.86726468       0.00040415      -0.00057077       0.00070378
