9
Lattice="5.157351782712398 3.85521067580988e-08 2.9775983416955683 1.719117310691468 4.86239795220709 2.977598318416755 5.8570847766897406e-08 1.2905173955241917e-08 5.955196581943501" Properties=species:S:1:pos:R:3:forces:R:3 energy=-47.580562591552734 free_energy=-47.580562591552734 stress="1.3451224731397815e-05 1.1012276246447072e-07 -3.4705308071814045e-10 1.1012276246447072e-07 1.3362227036850527e-05 -3.4201754761653547e-09 -3.4705308071814045e-10 -3.4201754761653547e-09 1.3353207577893045e-05" pbc="T T T"
Sc       1.71911613       1.21560096       2.97759757      -0.00000615       0.00000763      -0.00000577
Sc       5.15735169       3.64679754       8.93279716      -0.00000167      -0.00000489       0.00001466
Ni       0.00000019      -0.00000018      -0.00000041      -0.00000108       0.00000180       0.00000815
S        1.76142352       1.24551434       5.95519674      -0.00006032      -0.00004402       0.00000106
S        5.11504590       3.61688327       5.95519600       0.00006491       0.00004238      -0.00000291
S        4.27664066       1.24551522       4.50303562       0.00003558      -0.00004339      -0.00005889
S        2.59982849       3.61688305       7.40735733      -0.00003159       0.00003791       0.00005016
S        2.59982966       3.61688347       4.50303571      -0.00003037       0.00004494      -0.00005725
S        4.27664049       1.24551441       7.40735716       0.00003070      -0.00004235       0.00005105
