9
Lattice="4.521753705789974 -9.027197604804942e-08 2.610635724098153 1.5072511706699925 4.263150152266715 2.6106356885635518 5.809812516802147e-09 -3.9412657850398543e-08 5.221271438133439" Properties=species:S:1:pos:R:3:forces:R:3 energy=-69.8440933227539 free_energy=-69.8440933227539 stress="0.00021592373377643526 1.9588878075182947e-08 -4.354464344658027e-09 1.9588878075182947e-08 0.00021607993403449655 -1.411617400748355e-08 -4.354464344658027e-09 -1.411617400748355e-08 0.0002159382711397484" pbc="T T T"
Sc       1.50725147       1.06578617       2.61063574       0.00000582      -0.00001257      -0.00000016
Sc       4.52175404       3.19736297       7.83190713       0.00000325       0.00000140       0.00000137
Nb       0.00000008      -0.00000009      -0.00000011      -0.00000405       0.00000004       0.00000130
O        1.57860298       1.11624149       5.22127135      -0.00163895      -0.00114983      -0.00000055
O        4.45040140       3.14690893       5.22127141       0.00163805       0.00115860       0.00000199
O        3.73245176       1.11624095       3.97774631       0.00081402      -0.00115848      -0.00141573
O        2.29655324       3.14690966       6.46479655      -0.00081450       0.00115854       0.00141060
O        2.29655303       3.14690952       3.97774648      -0.00081596       0.00116110      -0.00141138
O        3.73245152       1.11624052       6.46479661       0.00081301      -0.00115871       0.00141394
