9
Lattice="6.281996014046842 -4.6453837271204046e-08 3.626912126588132 2.0939986411193496 5.922722617337436 3.6269121030884834 6.93638212819601e-09 -2.3876306778434164e-08 7.253824241162092" Properties=species:S:1:pos:R:3:forces:R:3 energy=-43.84281539916992 free_energy=-43.84281539916992 stress="-0.0002354012685827911 -5.6083147015328905e-09 4.77065009718558e-09 -5.6083147015328905e-09 -0.00023539304675068706 -5.089328514173985e-09 4.77065009718558e-09 -5.089328514173985e-09 -0.00023538852110505104" pbc="T T T"
Sc       2.09399886       1.48068050       3.62691215       0.00000081      -0.00000053       0.00000018
Sc       6.28199615       4.44204157      10.88073635       0.00000007      -0.00000132      -0.00000038
Nb      -0.00000007       0.00000009      -0.00000006      -0.00000060      -0.00000027      -0.00000076
Te       2.20528729       1.55937381       7.25382425      -0.00810374      -0.00573016      -0.00000004
Te       6.17070715       4.36334892       7.25382422       0.00810605       0.00573225       0.00000015
Te       5.17935224       1.55937376       5.53674708       0.00405190      -0.00573158      -0.00701843
Te       3.19664235       4.36334895       8.97090134      -0.00405329       0.00573168       0.00701888
Te       3.19664234       4.36334890       5.53674721      -0.00405356       0.00573191      -0.00701918
Te       5.17935235       1.55937370       8.97090135       0.00405236      -0.00573191       0.00701952
