9
Lattice="5.543286191647329 -9.657881155661895e-08 3.20041779445285 1.847761962439258 5.2262604812082705 3.2004178124450595 -1.7715328812447922e-08 9.509230972192018e-09 6.400835619589592" Properties=species:S:1:pos:R:3:forces:R:3 energy=-43.32662582397461 free_energy=-43.32662582397461 stress="-0.00043877679854631424 -2.0924428856261557e-09 -7.739150653662819e-09 -2.0924428856261557e-09 -0.00043880121666006744 5.774316580442473e-10 -7.739150653662819e-09 5.774316580442473e-10 -0.0004388042143546045" pbc="T T T"
Sc       1.84776208       1.30656531       3.20041825      -0.00000068       0.00000131       0.00000340
Sc       5.54328711       3.91969517       9.60125324       0.00000776      -0.00000101      -0.00000073
Ni       0.00000008       0.00000010       0.00000008      -0.00000623      -0.00000358      -0.00000225
Se       1.89637198       1.34093810       6.40083579      -0.00612283      -0.00432545       0.00000123
Se       5.49467573       3.88532244       6.40083613       0.00612772       0.00433159       0.00000071
Se       4.59509961       1.34093761       4.84272434       0.00305946      -0.00433013      -0.00530443
Se       2.79594809       3.88532290       7.95894642      -0.00306499       0.00433236       0.00530258
Se       2.79594786       3.88532232       4.84272433      -0.00306375       0.00432768      -0.00530347
Se       4.59509996       1.34093760       7.95894636       0.00306328      -0.00433257       0.00530297
