9
Lattice="5.798191493748348 -3.294283871277763e-08 3.3475874869216407 1.9327304761457949 5.466587348063216 3.34758747083351 2.886634052542773e-08 7.07721993969069e-10 6.695174923845292" Properties=species:S:1:pos:R:3:forces:R:3 energy=-48.34115219116211 free_energy=-48.34115219116211 stress="-9.05640481505543e-05 -5.526632662622433e-08 1.1022249779557569e-08 -5.526632662622433e-08 -9.058228170033544e-05 -5.060276819790488e-08 1.1022249779557569e-08 -5.060276819790488e-08 -9.053492249222472e-05" pbc="T T T"
Sc       1.93273050       1.36664571       3.34758710       0.00000007      -0.00000822      -0.00000174
Sc       5.79819083       4.09994049      10.04276205      -0.00000282      -0.00000092      -0.00000312
Nb      -0.00000007      -0.00000022       0.00000035       0.00000248       0.00000684      -0.00000589
Se       2.01180063       1.42255773       6.69517485      -0.00194752      -0.00137433      -0.00000104
Se       5.71912125       4.04403007       6.69517490       0.00193738       0.00137641      -0.00000057
Se       4.79229135       1.42255775       5.08985805       0.00097144      -0.00137554      -0.00168537
Se       2.93863100       4.04402951       8.30049228      -0.00097016       0.00137495       0.00168696
Se       2.93863098       4.04403015       5.08985829      -0.00096964       0.00137925      -0.00167934
Se       4.79229148       1.42255805       8.30049172       0.00097871      -0.00137840       0.00169002
