9
Lattice="6.01276197036841 -5.174960518263925e-08 3.471469733920847 2.0042539247350972 5.6688864307742985 3.4714697626689257 -2.8324511401522797e-08 1.5180606737777505e-08 6.942939516901173" Properties=species:S:1:pos:R:3:forces:R:3 energy=-39.94968032836914 free_energy=-39.94968032836914 stress="0.00010095709876623005 -7.365414944615623e-10 -3.772703927040766e-09 -7.365414944615623e-10 0.00010096798359882087 5.490372601002491e-09 -3.772703927040766e-09 5.490372601002491e-09 0.0001009745683404617" pbc="T T T"
Sc       2.00425376       1.41722109       3.47147005       0.00000020      -0.00000189       0.00000149
Sc       6.01276170       4.25166565      10.41440904      -0.00000132       0.00000373      -0.00000064
Ni      -0.00000013      -0.00000008       0.00000028       0.00000167      -0.00000118      -0.00000026
Te       2.04844967       1.44847219       6.94293946       0.00197965       0.00139849       0.00000011
Te       5.96856655       4.22041392       6.94293945      -0.00197916      -0.00139941       0.00000010
Te       4.98853705       1.44847231       5.24547933      -0.00099000       0.00139730       0.00171447
Te       3.02847892       4.22041411       8.64039960       0.00098915      -0.00139830      -0.00171386
Te       3.02847883       4.22041376       5.24547902       0.00098921      -0.00139838       0.00171359
Te       4.98853710       1.44847261       8.64039977      -0.00098938       0.00139970      -0.00171517
