9
Lattice="4.249274286319733 1.514796750964022e-08 2.4533196529478674 1.4164247965167094 4.006254121109176 2.4533196180842647 7.224886491133047e-08 8.388671254979338e-09 4.906639180757022" Properties=species:S:1:pos:R:3:forces:R:3 energy=-58.032188415527344 free_energy=-58.032188415527344 stress="-0.0005730603006668389 -1.1246471842696337e-07 7.721943973137968e-08 -1.1246471842696337e-07 -0.0005732342251576483 1.4297570238852586e-08 7.721943973137968e-08 1.4297570238852586e-08 -0.0005731415003538132" pbc="T T T"
Sc       1.41642463       1.00156366       2.45332028      -0.00000105      -0.00000069      -0.00000150
Sc       4.24927478       3.00469022       7.35995790       0.00000191      -0.00000229      -0.00000306
Ni       0.00000009      -0.00000003       0.00000055      -0.00000011      -0.00000167      -0.00002349
O        1.44098068       1.01892718       4.90663937      -0.00759649      -0.00536993      -0.00000125
O        4.22471830       2.98732725       4.90663941       0.00759646       0.00537308       0.00000253
O        3.52878397       1.01892723       3.70124575       0.00379828      -0.00537056      -0.00657728
O        2.13691535       2.98732655       6.11203243      -0.00380465       0.00538127       0.00659084
O        2.13691470       2.98732672       3.70124543      -0.00380202       0.00536740      -0.00657725
O        3.52878420       1.01892773       6.11203262       0.00380777      -0.00537650       0.00659087
