9
Lattice="4.42034685414585 -1.5140849980339986e-08 2.5520884206618546 1.4734489391305925 4.167542981381794 2.5520884171569254 -1.2173915922142048e-08 -1.2900909454524093e-08 5.1041768624095445" Properties=species:S:1:pos:R:3:forces:R:3 energy=-59.05403137207031 free_energy=-59.05403137207031 stress="-5.961685019428842e-05 -8.812317098261246e-09 3.3306548630207544e-08 -8.812317098261246e-09 -5.949012847850099e-05 1.0352308521532905e-07 3.3306548630207544e-08 1.0352308521532905e-07 -5.934544242336415e-05" pbc="T T T"
Sc       1.47344851       1.04188596       2.55208873      -0.00000138       0.00000305       0.00000138
Sc       4.42034771       3.12565753       7.65626500       0.00000332       0.00000092      -0.00000295
Pd      -0.00000012       0.00000002       0.00000026      -0.00000055      -0.00000395      -0.00002047
O        1.55896928       1.10235787       5.10417682      -0.00065769      -0.00046363      -0.00000262
O        4.33482657       3.06518488       5.10417732       0.00066360       0.00046336       0.00000302
O        3.64086194       1.10235777       3.90219560       0.00032679      -0.00046623      -0.00056583
O        2.25293351       3.06518506       6.30615780      -0.00033793       0.00047580       0.00057757
O        2.25293364       3.06518480       3.90219547      -0.00033014       0.00046250      -0.00056871
O        3.64086204       1.10235789       6.30615784       0.00033404      -0.00047174       0.00057754
