9
Lattice="5.73592104685197 -2.772913108396026e-08 3.3116353800733696 1.9119736474102358 5.40787803959077 3.311635395195007 2.5647736317575165e-08 3.6655824499591663e-08 6.623270715723529" Properties=species:S:1:pos:R:3:forces:R:3 energy=-42.22230529785156 free_energy=-42.22230529785156 stress="-6.3496787333861e-05 -1.2922196646059092e-08 -2.1497424285144007e-08 -1.2922196646059092e-08 -6.350465991999954e-05 -2.7281417125379903e-09 -2.1497424285144007e-08 -2.7281417125379903e-09 -6.348828901536763e-05" pbc="T T T"
Sc       1.91197489       1.35197049       3.31163545       0.00000928       0.00000652       0.00000059
Sc       5.73591978       4.05590930       9.93490654      -0.00000868       0.00000480       0.00000523
Pd      -0.00000004       0.00000011      -0.00000028       0.00000344      -0.00000059       0.00000303
Se       1.99626652       1.41157327       6.62327072       0.00034738       0.00024346      -0.00000105
Se       5.65162874       3.99630396       6.62327044      -0.00034803      -0.00024951      -0.00000358
Se       4.73778703       1.41157314       5.04045226      -0.00017741       0.00024447       0.00029922
Se       2.91010755       3.99630442       8.20608931       0.00017598      -0.00024638      -0.00029823
Se       2.91010714       3.99630439       5.04045242       0.00017703      -0.00024664       0.00029656
Se       4.73778724       1.41157310       8.20608908      -0.00017908       0.00024366      -0.00030163
