9
Lattice="5.384434548061263 6.549701104997044e-08 3.1087047706736013 1.7948115639278044 5.076493583150053 3.1087047946517656 -1.491266574732306e-08 1.8822302930539727e-08 6.2174095671766745" Properties=species:S:1:pos:R:3:forces:R:3 energy=-45.818214416503906 free_energy=-45.818214416503906 stress="-0.00012103744666092098 -1.8809306112643753e-08 -4.565460454131198e-09 -1.8809306112643753e-08 -0.0001209895417559892 -2.54183145642628e-08 -4.565460454131198e-09 -2.54183145642628e-08 -0.00012099451123503968" pbc="T T T"
Sc       1.79481165       1.26912387       3.10870454       0.00000151       0.00000355      -0.00000175
Sc       5.38443469       3.80737006       9.32611498      -0.00000011      -0.00000349       0.00000135
Pd      -0.00000012       0.00000011      -0.00000025       0.00000385      -0.00000642       0.00000850
S        1.88059025       1.32977825       6.21740942      -0.00167358      -0.00118381      -0.00000006
S        5.29865578       3.74671550       6.21740929       0.00167489       0.00118196      -0.00000026
S        4.44413980       1.32977825       4.73734400       0.00083834      -0.00118375      -0.00144798
S        2.73510637       3.74671542       7.69747516      -0.00083864       0.00118405       0.00144941
S        2.73510691       3.74671484       4.73734368      -0.00083941       0.00118589      -0.00145632
S        4.44413897       1.32977836       7.69747570       0.00083333      -0.00117815       0.00144744
