9
Lattice="4.339100557253349 4.456937754929887e-08 2.505180784773307 1.4463668725624355 4.09094331495676 2.5051808226631995 2.0186439314977427e-09 4.783285053942157e-08 5.010361566050231" Properties=species:S:1:pos:R:3:forces:R:3 energy=-63.99599838256836 free_energy=-63.99599838256836 stress="6.139186007203534e-05 -2.0226382346777427e-08 -1.1233193930593188e-08 -2.0226382346777427e-08 6.162147474242374e-05 5.127599678189654e-08 -1.1233193930593188e-08 5.127599678189654e-08 6.162721547298133e-05" pbc="T T T"
Sc       1.44636712       1.02273585       2.50518064       0.00000060       0.00000050      -0.00000061
Sc       4.33910083       3.06820797       7.51554219      -0.00000129      -0.00000344       0.00000142
S       -0.00000011       0.00000002      -0.00000012       0.00000345       0.00000065       0.00000403
O        1.37028050       0.96893466       5.01036181      -0.00476515      -0.00336838      -0.00000383
O        4.41518670       3.12200836       5.01036163       0.00476331       0.00337553      -0.00000067
O        3.65396027       0.96893478       3.69187887       0.00238113      -0.00337285      -0.00413504
O        2.13150716       3.12200852       6.32884457      -0.00238270       0.00337330       0.00412691
O        2.13150707       3.12200876       3.69187839      -0.00238015       0.00336710      -0.00412327
O        3.65396023       0.96893480       6.32884467       0.00238088      -0.00337273       0.00413182
