9
Lattice="5.370889224973003 -1.4147858165494174e-07 3.1008844586284003 1.7902963621375447 5.063722545901415 3.1008843075927186 6.822066837343868e-08 -1.367408952295707e-07 6.201768799095164" Properties=species:S:1:pos:R:3:forces:R:3 energy=-52.11904525756836 free_energy=-52.11904525756836 stress="-7.023176294751465e-05 1.4174514895159973e-08 -1.8969394943724183e-08 1.4174514895159973e-08 -7.020809425739571e-05 -1.2711559804756689e-08 -1.8969394943724183e-08 -1.2711559804756689e-08 -7.019734039204195e-05" pbc="T T T"
Sc       1.79029640       1.26593010       3.10088512       0.00000052      -0.00000227       0.00000684
Sc       5.37088787       3.79779176       9.30265014      -0.00000874       0.00000053      -0.00001979
Ti      -0.00000014      -0.00000036      -0.00000024       0.00000358       0.00000588       0.00000311
S        1.86575294       1.31928627       6.20176906      -0.00084154      -0.00059572      -0.00000013
S        5.29543303       3.74443624       6.20177016       0.00083591       0.00059189       0.00000798
S        4.43801257       1.31928564       4.71667396       0.00041901      -0.00059620      -0.00072661
S        2.72317370       3.74443674       7.68686430      -0.00041297       0.00059339       0.00072680
S        2.72317281       3.74443614       4.71667349      -0.00041778       0.00059213      -0.00072639
S        4.43801346       1.31928653       7.68686432       0.00042178      -0.00058985       0.00072810
