9
Lattice="6.214110377068768 3.163644174966229e-08 3.587718217963425 2.071370119291344 5.85871948007497 3.587718280707644 -3.390427198162291e-08 5.287171545855187e-08 7.175436494650805" Properties=species:S:1:pos:R:3:forces:R:3 energy=-42.64301300048828 free_energy=-42.64301300048828 stress="-4.0494895074516535e-05 9.714549165096287e-09 -3.415127292072384e-09 9.714549165096287e-09 -4.048450500704348e-05 8.37297697842132e-09 -3.415127292072384e-09 8.37297697842132e-09 -4.05049322580453e-05" pbc="T T T"
Sc       2.07137026       1.46468037       3.58771827       0.00000094       0.00000221      -0.00000051
Sc       6.21411012       4.39403935      10.76315425      -0.00000099      -0.00000157      -0.00000260
Ti       0.00000001       0.00000040      -0.00000027      -0.00000010      -0.00000293       0.00000050
Te       2.16359693       1.52989425       7.17543657      -0.00029235      -0.00020654      -0.00000005
Te       6.12188340       4.32882515       7.17543666       0.00029506       0.00020774       0.00000084
Te       5.13231186       1.52989414       5.46144815       0.00014565      -0.00020753      -0.00025311
Te       3.15316878       4.32882519       8.88942497      -0.00014614       0.00020707       0.00025570
Te       3.15316848       4.32882529       5.46144813      -0.00014683       0.00020690      -0.00025269
Te       5.13231201       1.52989412       8.88942520       0.00014486      -0.00020538       0.00025202
