9
Lattice="5.70381070778353 -4.9183643622883863e-08 3.2930967302350695 1.9012702247739288 5.377604234711446 3.2930966692376944 3.405535863522781e-08 -5.062544435798521e-08 6.586193401484539" Properties=species:S:1:pos:R:3:forces:R:3 energy=-47.051456451416016 free_energy=-47.051456451416016 stress="-4.770473242388107e-05 -2.6789777507474355e-08 2.561287626434705e-09 -2.6789777507474355e-08 -4.7658279072493315e-05 1.0903178804255731e-08 2.561287626434705e-09 1.0903178804255731e-08 -4.763711694977246e-05" pbc="T T T"
Sc       1.90126995       1.34440139       3.29309697      -0.00000172       0.00000048       0.00000221
Sc       5.70381035       4.03320277       9.87929106      -0.00000165      -0.00000057       0.00000232
Ti      -0.00000006      -0.00000011      -0.00000011      -0.00000141       0.00000123      -0.00000697
Se       1.97021903       1.39315505       6.58619328       0.00017006       0.00011949      -0.00000134
Se       5.63486213       3.98444915       6.58619288      -0.00017049      -0.00012124      -0.00000096
Se       4.71870132       1.39315526       4.99935642      -0.00008390       0.00012199       0.00014690
Se       2.88637998       3.98444885       8.17303021       0.00008449      -0.00011812      -0.00014382
Se       2.88637974       3.98444890       4.99935643       0.00008640      -0.00012235       0.00014615
Se       4.71870141       1.39315526       8.17303008      -0.00008205       0.00011889      -0.00014496
