9
Lattice="4.4102927817409485 7.612360217914809e-08 2.5462838383707194 1.4700976184197314 4.158064296779402 2.54628392023427 -8.199216482530953e-08 4.228476101717129e-08 5.0925678187560335" Properties=species:S:1:pos:R:3:forces:R:3 energy=-68.37824249267578 free_energy=-68.37824249267578 stress="-0.00012369442265480757 1.5538677189397276e-07 -5.596101004812226e-08 1.5538677189397276e-07 -0.00012335907376836985 1.3801400200463831e-07 -5.596101004812226e-08 1.3801400200463831e-07 -0.00012351445911917835" pbc="T T T"
Sc       1.47009749       1.03951597       2.54628397      -0.00000216      -0.00000138      -0.00000133
Sc       4.41029272       3.11854837       7.63885178       0.00000057       0.00000060      -0.00000235
Ti      -0.00000009       0.00000004      -0.00000022       0.00000210      -0.00000000       0.00000179
O        1.52941216       1.08145781       5.09256771      -0.00229734      -0.00163084       0.00000012
O        4.35097805       3.07660671       5.09256772       0.00229955       0.00163078       0.00000139
O        3.64558668       1.08145787       3.87079348       0.00114697      -0.00162607      -0.00199240
O        2.23480347       3.07660654       6.31434197      -0.00115004       0.00162643       0.00199431
O        2.23480352       3.07660665       3.87079368      -0.00114584       0.00162262      -0.00198823
O        3.64558715       1.08145766       6.31434214       0.00114495      -0.00162208       0.00198531
