9
Lattice="5.326049048551712 -1.596475198915651e-10 3.074995718695301 1.7753496331432088 5.0214474988011 3.0749958045302894 -5.986649069236549e-08 6.279396732852938e-08 6.149991541082393" Properties=species:S:1:pos:R:3:forces:R:3 energy=-52.43008804321289 free_energy=-52.43008804321289 stress="-0.00016193634655792266 2.045304814402016e-09 -3.3027449664047026e-09 2.045304814402016e-09 -0.00016198681259993464 8.624776448584726e-09 -3.3027449664047026e-09 8.624776448584726e-09 -0.0001619004033273086" pbc="T T T"
Sc       1.77534864       1.25536216       3.07499602      -0.00000632       0.00000217       0.00000243
Sc       5.32605005       3.76608559       9.22498739       0.00000822       0.00000014      -0.00000132
V       -0.00000000       0.00000002       0.00000029       0.00000082      -0.00000007      -0.00000179
S        1.83230433       1.29563529       6.14999127      -0.00260788      -0.00184137      -0.00000134
S        5.26909407       3.72581261       6.14999135       0.00260499       0.00184330      -0.00000027
S        4.40989697       1.29563522       4.66181832       0.00130682      -0.00184414      -0.00225610
S        2.69150173       3.72581205       7.63816478      -0.00130734       0.00184220       0.00225767
S        2.69150147       3.72581231       4.66181819      -0.00130519       0.00184169      -0.00225529
S        4.40989723       1.29563496       7.63816462       0.00130633      -0.00184408       0.00225583
