9
Lattice="5.617870443115016 -6.043377346662331e-08 3.2434789887125053 1.8726234277860125 5.296579117631126 3.243478982260246 -1.7469363229847966e-09 -9.137633035438003e-09 6.48695798045079" Properties=species:S:1:pos:R:3:forces:R:3 energy=-47.41276550292969 free_energy=-47.41276550292969 stress="-4.9390262574888766e-05 4.178637991181233e-10 -8.253102201649654e-09 4.178637991181233e-10 -4.936649202136323e-05 -9.060413752592922e-09 -8.253102201649654e-09 -9.060413752592922e-09 -4.941385122947395e-05" pbc="T T T"
Sc       1.87262382       1.32414353       3.24347920       0.00000130      -0.00000961       0.00000283
Sc       5.61787015       3.97243448       9.73043647       0.00000056       0.00000135      -0.00000341
V        0.00000001       0.00000009      -0.00000017       0.00000026      -0.00000166      -0.00000120
Se       1.92704313       1.36262578       6.48695801       0.00062719       0.00044554       0.00000078
Se       5.56345039       3.93395357       6.48695812      -0.00062853      -0.00044148       0.00000136
Se       4.65434844       1.36262517       4.91234740      -0.00031747       0.00044310       0.00054371
Se       2.83614540       3.93395425       8.06156847       0.00031668      -0.00043955      -0.00054565
Se       2.83614535       3.93395398       4.91234769       0.00031437      -0.00044057       0.00054419
Se       4.65434873       1.36262534       8.06156872      -0.00031404       0.00044309      -0.00054267
