9
Lattice="4.3821363227285826 -9.967214883787639e-08 2.5300275208694543 1.460712068161744 4.131517334354092 2.530027426373377 5.35407434908412e-08 -7.787459079197088e-08 5.060054949003633" Properties=species:S:1:pos:R:3:forces:R:3 energy=-66.92030334472656 free_energy=-66.92030334472656 stress="-7.449261465808377e-05 -5.335312991405772e-08 7.297257553773306e-08 -5.335312991405772e-08 -7.467134855687618e-05 7.936526991159099e-09 7.297257553773306e-08 7.936526991159099e-09 -7.496816397178918e-05" pbc="T T T"
Sc       1.46071202       1.03287897       2.53002754       0.00000107       0.00000047      -0.00000145
Sc       4.38213664       3.09863726       7.59008278      -0.00000054      -0.00000403       0.00000279
V       -0.00000001       0.00000008      -0.00000011       0.00000182       0.00000038       0.00000178
O        1.50704001       1.06563843       5.06005485       0.00051203       0.00036371       0.00000012
O        4.33580828       3.06587918       5.06005480      -0.00051484      -0.00036298      -0.00000091
O        3.62861643       1.06563840       3.83516250      -0.00025472       0.00036328       0.00044732
O        2.21423195       3.06587902       6.28494733       0.00025710      -0.00036480      -0.00045225
O        2.21423226       3.06587897       3.83516226       0.00025490      -0.00035955       0.00044718
O        3.62861615       1.06563832       6.28494760      -0.00025694       0.00036325      -0.00044487
