9
Lattice="6.104000462946492 -1.3366821362103198e-08 3.524146393858975 2.0346668461834656 5.754906688532775 3.5241463283810983 6.284145887202125e-08 -3.5758096287151375e-08 7.048292678873333" Properties=species:S:1:pos:R:3:forces:R:3 energy=-43.14432144165039 free_energy=-43.14432144165039 stress="-4.770123996422626e-05 -2.4478071125599854e-08 3.956253991077574e-09 -2.4478071125599854e-08 -4.7667635953985155e-05 4.70857086654064e-09 3.956253991077574e-09 4.70857086654064e-09 -4.7680357965873554e-05" pbc="T T T"
Sc       2.03466655       1.43872668       3.52414714      -0.00000134       0.00000059       0.00000355
Sc       6.10400083       4.31617928      10.57243855       0.00000235      -0.00000206      -0.00000407
V        0.00000001      -0.00000011      -0.00000021      -0.00000033       0.00000413      -0.00000065
Te       2.11234560       1.49365376       7.04829270      -0.00502391      -0.00355081      -0.00000082
Te       6.02632172       4.26125318       7.04829308       0.00501931       0.00355108       0.00000241
Te       5.04782784       1.49365411       5.35349111       0.00251256      -0.00355247      -0.00435291
Te       3.09083928       4.26125293       8.74309423      -0.00251134       0.00355189       0.00434799
Te       3.09083942       4.26125267       5.35349105      -0.00251262       0.00355025      -0.00434733
Te       5.04782825       1.49365404       8.74309394       0.00251536      -0.00355258       0.00435187
