9
Lattice="4.335946897322453 -7.338806594096735e-08 2.503360152193388 1.4453155677138991 4.0879701089254095 2.503360144461567 -7.941027394885604e-08 -6.562109555355656e-08 5.006720441929445" Properties=species:S:1:pos:R:3:forces:R:3 energy=-54.34320831298828 free_energy=-54.34320831298828 stress="-0.00022202111722435802 3.239665957721627e-08 -1.3093633954852635e-09 3.239665957721627e-08 -0.00022174007608555257 5.782774437079752e-08 -1.3093633954852635e-09 5.782774437079752e-08 -0.00022185540001373738" pbc="T T T"
Sc       1.44531522       1.02199260       2.50336048      -0.00000054       0.00000107       0.00000040
Sc       4.33594633       3.06597758       7.51008031      -0.00000429      -0.00000003      -0.00000144
Zn       0.00000018       0.00000010      -0.00000012      -0.00000551       0.00000283       0.00001385
O        1.52820869       1.08060651       5.00672017      -0.00292751      -0.00207208      -0.00000207
O        4.25305369       3.00736356       5.00672047       0.00292857       0.00207391       0.00000235
O        3.57184287       1.08060676       3.82682778       0.00147042      -0.00207473      -0.00253998
O        2.20942004       3.00736313       6.18661340      -0.00146092       0.00206567       0.00253122
O        2.20941985       3.00736315       3.82682757      -0.00146557       0.00207388      -0.00253950
O        3.57184264       1.08060659       6.18661300       0.00146573      -0.00206973       0.00253521
