9
Lattice="5.621718266732301 -1.7145515430108032e-08 3.2457004247135948 1.8739060482762142 5.300206506794603 3.2457004670961966 4.210846058349609e-09 5.48853912861503e-08 6.49140084213377" Properties=species:S:1:pos:R:3:forces:R:3 energy=-37.8637809753418 free_energy=-37.8637809753418 stress="-0.00036782375536859035 5.1867779404801695e-08 1.1989815362767331e-08 5.1867779404801695e-08 -0.00036783883115276694 -3.1708515813022586e-09 1.1989815362767331e-08 -3.1708515813022586e-09 -0.00036780620575882494" pbc="T T T"
Sc       1.87390663       1.32505156       3.24570034       0.00000404      -0.00000126      -0.00000156
Sc       5.62171855       3.97515566       9.73710080       0.00000014       0.00000328      -0.00000363
Zn       0.00000001       0.00000033       0.00000012      -0.00000053      -0.00000635       0.00000227
Se       1.98584097       1.40420116       6.49140078      -0.00231072      -0.00163546      -0.00000186
Se       5.50978304       3.89600533       6.49140065       0.00231510       0.00163850      -0.00000087
Se       4.62879784       1.40420098       4.96548908       0.00115445      -0.00163555      -0.00200012
Se       2.86682687       3.89600467       8.01731286      -0.00115614       0.00163406       0.00200680
Se       2.86682596       3.89600543       4.96548922      -0.00115930       0.00163683      -0.00200102
Se       4.62879744       1.40420106       8.01731303       0.00115286      -0.00163439       0.00199997
