9
Lattice="6.145937738935135 3.9623145915101726e-08 3.548358771274733 2.048645935756399 5.794445800554271 3.5483587965263967 -3.655667867156538e-08 5.077372739364958e-09 7.096717605867527" Properties=species:S:1:pos:R:3:forces:R:3 energy=-34.49995422363281 free_energy=-34.49995422363281 stress="-0.00026269390946254134 1.3762474493361765e-09 3.3029732282585655e-09 1.3762474493361765e-09 -0.00026271105161868036 -3.7513618877937915e-09 3.3029732282585655e-09 -3.7513618877937915e-09 -0.0002627037756610662" pbc="T T T"
Sc       2.04864569       1.44861160       3.54835876      -0.00000122       0.00000118       0.00000091
Sc       6.14593794       4.34583464      10.64507633       0.00000002       0.00000146       0.00000019
Zn      -0.00000018       0.00000000       0.00000015       0.00000101      -0.00000077      -0.00000173
Te       2.14627431       1.51764514       7.09671758      -0.00361601      -0.00255756      -0.00000066
Te       6.04830939       4.27680049       7.09671760       0.00361654       0.00255628      -0.00000028
Te       5.07280085       1.51764502       5.40708696       0.00180845      -0.00255646      -0.00312993
Te       3.12178292       4.27680061       8.78634831      -0.00180972       0.00255729       0.00313234
Te       3.12178306       4.27680075       5.40708684      -0.00180743       0.00255677      -0.00313221
Te       5.07280055       1.51764514       8.78634819       0.00180846      -0.00255814       0.00313127
