9
Lattice="5.32770421767371 4.5252955304905613e-08 3.075951650451179 1.7759014552209198 5.023007687350906 3.075951638907467 -8.040807031278125e-09 -1.9823857737203674e-08 6.151903314829437" Properties=species:S:1:pos:R:3:forces:R:3 energy=-41.482479095458984 free_energy=-41.482479095458984 stress="1.591690647728683e-06 -1.5699884059472424e-08 6.152906184553331e-09 -1.5699884059472424e-08 1.6464009604533203e-06 3.340232623827433e-08 6.152906184553331e-09 3.340232623827433e-08 1.5856779782552621e-06" pbc="T T T"
Sc       1.77590101       1.25575170       3.07595187      -0.00000211      -0.00000131       0.00000056
Sc       5.32770435       3.76725580       9.22785501      -0.00000023       0.00000042      -0.00000139
Zn       0.00000020       0.00000008       0.00000014      -0.00000026      -0.00000070       0.00000257
S        1.86491955       1.31869728       6.15190341      -0.00023681      -0.00016671       0.00000141
S        5.23868601       3.70431066       6.15190341       0.00023544       0.00016603       0.00000193
S        4.39524423       1.31869720       4.69101952       0.00011796      -0.00016791      -0.00020576
S        2.70836116       3.70431043       7.61278689      -0.00011790       0.00016871       0.00020361
S        2.70836130       3.70431040       4.69101935      -0.00011766       0.00016856      -0.00020558
S        4.39524481       1.31869730       7.61278687       0.00012136      -0.00016695       0.00020283
