9
Lattice="4.878710732236871 -4.17722588813601e-08 2.816725108549986 1.6262368569368357 4.599692896232585 2.8167251335356513 -1.0514292166200114e-07 -4.3746186152202755e-08 5.633450399212813" Properties=species:S:1:pos:R:3:forces:R:3 energy=-29.481481552124023 free_energy=-29.481481552124023 stress="-7.083921445882879e-06 -1.17375250852092e-07 1.0680437867449655e-07 -1.17375250852092e-07 -7.385302978946129e-06 9.768177022806412e-08 1.0680437867449655e-07 9.768177022806412e-08 -7.474885933334008e-06" pbc="T T T"
Se       1.62620978       1.14994229       2.81674740      -0.00035054       0.00024886       0.00028844
Se       4.87871556       3.44977120       8.45017449       0.00007542       0.00001086      -0.00002779
Ag       0.00000076      -0.00000067      -0.00000082       0.00000270      -0.00000332      -0.00000162
O        1.58889786       1.12352117       5.63344190       0.00032735       0.00024056      -0.00011367
O        4.91605811       3.47616076       5.63345039      -0.00022727      -0.00036645       0.00000223
O        4.08426552       1.12351852       4.19275354      -0.00010502       0.00020009       0.00030625
O        2.42068613       3.47617328       7.07414652       0.00016755      -0.00023031      -0.00032276
O        2.42068223       3.47616493       4.19274775       0.00011772      -0.00031835       0.00024575
O        4.08427402       1.12351976       7.07414148      -0.00000796       0.00021803      -0.00037706
