9
Lattice="5.324187465761909 -3.2968446304363523e-07 3.0739208235692645 1.7747289056910418 5.019691657323224 3.073920717452499 -4.7955723532407056e-08 -1.6387587465229912e-07 6.147841730200242" Properties=species:S:1:pos:R:3:forces:R:3 energy=-26.90450668334961 free_energy=-26.90450668334961 stress="1.1475889039047615e-07 6.132067653652484e-08 6.868064872378454e-08 6.132067653652484e-08 2.540108994253387e-07 1.6409297032282666e-08 6.868064872378454e-08 1.6409297032282666e-08 3.400085120119911e-07" pbc="T T T"
Se       1.77473149       1.25492318       3.07392181       0.00002000      -0.00000005       0.00000869
Se       5.32418648       3.76476734       9.22176248      -0.00000895      -0.00000627       0.00000635
Be       0.00000004      -0.00000012       0.00000032       0.00000024       0.00000049       0.00000114
S        1.85723729       1.31326500       6.14784356      -0.00025387      -0.00017074       0.00000156
S        5.24167787       3.70642722       6.14784312       0.00024397       0.00018295       0.00000276
S        4.39556690       1.31326635       4.68233360       0.00011971      -0.00017287      -0.00022985
S        2.70334776       3.70642610       7.61334889      -0.00012294       0.00017504       0.00021630
S        2.70334866       3.70642557       4.68233406      -0.00012871       0.00017470      -0.00021706
S        4.39556877       1.31326402       7.61334524       0.00013043      -0.00018332       0.00021014
