9
Lattice="4.415102931130359 -2.99981960133859e-08 2.5490608556786913 1.4717009639840386 4.162598816522869 2.549060829311413 3.457541842879175e-09 -2.9848339877283534e-08 5.098121705368754" Properties=species:S:1:pos:R:3:forces:R:3 energy=-36.65056228637695 free_energy=-36.65056228637695 stress="-0.0001514204341219738 -2.8025450404811636e-08 3.731065234546804e-08 -2.8025450404811636e-08 -0.00015149688988458365 1.721294573542309e-08 3.731065234546804e-08 1.721294573542309e-08 -0.00015153925050981343" pbc="T T T"
Se       1.47170124       1.04064925       2.54906069       0.00000914      -0.00000986      -0.00000588
Se       4.41510285       3.12194929       7.64718286      -0.00000269       0.00000425       0.00000731
Be      -0.00000001       0.00000011      -0.00000004       0.00000053       0.00000108       0.00000049
O        1.38164550       0.97697073       5.09812173      -0.00179619      -0.00127280       0.00000192
O        4.50515839       3.18562810       5.09812161       0.00179338       0.00127339      -0.00000358
O        3.72428020       0.97697085       3.74560080       0.00089812      -0.00126895      -0.00155753
O        2.16252367       3.18562799       6.45064243      -0.00090048       0.00127009       0.00155604
O        2.16252372       3.18562807       3.74560097      -0.00089601       0.00127560      -0.00155455
O        3.72428002       0.97697067       6.45064252       0.00089437      -0.00127244       0.00155509
