9
Lattice="5.320947660843153 -2.8707331000952423e-07 3.072050347220235 1.7736490819361423 5.016637015576381 3.072050118051823 1.2173912234591417e-07 -1.9459025884183649e-07 6.14410048358207" Properties=species:S:1:pos:R:3:forces:R:3 energy=-35.797325134277344 free_energy=-35.797325134277344 stress="-4.958700174029218e-06 -2.1051604903732368e-08 4.9168423998935396e-08 -2.1051604903732368e-08 -5.016133400204126e-06 -1.4471898346357648e-08 4.9168423998935396e-08 -1.4471898346357648e-08 -5.086456894787261e-06" pbc="T T T"
Se       1.77364837       1.25415976       3.07205010      -0.00000458       0.00000909       0.00000111
Se       5.32094847       3.76247798       9.21615209       0.00000628       0.00000534       0.00001361
Cr      -0.00000002       0.00000060       0.00000038       0.00000296      -0.00000342      -0.00000552
S        1.81598117       1.28409195       6.14409985       0.00315483       0.00222923      -0.00000237
S        5.27861596       3.73254443       6.14410039      -0.00315699      -0.00223720      -0.00000543
S        4.41295790       1.28409168       4.64473454      -0.00157930       0.00223653       0.00274248
S        2.68163903       3.73254400       7.64346563       0.00157500      -0.00223432      -0.00273573
S        2.68163942       3.73254438       4.64473556       0.00157830      -0.00223414       0.00273069
S        4.41295710       1.28409131       7.64346527      -0.00157648       0.00222891      -0.00273880
