9
Lattice="5.333497761178978 5.7226695076306596e-08 3.079296448748441 1.7778326414870689 5.028470226691801 3.0792964479281637 -3.97326473097565e-08 -2.9099809559488957e-08 6.158592966315892" Properties=species:S:1:pos:R:3:forces:R:3 energy=-33.865882873535156 free_energy=-33.865882873535156 stress="7.011146863078466e-06 -1.7431425192171446e-09 2.4348821625608252e-08 -1.7431425192171446e-09 7.068202194204787e-06 -3.507445711647961e-08 2.4348821625608252e-08 -3.507445711647961e-08 7.039093816274544e-06" pbc="T T T"
Se       1.77783300       1.25711706       3.07929642       0.00000039      -0.00000522      -0.00000033
Se       5.33349738       3.77135264       9.23788866      -0.00000131      -0.00000012      -0.00000724
Co      -0.00000026       0.00000001      -0.00000005       0.00000454       0.00000119      -0.00000029
S        1.76690812       1.24939257       6.15859281      -0.00028850      -0.00020440      -0.00000016
S        5.34442270       3.77907772       6.15859327       0.00028519       0.00020439       0.00000239
S        4.45004372       1.24939245       4.60948334       0.00014283      -0.00020073      -0.00024957
S        2.66128683       3.77907772       7.70770249      -0.00014292       0.00020456       0.00025313
S        2.66128639       3.77907818       4.60948419      -0.00014488       0.00020504      -0.00024913
S        4.45004352       1.24939273       7.70770236       0.00014487      -0.00020471       0.00025115
