9
Lattice="5.625801114757711 -1.688055902191594e-07 3.248058419891288 1.8752667852526987 5.304056794466048 3.248058582441555 2.773381639642702e-07 3.951903297701847e-07 6.496116359418679" Properties=species:S:1:pos:R:3:forces:R:3 energy=-22.58590316772461 free_energy=-22.58590316772461 stress="-0.00029033792088739574 -8.599073453297024e-09 -6.545043174099874e-09 -8.599073453297024e-09 -0.00029013544553890824 -1.196858079310914e-07 -6.545043174099874e-09 -1.196858079310914e-07 -0.00029006978729739785" pbc="T T T"
Se       1.87526883       1.32601349       3.24805716       0.00000645      -0.00000668      -0.00000849
Se       5.62579648       3.97804208       9.74417316      -0.00001888      -0.00000418      -0.00000990
Cd       0.00000030      -0.00000023       0.00000007      -0.00000222       0.00000181      -0.00000060
S        2.11244573       1.49372231       6.49611931      -0.00674766      -0.00479463       0.00001254
S        5.38862620       3.81033005       6.49611978       0.00677056       0.00476730       0.00001684
S        4.56957819       1.49372760       5.07748633       0.00337354      -0.00475848      -0.00587010
S        2.93149241       3.81033548       7.91474133      -0.00336519       0.00479832       0.00584742
S        2.93148841       3.81033158       5.07749342      -0.00338542       0.00477465      -0.00584359
S        4.56957613       1.49372576       7.91474282       0.00336903      -0.00477789       0.00585584
