9
Lattice="4.635368712498 1.998323374262843e-07 2.676231426534399 1.545123033646565 4.370266873984058 2.6762315285923117 3.9976147358490137e-07 4.0766895978117034e-07 5.352462160661664" Properties=species:S:1:pos:R:3:forces:R:3 energy=-43.677513122558594 free_energy=-43.677513122558594 stress="-0.00010869365360122174 -6.186279222220037e-08 -8.170817977770639e-07 -6.186279222220037e-08 -0.00010684970766305923 -1.0158456120734627e-07 -8.170817977770639e-07 -1.0158456120734627e-07 -0.00010906224633799866" pbc="T T T"
Se       1.54513135       1.09255977       2.67624253       0.00013977      -0.00003405       0.00023309
Se       4.63537309       3.27764325       8.02866421       0.00005450      -0.00096615      -0.00051357
Cr      -0.00000191       0.00000682       0.00000069       0.00005435      -0.00002240       0.00005094
O        1.56200740       1.10452395       5.35246110       0.00158286       0.00139588      -0.00003242
O        4.61847771       3.26576497       5.35247027      -0.00169170      -0.00112301       0.00014249
O        3.85435996       1.10452118       4.02897118      -0.00088829       0.00139123       0.00145793
O        2.32613032       3.26576331       6.67595393       0.00084692      -0.00105333      -0.00133967
O        2.32612438       3.26576161       4.02897675       0.00072622      -0.00110167       0.00142813
O        3.85436626       1.10452507       6.67595957      -0.00082642       0.00151211      -0.00142646
