9
Lattice="5.368722648659378 1.0702690271218965e-07 3.099633296251409 1.789574327999697 5.061680325879443 3.0996332774171766 -2.8369060822780905e-08 -4.3127090370724505e-08 6.199266641639519" Properties=species:S:1:pos:R:3:forces:R:3 energy=-28.011295318603516 free_energy=-28.011295318603516 stress="-0.00014350877609103918 -6.652602024814769e-08 -2.5030809425174994e-08 -6.652602024814769e-08 -0.0001434455916751176 1.3609736448927379e-08 -2.5030809425174994e-08 1.3609736448927379e-08 -0.000143508063047193" pbc="T T T"
Se       1.78957561       1.26541965       3.09963416       0.00000941      -0.00000218       0.00000416
Se       5.36872311       3.79626165       9.29889990       0.00000163       0.00000572      -0.00000244
Cu      -0.00000028      -0.00000039      -0.00000134       0.00000343       0.00000434       0.00001736
S        1.86422037       1.31820332       6.19926598      -0.00426906      -0.00302157      -0.00000430
S        5.29407560       3.74347747       6.19926633       0.00426197       0.00301886      -0.00000016
S        4.43661178       1.31820374       4.71409640       0.00212970      -0.00302345      -0.00369969
S        2.72168477       3.74347646       7.68443783      -0.00213265       0.00301573       0.00369206
S        2.72168480       3.74347665       4.71409614      -0.00213599       0.00302091      -0.00369972
S        4.43661201       1.31820304       7.68443750       0.00213185      -0.00301817       0.00369290
