9
Lattice="4.201290552255767 1.0407590885559532e-07 2.425616340444137 1.4004302594290623 3.9610151647621463 2.4256163799000445 -1.2538699492891939e-08 3.9457213925384156e-08 4.851232702605903" Properties=species:S:1:pos:R:3:forces:R:3 energy=-45.580360412597656 free_energy=-45.580360412597656 stress="-8.483415876980871e-05 -1.0356731650063011e-07 5.322591789536091e-08 -1.0356731650063011e-07 -8.537054964108393e-05 1.9199440259853873e-08 5.322591789536091e-08 1.9199440259853873e-08 -8.529231854481623e-05" pbc="T T T"
Se       1.40043102       0.99025342       2.42561584       0.00001248      -0.00000608      -0.00001222
Se       4.20128959       2.97076299       7.27684885      -0.00001655       0.00001979      -0.00000624
C       -0.00000363      -0.00000006      -0.00000264      -0.00006427      -0.00000103      -0.00004309
N        1.33230713       0.94208246       4.85123279       0.00068474       0.00046778       0.00000228
N        4.26941713       3.01893425       4.85123284      -0.00063479      -0.00044000      -0.00000078
N        3.53513758       0.94208212       3.57942623      -0.00033611       0.00046182       0.00057077
N        2.06658302       3.01893338       6.12303907       0.00032932      -0.00045854      -0.00056088
N        2.06658351       3.01893200       3.57942795       0.00034678      -0.00048125       0.00059164
N        3.53513822       0.94208059       6.12304073      -0.00032252       0.00043660      -0.00054145
