9
Lattice="4.4933025451920985 -1.7702669241082406e-07 2.5942089991357977 1.4977673306975838 4.236326280605444 2.5942090293843916 -2.9052844865804404e-07 -1.6838777190368074e-07 5.188418501481531" Properties=species:S:1:pos:R:3:forces:R:3 energy=-38.987247467041016 free_energy=-38.987247467041016 stress="0.0003384321753401309 -2.398499709954649e-08 2.711454953896464e-07 -2.398499709954649e-08 0.0003383480943739414 2.544458652664616e-07 2.711454953896464e-07 2.544458652664616e-07 0.0003383442817721516" pbc="T T T"
Se       1.49777022       1.05908226       2.59420932       0.00003596       0.00000471       0.00002046
Se       4.49330310       3.17724439       7.78263123       0.00002861       0.00000230       0.00005378
C        0.00000048      -0.00000050       0.00000114       0.00001125       0.00000791       0.00001068
O        1.29315346       0.91439832       5.18841800       0.00120509       0.00085938      -0.00000482
O        4.69791432       3.32192749       5.18841670      -0.00122368      -0.00086343      -0.00002044
O        3.84672424       0.91439815       3.71411221      -0.00062293       0.00086200       0.00103772
O        2.14434436       3.32192762       6.66272222       0.00059700      -0.00087142      -0.00106156
O        2.14434383       3.32192825       3.71411356       0.00059491      -0.00086153       0.00103712
O        3.84672438       0.91439779       6.66272138      -0.00062639       0.00085926      -0.00107288
