9
Lattice="4.746397142884405 -3.58459998171507e-07 2.7403333054648416 1.5821320959765102 4.474944944526417 2.740333213710561 -2.1810472532208294e-07 -2.665989269229678e-07 5.480666988698083" Properties=species:S:1:pos:R:3:forces:R:3 energy=-33.094146728515625 free_energy=-33.094146728515625 stress="3.159336483804509e-05 3.302649531633506e-07 6.064140620765102e-07 3.302649531633506e-07 3.773759090108797e-05 4.2080790763066034e-07 6.064140620765102e-07 4.2080790763066034e-07 3.270863453508355e-05" pbc="T T T"
Se       1.58211940       1.11884171       2.74031716      -0.00024250       0.00194125      -0.00030122
Se       4.74643080       3.35608149       8.22103563       0.00062513      -0.00232261       0.00065128
Cu      -0.00000083       0.00000039      -0.00000104      -0.00001164       0.00001784      -0.00000870
O        1.54830064       1.09487999       5.48067252       0.00216287       0.00272298       0.00011913
O        4.78021983       3.38007603       5.48064835      -0.00231314      -0.00252664      -0.00029661
O        3.97225374       1.09487777       4.08120855      -0.00096759       0.00265992       0.00199288
O        2.35626845       3.38007312       6.88011604       0.00082386      -0.00252628      -0.00217974
O        2.35628203       3.38008164       4.08121580       0.00108874      -0.00240046       0.00210875
O        3.97224206       1.09486487       6.88012088      -0.00116622       0.00243413      -0.00208473
