9
Lattice="4.455190210055193 -6.7533020897978964e-09 2.5722053503514903 1.4850634199842516 4.200393746720223 2.5722053105150287 -9.210729619966322e-09 -5.530246570672727e-08 5.144410716656423" Properties=species:S:1:pos:R:3:forces:R:3 energy=-49.051048278808594 free_energy=-49.051048278808594 stress="0.00015048818022478372 9.186922511617013e-08 -1.8304008975178476e-08 9.186922511617013e-08 0.0001504923711763695 4.097868711028241e-08 -1.8304008975178476e-08 4.097868711028241e-08 0.00015043125313241035" pbc="T T T"
Se       1.48506384       1.05010078       2.57220609       0.00000660       0.00003139       0.00000995
Se       4.45518945       3.15029560       7.71661425      -0.00001354       0.00000114      -0.00002217
Cr       0.00000009      -0.00000016      -0.00000008      -0.00000009      -0.00000165       0.00000173
N        1.50786074       1.06621826       5.14441048       0.00170851       0.00120395      -0.00000424
N        4.43239308       3.13417460       5.14441130      -0.00170106      -0.00121415       0.00000942
N        3.70125931       1.06621797       3.87805088      -0.00086197       0.00120246       0.00147545
N        2.23899443       3.13417460       6.41077100       0.00086281      -0.00121522      -0.00146770
N        2.23899330       3.13417418       3.87805073       0.00084791      -0.00122190       0.00147033
N        3.70126021       1.06621890       6.41077081      -0.00084895       0.00121456      -0.00147212
