9
Lattice="4.492981920389744 -1.3380342412555005e-08 2.5940242934298996 1.497660639846141 4.236024042333237 2.5940242720713926 1.781440465284773e-09 -2.489905616232972e-08 5.188048583774229" Properties=species:S:1:pos:R:3:forces:R:3 energy=-46.34457015991211 free_energy=-46.34457015991211 stress="0.0007781303720548749 -2.9062956485859104e-09 3.2909131419955884e-08 -2.9062956485859104e-09 0.000778115529101342 -2.7094664289961656e-08 3.2909131419955884e-08 -2.7094664289961656e-08 0.0007781276945024729" pbc="T T T"
Se       1.49766192       1.05900580       2.59402454       0.00001945      -0.00000509       0.00000387
Se       4.49298251       3.17701940       7.78207270       0.00000762       0.00002294      -0.00000236
Fe       0.00000010       0.00000011       0.00000001       0.00000069       0.00000024       0.00000032
N        1.49993492       1.06061380       5.18804851       0.00312543       0.00220439      -0.00000192
N        4.49070737       3.17541012       5.18804850      -0.00313041      -0.00220591       0.00000098
N        3.74301393       1.06061347       3.89300606      -0.00157376       0.00220159       0.00270689
N        2.24762793       3.17540990       6.48309122       0.00156243      -0.00221041      -0.00270805
N        2.24762765       3.17540991       3.89300601       0.00155941      -0.00221008       0.00270766
N        3.74301393       1.06061351       6.48309108      -0.00157073       0.00220266      -0.00270709
