9
Lattice="4.575748177353952 -8.321388588539516e-08 2.641809464811248 1.5252493245770724 4.314056698848005 2.6418094464851722 4.302911138592104e-08 7.981378965785206e-09 5.283618855093918" Properties=species:S:1:pos:R:3:forces:R:3 energy=-38.71620178222656 free_energy=-38.71620178222656 stress="-0.0002367965062148869 -1.0289296170640228e-07 -3.7981205736059565e-08 -1.0289296170640228e-07 -0.00023683738254476339 7.350160036168063e-09 -3.7981205736059565e-08 7.350160036168063e-09 -0.00023643184977117926" pbc="T T T"
Se       1.52524872       1.07851404       2.64180974      -0.00001318      -0.00000890       0.00000264
Se       4.57574783       3.23554328       7.92542778      -0.00000140       0.00001671      -0.00000526
Fe       0.00000017      -0.00000041       0.00000098      -0.00000301       0.00000946      -0.00003129
O        1.53077351       1.08241927       5.28361904       0.00614160       0.00433835      -0.00000167
O        4.57022423       3.23163685       5.28361894      -0.00613803      -0.00434440       0.00000267
O        3.81036144       1.08241971       3.96749848      -0.00306758       0.00433749       0.00531685
O        2.29063663       3.23163658       6.59973898       0.00306535      -0.00432968      -0.00530380
O        2.29063623       3.23163697       3.96749844       0.00307065      -0.00434354       0.00532115
O        3.81036141       1.08242017       6.59973877      -0.00305393       0.00432441      -0.00530142
