9
Lattice="5.494304449844399 4.992848044263342e-08 3.1721378331151016 1.8314347473429002 5.18007995047673 3.1721380346304557 -1.3534141547837106e-07 1.511040552825532e-07 6.344275900648377" Properties=species:S:1:pos:R:3:forces:R:3 energy=-28.207778930664062 free_energy=-28.207778930664062 stress="-0.00017854188627097756 -8.695076303411042e-08 2.744791238740163e-08 -8.695076303411042e-08 -0.00017854553880169988 3.084151600774021e-08 2.744791238740163e-08 3.084151600774021e-08 -0.0001783861662261188" pbc="T T T"
Se       1.83143474       1.29502001       3.17213577       0.00000169      -0.00000261      -0.00001204
Se       5.49430364       3.88505895       9.51641421      -0.00000531      -0.00000597       0.00000108
Ge      -0.00000031       0.00000002       0.00000110       0.00000284       0.00000551      -0.00001260
S        1.91510242       1.35418165       6.34427585       0.00563702       0.00398816       0.00000260
S        5.41063763       3.82589763       6.34427479      -0.00564188      -0.00399648      -0.00000680
S        4.53675337       1.35418247       4.83066543      -0.00281730       0.00399214       0.00488344
S        2.78898734       3.82589766       7.85788617       0.00282037      -0.00398245      -0.00487524
S        2.78898606       3.82589907       4.83066614       0.00282474      -0.00398421       0.00489166
S        4.53675130       1.35418330       7.85788729      -0.00282209       0.00398576      -0.00487202
