9
Lattice="4.540781808784128 1.7662518034929018e-08 2.6216215928679523 1.5135939585844354 4.281090120428181 2.6216215830460485 -7.197804227306663e-09 -1.7118946035535747e-08 5.243243198202894" Properties=species:S:1:pos:R:3:forces:R:3 energy=-40.971492767333984 free_energy=-40.971492767333984 stress="-8.549594349460676e-05 2.3492459533258625e-08 1.1355144380331694e-07 2.3492459533258625e-08 -8.550741767976433e-05 5.0640778681554366e-08 1.1355144380331694e-07 5.0640778681554366e-08 -8.534780499758199e-05" pbc="T T T"
Se       1.51359439       1.07027287       2.62162180       0.00000900       0.00000806       0.00000521
Se       4.54078096       3.21081759       7.86486408      -0.00001390      -0.00000227      -0.00001309
Ge       0.00000008       0.00000032       0.00000018      -0.00000049      -0.00000504      -0.00000394
N        1.59940948       1.13095292       5.24324345      -0.00522017      -0.00369489      -0.00000080
N        4.45496671       3.15013702       5.24324375       0.00522333       0.00369298       0.00000627
N        3.74107673       1.13095297       4.00675025       0.00260630      -0.00369221      -0.00452632
N        2.31329922       3.15013688       6.47973597      -0.00260565       0.00369400       0.00453073
N        2.31329845       3.15013649       4.00675022      -0.00261092       0.00368798      -0.00452638
N        3.74107707       1.13095343       6.47973590       0.00261268      -0.00368857       0.00452739
