9
Lattice="4.64186663726161 -1.195262881572208e-07 2.6799829938602495 1.5472887080358135 4.376393684919427 2.6799830949443915 -2.184248220717781e-07 -3.064741880151707e-08 5.359966366043417" Properties=species:S:1:pos:R:3:forces:R:3 energy=-38.60886001586914 free_energy=-38.60886001586914 stress="0.00017605212633498013 -8.56199591225959e-08 -2.4598431735967097e-08 -8.56199591225959e-08 0.00017605054017622024 8.67793445991083e-08 -2.4598431735967097e-08 8.67793445991083e-08 0.0001762342726578936" pbc="T T T"
Se       1.54728961       1.09409823       2.67998393       0.00000858      -0.00000391       0.00000459
Se       4.64186635       3.28229562       8.03994579      -0.00000205       0.00000644      -0.00003481
Ge      -0.00000008      -0.00000013      -0.00000007      -0.00000476      -0.00000268      -0.00000149
O        1.53220931       1.08343476       5.35996611       0.00033545       0.00023234      -0.00000062
O        4.65694573       3.29295854       5.35996811      -0.00032854      -0.00023013       0.00001596
O        3.87576077       1.08343486       4.00691549      -0.00016963       0.00022542       0.00028527
O        2.31339415       3.29295836       6.71301714       0.00016665      -0.00022882      -0.00027657
O        2.31339274       3.29295787       4.00691584       0.00015748      -0.00023365       0.00028610
O        3.87576180       1.08343594       6.71301727      -0.00016177       0.00023562      -0.00027919
