9
Lattice="4.501423946891235 3.706782714943476e-08 2.5988983291175676 1.5004746935957258 4.243983232421249 2.598898312344223 -2.478299320416467e-08 -3.8067287322888696e-08 5.1977967011605415" Properties=species:S:1:pos:R:3:forces:R:3 energy=-49.960411071777344 free_energy=-49.960411071777344 stress="3.878137795254588e-05 6.494497029052582e-08 5.848653117368485e-08 6.494497029052582e-08 3.873368405038491e-05 6.497250382153652e-08 5.848653117368485e-08 6.497250382153652e-08 3.883249155478552e-05" pbc="T T T"
Se       1.50047466       1.06099573       2.59889847      -0.00000063       0.00000065       0.00000056
Se       4.50142394       3.18298741       7.79669522       0.00000028       0.00000104       0.00000160
Hf      -0.00000007       0.00000006      -0.00000002      -0.00000025      -0.00000490      -0.00000304
N        1.72057479       1.21662994       5.19779670      -0.00167879      -0.00118768       0.00000119
N        4.28132384       3.02735334       5.19779637       0.00168017       0.00119054      -0.00000371
N        3.64113694       1.21662977       4.08895958       0.00084089      -0.00118834      -0.00145316
N        2.36076199       3.02735309       6.30663361      -0.00084046       0.00118548       0.00145209
N        2.36076186       3.02735360       4.08895972      -0.00083919       0.00118938      -0.00145096
N        3.64113658       1.21663000       6.30663372       0.00083800      -0.00118607       0.00145486
