9
Lattice="5.617136026365984 2.9798643184856783e-07 3.243055464683189 1.8723789218669842 5.295886489666563 3.243055524495531 1.0372874781017255e-07 1.4660213227370513e-07 6.486110749702918" Properties=species:S:1:pos:R:3:forces:R:3 energy=-25.28551483154297 free_energy=-25.28551483154297 stress="6.142517668195069e-05 -8.991669631086552e-09 1.9701307252262268e-08 -8.991669631086552e-09 6.141694029793143e-05 -1.589232745402569e-08 1.9701307252262268e-08 -1.589232745402569e-08 6.136488082120195e-05" pbc="T T T"
Se       1.87237858       1.32397158       3.24305539       0.00000060      -0.00000067       0.00000062
Se       5.61713687       3.97191576       9.72916583       0.00000519       0.00000348      -0.00000106
In      -0.00000014      -0.00000075      -0.00000017       0.00000039       0.00000648       0.00000273
S        2.08855159       1.47682915       6.48611197       0.00277444       0.00196286       0.00000787
S        5.40096399       3.81905840       6.48611233      -0.00278198      -0.00196544       0.00000598
S        4.57286098       1.47682935       5.05179356      -0.00138466       0.00196875       0.00240242
S        2.91665487       3.81906031       7.92042801       0.00139600      -0.00196046      -0.00241153
S        2.91665265       3.81905708       5.05179305       0.00137985      -0.00197153       0.00240433
S        4.57286089       1.47682687       7.92042689      -0.00138972       0.00195658      -0.00241145
