9
Lattice="4.367516836653841 -8.089638483880929e-08 2.521586958042417 1.4558388703859881 4.117734033433618 2.5215869561292794 -1.0730218122509097e-08 -9.930521375063412e-09 5.043173934670112" Properties=species:S:1:pos:R:3:forces:R:3 energy=-47.61021041870117 free_energy=-47.61021041870117 stress="-4.18033596361056e-05 2.3069073051829037e-07 1.1261752774771594e-07 2.3069073051829037e-07 -4.0443006582790986e-05 8.21179568788466e-08 1.1261752774771594e-07 8.21179568788466e-08 -4.121654274058528e-05" pbc="T T T"
Se       1.45583869       1.02943442       2.52158692      -0.00000148       0.00000600       0.00000066
Se       4.36751703       3.08830019       7.56476111       0.00000021      -0.00000019       0.00000276
Ir       0.00000004      -0.00000014      -0.00000018       0.00000203      -0.00000090       0.00000035
N        1.69825713       1.20085277       5.04317469       0.00008703       0.00012860       0.00001335
N        4.12509851       2.91688090       5.04317320      -0.00008829      -0.00013204      -0.00001314
N        3.51838965       1.20085209       3.99232165      -0.00002182       0.00011702       0.00009543
N        2.30496640       2.91688185       6.09402585       0.00002614      -0.00011852      -0.00009998
N        2.30496698       2.91688230       3.99232190       0.00003758      -0.00010720       0.00009830
N        3.51838838       1.20085141       6.09402629      -0.00004139       0.00010724      -0.00009770
