9
Lattice="5.578355581222171 6.526028089163083e-09 3.220664883275871 1.8594518837931564 5.259323868520937 3.2206648534275324 1.1878078319980945e-08 -2.8157571992911726e-08 6.441329745978311" Properties=species:S:1:pos:R:3:forces:R:3 energy=-25.47030258178711 free_energy=-25.47030258178711 stress="-6.0204274632269517e-05 -2.8203258395365083e-08 7.552047520675842e-08 -2.8203258395365083e-08 -6.0272639530012384e-05 5.329113150764897e-08 7.552047520675842e-08 5.329113150764897e-08 -6.022159868734889e-05" pbc="T T T"
Se       1.85945194       1.31483143       3.22066520       0.00000031       0.00000267       0.00000220
Se       5.57835545       3.94449484       9.66199548       0.00000038       0.00000681       0.00000603
Mg       0.00000018      -0.00000038       0.00000018      -0.00000203      -0.00000219      -0.00000337
S        2.04348870       1.44496400       6.44132912      -0.00087031      -0.00061757      -0.00000505
S        5.39431840       3.81435897       6.44132886       0.00087415       0.00061688      -0.00000407
S        4.55661113       1.44496350       4.99037793       0.00043461      -0.00062322      -0.00075417
S        2.88119627       3.81435871       7.89228160      -0.00043919       0.00061535       0.00075741
S        2.88119665       3.81435938       4.99037754      -0.00043319       0.00061744      -0.00075548
S        4.55661116       1.44496492       7.89228200       0.00043523      -0.00061610       0.00075640
