9
Lattice="4.6087805574261065 1.1686467488249361e-07 2.6608805212167947 1.5362603191246267 4.345200017565013 2.6608804811460423 1.2053282998688245e-08 -4.0553491242798706e-08 5.321761021556691" Properties=species:S:1:pos:R:3:forces:R:3 energy=-55.937522888183594 free_energy=-55.937522888183594 stress="-1.5708895944044343e-06 2.191602561651962e-06 -1.673981699923388e-07 2.191602561651962e-06 -2.43310205405578e-06 3.428011439154943e-07 -1.673981699923388e-07 3.428011439154943e-07 -2.8958838811377063e-06" pbc="T T T"
Se       1.53625975       1.08629953       2.66088041      -0.00000036      -0.00000960       0.00000053
Se       4.60878086       3.25890059       7.98264153       0.00000673       0.00001176       0.00000456
Mn       0.00000009      -0.00000002      -0.00000009      -0.00000914       0.00004870       0.00000591
O        1.55884981       1.10227286       5.32176109       0.00094461       0.00068748      -0.00000187
O        4.58619136       3.24292690       5.32176106      -0.00097209      -0.00065929      -0.00000072
O        3.82935626       1.10227252       4.01088368      -0.00052005       0.00073087       0.00084925
O        2.31568462       3.24292761       6.63263893       0.00054246      -0.00076872      -0.00093758
O        2.31568455       3.24292780       4.01088281       0.00055587      -0.00079721       0.00097525
O        3.82935633       1.10227256       6.63263873      -0.00054798       0.00075597      -0.00089598
