9
Lattice="5.473253319516923 -1.1750589794631247e-07 3.159984359431051 1.8244177350569855 5.160232505572455 3.1599842335624757 9.863187600378864e-08 -8.441363396326524e-08 6.31996854802669" Properties=species:S:1:pos:R:3:forces:R:3 energy=-36.20673751831055 free_energy=-36.20673751831055 stress="2.5737363102962263e-05 -1.3302688728344947e-07 -1.807368121831132e-08 -1.3302688728344947e-07 2.5876208383124322e-05 -2.8935508211702654e-08 -1.807368121831132e-08 -2.8935508211702654e-08 2.5916562663041987e-05" pbc="T T T"
Se       1.82441761       1.29005878       3.15998467      -0.00000165       0.00000268       0.00000132
Se       5.47325304       3.87017339       9.47995228      -0.00000015      -0.00000208      -0.00000405
Mn      -0.00000028      -0.00000027       0.00000007       0.00001053       0.00000571      -0.00000558
S        1.81007151       1.27991364       6.31996883      -0.00206438      -0.00145879      -0.00000054
S        5.48760012       3.88031917       6.31996914       0.00205287       0.00145084      -0.00000003
S        4.56821747       1.27991348       4.72755224       0.00103256      -0.00145867      -0.00178951
S        2.72945388       3.88031817       7.91238456      -0.00103426       0.00146395       0.00179419
S        2.72945340       3.88031850       4.72755269      -0.00103404       0.00146019      -0.00179082
S        4.56821770       1.27991436       7.91238403       0.00103852      -0.00146377       0.00179467
