9
Lattice="4.503439572109533 -5.671051597577194e-09 2.6000621127020502 1.5011465310575975 4.2458836326069775 2.6000620912803725 1.4260594504353519e-08 -1.6152329368175656e-08 5.200124200704021" Properties=species:S:1:pos:R:3:forces:R:3 energy=-49.69171142578125 free_energy=-49.69171142578125 stress="-0.0001021647040033713 9.007355572521192e-08 4.178506429752815e-09 9.007355572521192e-08 -0.00010223434946965426 -6.718057221632989e-09 4.178506429752815e-09 -6.718057221632989e-09 -0.00010226295853499323" pbc="T T T"
Se       1.50114614       1.06147061       2.60006245      -0.00000618      -0.00000424       0.00000367
Se       4.50344000       3.18441291       7.80018510       0.00000328       0.00000507      -0.00001473
Mn      -0.00000020       0.00000043      -0.00000029       0.00000110      -0.00000373       0.00000157
N        1.47517441       1.04310589       5.20012405      -0.00040010      -0.00028512      -0.00000131
N        4.52941175       3.20277761       5.20012483       0.00040293       0.00028458       0.00000544
N        3.76585235       1.04310553       3.87760087       0.00019793      -0.00028515      -0.00034145
N        2.23873401       3.20277793       6.52264790      -0.00019710       0.00028595       0.00034764
N        2.23873332       3.20277776       3.87760092      -0.00020313       0.00028342      -0.00034252
N        3.76585270       1.04310577       6.52264789       0.00020130      -0.00028071       0.00034156
