9
Lattice="4.67202961774961 7.374369223569606e-08 2.6973976824618817 1.557343320207774 4.404831729455262 2.6973976049265693 1.959504094352162e-07 4.3596913008650706e-08 5.394795025527665" Properties=species:S:1:pos:R:3:forces:R:3 energy=-33.768943786621094 free_energy=-33.768943786621094 stress="4.894468293059617e-05 -4.28623252446414e-08 -2.426816365641571e-07 -4.28623252446414e-08 4.888096373178996e-05 -1.5051786306230497e-07 -2.426816365641571e-07 -1.5051786306230497e-07 4.86654753331095e-05" pbc="T T T"
Se       1.55734278       1.10120958       2.69739831      -0.00001148       0.00002513       0.00000788
Se       4.67203269       3.30362725       8.09220005       0.00004378       0.00005011       0.00011310
Mg      -0.00000004       0.00000002       0.00000005       0.00000361       0.00000132       0.00000606
O        1.64993266       1.16667823       5.39479523      -0.00598499      -0.00423914      -0.00000024
O        4.57944090       3.23815276       5.39479150       0.00599679       0.00422314      -0.00006039
O        3.84706392       1.16667871       4.12628070       0.00299725      -0.00422964      -0.00518459
O        2.38230722       3.23815323       6.66330837      -0.00303794       0.00422972       0.00516430
O        2.38230957       3.23815279       4.12628036      -0.00298996       0.00422516      -0.00519586
O        3.84706287       1.16667481       6.66330669       0.00298294      -0.00428566       0.00514981
