9
Lattice="4.509708292846423 -6.78121208689339e-08 2.603681438574536 1.5032360854195146 4.251793652882615 2.6036813489618207 5.088469862311274e-08 -7.377179471838769e-08 5.207362789014189" Properties=species:S:1:pos:R:3:forces:R:3 energy=-50.77495574951172 free_energy=-50.77495574951172 stress="-7.267388718901202e-05 4.530302177840895e-08 -2.413812794088699e-08 4.530302177840895e-08 -7.277427357621491e-05 -6.247070638565333e-10 -2.413812794088699e-08 -6.247070638565333e-10 -7.289896166184917e-05" pbc="T T T"
Se       1.50323539       1.06294698       2.60368122      -0.00000952      -0.00001847       0.00000032
Se       4.50970775       3.18884604       7.81104408      -0.00000796       0.00001517       0.00000163
Mo      -0.00000005      -0.00000008       0.00000006      -0.00000008      -0.00000057       0.00000192
N        1.61774913       1.14392033       5.20736289       0.00124919       0.00087288       0.00000021
N        4.39519569       3.10787317       5.20736294      -0.00124592      -0.00087196       0.00000229
N        3.70083408       1.14392070       4.00469294      -0.00062004       0.00087589       0.00108212
N        2.31211029       3.10787371       6.41003268       0.00062490      -0.00087282      -0.00108409
N        2.31211097       3.10787306       4.00469270       0.00062928      -0.00087404       0.00108063
N        3.70083452       1.14392009       6.41003285      -0.00062013       0.00087434      -0.00108427
