9
Lattice="4.488611407660351 1.6254987238189977e-08 2.591500939437362 1.4962038294395241 4.231903158552432 2.591500919413606 3.685801152856345e-08 1.5385458520305586e-09 5.183001815034765" Properties=species:S:1:pos:R:3:forces:R:3 energy=-42.55671691894531 free_energy=-42.55671691894531 stress="-3.1327140277426224e-06 -3.931427627890116e-09 -3.578676199822439e-08 -3.931427627890116e-09 -3.1602153285348322e-06 3.6525495517025774e-08 -3.578676199822439e-08 3.6525495517025774e-08 -3.212912133676582e-06" pbc="T T T"
Se       1.49620507       1.05797460       2.59150138       0.00001679      -0.00001745       0.00000955
Se       4.48861104       3.17392615       7.77450275      -0.00000323      -0.00001486       0.00000033
Ni      -0.00000001       0.00000013       0.00000002       0.00000167      -0.00000144      -0.00000522
N        1.48724238       1.05163956       5.18300162      -0.00046651      -0.00032302      -0.00000324
N        4.49757235       3.18026452       5.18300176       0.00045876       0.00033528      -0.00000044
N        3.74498946       1.05163956       3.87949037       0.00022399      -0.00032350      -0.00040722
N        2.23982546       3.18026434       6.48651287      -0.00023065       0.00033661       0.00040381
N        2.23982536       3.18026417       3.87949070      -0.00023029       0.00033017      -0.00040233
N        3.74498993       1.05163960       6.48651331       0.00022955      -0.00032179       0.00040500
