9
Lattice="4.489739959196579 -1.11654855515578e-07 2.5921525641107075 1.4965799111408449 4.232967276047857 2.592152512129803 -5.277979204566587e-08 -1.0098428520625574e-07 5.184305219638698" Properties=species:S:1:pos:R:3:forces:R:3 energy=-49.92577362060547 free_energy=-49.92577362060547 stress="0.00017023118562065065 5.7182493407026413e-08 5.689968674005286e-08 5.7182493407026413e-08 0.00017032481264322996 7.178589811474012e-08 5.689968674005286e-08 7.178589811474012e-08 0.00017042543913703412" pbc="T T T"
Se       1.49658049       1.05824182       2.59215277       0.00000418       0.00000245       0.00000038
Se       4.48973989       3.17472532       7.77645736      -0.00000045      -0.00000059      -0.00000308
Nb       0.00000010       0.00000003      -0.00000004       0.00000293       0.00000063       0.00000255
N        1.67059741       1.18129092       5.18430501       0.00114378       0.00080991      -0.00000068
N        4.31572229       3.05167610       5.18430503      -0.00114372      -0.00081074       0.00000088
N        3.65444090       1.18129080       4.03893231      -0.00057589       0.00081018       0.00098830
N        2.33187870       3.05167652       6.32967823       0.00057267      -0.00080833      -0.00098836
N        2.33187871       3.05167632       4.03893222       0.00057136      -0.00081185       0.00098878
N        3.65444086       1.18129035       6.32967830      -0.00057496       0.00080812      -0.00098884
