9
Lattice="5.44447236131307 1.421885728533997e-07 3.143367697381933 1.8148242245859636 5.133097993551212 3.1433677491847196 -1.489462394288552e-07 -4.187575778271134e-08 6.2867356527463025" Properties=species:S:1:pos:R:3:forces:R:3 energy=-31.495616912841797 free_energy=-31.495616912841797 stress="7.451291457982734e-05 -3.9920756478295516e-08 8.037924992265744e-09 -3.9920756478295516e-08 7.445111987181008e-05 3.1856075111136306e-08 8.037924992265744e-09 3.1856075111136306e-08 7.43834680179134e-05" pbc="T T T"
Se       1.81482424       1.28327485       3.14336845       0.00000026       0.00000024       0.00000701
Se       5.44447209       3.84982294       9.43010233      -0.00000341      -0.00000192      -0.00000346
Ni      -0.00000043      -0.00000042       0.00000003       0.00001343       0.00000959       0.00000634
S        1.78734170       1.26384253       6.28673419      -0.00366902      -0.00259161      -0.00000206
S        5.47195451       3.86925638       6.28673590       0.00365683       0.00258476       0.00000214
S        4.55080068       1.26384179       4.69125154       0.00183283      -0.00259498      -0.00317442
S        2.70849646       3.86925646       7.88222050      -0.00182703       0.00258890       0.00317082
S        2.70849576       3.86925621       4.69125121      -0.00183202       0.00259197      -0.00317439
S        4.55080082       1.26384162       7.88222028       0.00182818      -0.00258726       0.00316823
