9
Lattice="4.639401641578021 -5.5745514172991126e-08 2.678559717849973 1.546467201581378 4.374069554174187 2.678559648083992 5.926590758216114e-08 -4.353821872981063e-08 5.357119333048388" Properties=species:S:1:pos:R:3:forces:R:3 energy=-48.078521728515625 free_energy=-48.078521728515625 stress="0.0001492770970799029 -2.8446946132021367e-08 -1.0044907128303748e-08 -2.8446946132021367e-08 0.00014927444863133132 9.31460331088374e-09 -1.0044907128303748e-08 9.31460331088374e-09 0.00014932165504433215" pbc="T T T"
Se       1.54646662       1.09351753       2.67855996      -0.00000685       0.00000348       0.00000518
Se       4.63940096       3.28055216       8.03567956      -0.00000729      -0.00000015       0.00000890
Nb      -0.00000003       0.00000012       0.00000022       0.00000137      -0.00000113       0.00000325
O        1.59165119       1.12546662       5.35711904       0.00032794       0.00022763      -0.00000272
O        4.59421814       3.24860248       5.35711927      -0.00032514      -0.00023127      -0.00000177
O        3.84357673       1.12546742       4.05696964      -0.00015774       0.00023061       0.00028020
O        2.34229256       3.24860238       6.65726893       0.00016478      -0.00023133      -0.00028425
O        2.34229302       3.24860223       4.05696926       0.00016478      -0.00022960       0.00027829
O        3.84357669       1.12546669       6.65726879      -0.00016159       0.00023168      -0.00028801
