9
Lattice="4.878455679451647 -2.6204175883511525e-06 2.816575533086567 1.6261503004586775 4.599446104261186 2.816574012585128 -2.8044764745796307e-07 -2.0605326531595787e-06 5.6331515519222215" Properties=species:S:1:pos:R:3:forces:R:3 energy=-36.08481216430664 free_energy=-36.08481216430664 stress="-0.00010604207636788487 -1.7527585214338615e-06 2.236807404187857e-06 -1.7527585214338615e-06 -0.00010342007590224966 -1.6157604250111035e-06 2.236807404187857e-06 -1.6157604250111035e-06 -0.00010359274165239185" pbc="T T T"
Se       1.62614998       1.14986694       2.81658781      -0.00001732       0.00004940       0.00014197
Se       4.87845264       3.44957691       8.44974876      -0.00000860      -0.00002555       0.00021483
Pd       0.00000177      -0.00000431       0.00000319      -0.00023435       0.00073458      -0.00148830
O        1.47708247       1.04445226       5.63314668       0.00459862       0.00328159      -0.00010002
O        5.02752522       3.55498882       5.63314422      -0.00481629      -0.00341320      -0.00009987
O        4.13991555       1.04445213       4.09575921      -0.00245726       0.00350416       0.00417686
O        2.36469270       3.55498770       7.17053022       0.00219953      -0.00311518      -0.00393105
O        2.36469313       3.55498975       4.09575734       0.00261188      -0.00368655       0.00444245
O        4.13990998       1.04445185       7.17052484      -0.00187469       0.00267088      -0.00335622
