9
Lattice="4.670056574540064 -2.4177593525117936e-08 2.696258128022266 1.556685526558039 4.402971398875475 2.696258085576255 -1.7067057895497785e-08 -6.405374023148817e-08 5.392516285605489" Properties=species:S:1:pos:R:3:forces:R:3 energy=-38.392723083496094 free_energy=-38.392723083496094 stress="9.423358278581873e-05 9.667081002362465e-08 8.934509132529911e-09 9.667081002362465e-08 9.411747305421159e-05 -4.073995896192173e-08 8.934509132529911e-09 -4.073995896192173e-08 9.411042992724106e-05" pbc="T T T"
Se       1.55668533       1.10074164       2.69625790       0.00000210      -0.00001165      -0.00000129
Se       4.67005761       3.30222951       8.08877417       0.00001352       0.00000919      -0.00000885
Pt      -0.00000002      -0.00000011       0.00000007       0.00001124       0.00000278       0.00002201
O        1.54618963       1.09332133       5.39251562      -0.00072595      -0.00051189       0.00000185
O        4.68055231       3.30965008       5.39251675       0.00071260       0.00050626       0.00000495
O        3.89696119       1.09332100       4.03529755       0.00035873      -0.00051407      -0.00061658
O        2.32978032       3.30965043       6.74973500      -0.00035753       0.00050352       0.00061108
O        2.32978052       3.30965032       4.03529780      -0.00036464       0.00051933      -0.00062100
O        3.89696142       1.09332100       6.74973514       0.00034989      -0.00050361       0.00060786
