9
Lattice="4.378981150232475 -9.984113492771639e-08 2.5282061498377453 1.4596603059921955 4.128543171527285 2.528206120890825 4.291315477414969e-08 -5.108387733707363e-09 5.056412225347718" Properties=species:S:1:pos:R:3:forces:R:3 energy=-41.44633865356445 free_energy=-41.44633865356445 stress="8.967745657173509e-07 -2.3458774922602288e-09 -1.3733902903823036e-07 -2.3458774922602288e-09 7.824505701137241e-07 -1.8689320313569624e-07 -1.3733902903823036e-07 -1.8689320313569624e-07 6.697693493151746e-07" pbc="T T T"
Se       1.45966010       1.03213796       2.52820990       0.00000117       0.00003331       0.00005360
Se       4.37898043       3.09640466       7.58461509      -0.00000909      -0.00003647      -0.00004903
Pd      -0.00000018      -0.00000006      -0.00000003       0.00000160      -0.00000325       0.00000124
N        1.64492080       1.16313725       5.05640767      -0.00019330      -0.00009612      -0.00006963
N        4.19372045       2.96540602       5.05641673       0.00019131       0.00009687       0.00006808
N        3.55651802       1.16313609       3.95274877       0.00005316      -0.00011615      -0.00017365
N        2.28212373       2.96540765       6.16007578      -0.00005159       0.00012073       0.00017461
N        2.28211905       2.96540344       3.95274879      -0.00012970       0.00006290      -0.00017610
N        3.55652355       1.16313921       6.16007528       0.00013629      -0.00006187       0.00017086
