9
Lattice="5.490167417694155 5.956737686605107e-09 3.169749631075015 1.830055837437814 5.176179530527948 3.1697495861738343 7.256671226190613e-08 -3.6800823435798736e-09 6.339499136460831" Properties=species:S:1:pos:R:3:forces:R:3 energy=-30.224288940429688 free_energy=-30.224288940429688 stress="-0.00023688287183176726 -3.6647286094648734e-08 -5.3539817912451326e-08 -3.6647286094648734e-08 -0.0002368721179664135 -5.601767383289769e-10 -5.3539817912451326e-08 -5.601767383289769e-10 -0.00023696146672591567" pbc="T T T"
Se       1.83005548       1.29404444       3.16974957      -0.00000328      -0.00000298      -0.00000119
Se       5.49016783       3.88213537       9.50924947      -0.00000177       0.00000489       0.00000714
Pd      -0.00000019       0.00000006      -0.00000008       0.00000117      -0.00000043       0.00000108
S        1.92930367       1.36422350       6.33949934       0.00006956       0.00004685       0.00000087
S        5.39091998       3.81195568       6.33949870      -0.00006741      -0.00004905      -0.00000354
S        4.52551554       1.36422376       4.84057601      -0.00003251       0.00004601       0.00005776
S        2.79470757       3.81195568       7.83842234       0.00003278      -0.00004768      -0.00006038
S        2.79470782       3.81195599       4.84057570       0.00003567      -0.00004494       0.00005710
S        4.52551565       1.36422369       7.83842237      -0.00003418       0.00004697      -0.00005835
