9
Lattice="5.4507417906027955 4.0764849402134897e-08 3.1469871904799938 1.8169139390706264 5.139008866532107 3.1469872416859324 -3.2214674045584715e-08 3.9935011868428086e-08 6.293974436757445" Properties=species:S:1:pos:R:3:forces:R:3 energy=-32.595481872558594 free_energy=-32.595481872558594 stress="-0.00020803649385925382 -5.4211565014838925e-08 -4.0338971274422875e-08 -5.4211565014838925e-08 -0.00020808153203688562 7.609450136669693e-08 -4.0338971274422875e-08 7.609450136669693e-08 -0.00020802915969397873" pbc="T T T"
Se       1.81691392       1.28475277       3.14698769       0.00000133       0.00000288       0.00000152
Se       5.45074173       3.85425681       9.44096153      -0.00000231      -0.00000198       0.00000041
Pt      -0.00000011      -0.00000020       0.00000045       0.00000097       0.00000396      -0.00000854
S        1.88222687       1.33093528       6.29397437      -0.00168800      -0.00119478      -0.00000017
S        5.38542918       3.80807341       6.29397506       0.00168806       0.00119284       0.00000050
S        4.50962796       1.33093559       4.77704314       0.00084224      -0.00119391      -0.00146410
S        2.75802750       3.80807334       7.81090498      -0.00084634       0.00119701       0.00146741
S        2.75802748       3.80807349       4.77704342      -0.00084123       0.00119197      -0.00146055
S        4.50962822       1.33093537       7.81090486       0.00084542      -0.00119850       0.00146368
