9
Lattice="4.51915742112938 4.489906152944957e-09 2.609136483180783 1.5063857901043303 4.260702476156845 2.6091365198516616 -9.837733495273824e-08 -2.4650828659424366e-08 5.218273136756129" Properties=species:S:1:pos:R:3:forces:R:3 energy=-47.32366180419922 free_energy=-47.32366180419922 stress="-0.00017453024338465184 3.491809508204824e-08 5.1644516219084835e-08 3.491809508204824e-08 -0.00017469341401010752 3.395860304067355e-08 5.1644516219084835e-08 3.395860304067355e-08 -0.00017434881010558456" pbc="T T T"
Se       1.50638751       1.06517738       2.60913722       0.00002391       0.00002768       0.00001085
Se       4.51915611       3.19552528       7.82740845      -0.00002173      -0.00002477      -0.00001828
Ru      -0.00000022      -0.00000056       0.00000011      -0.00000172      -0.00000428       0.00000243
N        1.56612897       1.10742101       5.21827295      -0.00017411      -0.00011742      -0.00000489
N        4.45941434       3.15328219       5.21827372       0.00017595       0.00012180       0.00000843
N        3.73609203       1.10742104       3.96544353       0.00007573      -0.00011498      -0.00016153
N        2.28945103       3.15328079       6.47110329      -0.00007671       0.00011244       0.00016534
N        2.28945011       3.15328090       3.96544300      -0.00008801       0.00010583      -0.00016397
N        3.73609258       1.10742176       6.47110233       0.00008696      -0.00010628       0.00016153
