9
Lattice="4.572542577135188 2.702131757794772e-08 2.6399586762136638 1.5241809100835342 4.311034320642286 2.6399586319381085 1.6457880249275257e-08 -4.2588824681981274e-08 5.2799173239214445" Properties=species:S:1:pos:R:3:forces:R:3 energy=-52.93156433105469 free_energy=-52.93156433105469 stress="-0.00047922602971084416 7.979798155588469e-09 -2.7061590301968863e-08 7.979798155588469e-09 -0.0004790113598573953 -4.169648626373146e-09 -2.7061590301968863e-08 -4.169648626373146e-09 -0.00047905067913234234" pbc="T T T"
Se       1.52418157       1.07775897       2.63995837       0.00000969       0.00000711      -0.00000380
Se       4.57254194       3.23327432       7.91987602      -0.00001059      -0.00002282       0.00000417
Re      -0.00000002      -0.00000019       0.00000054      -0.00000185       0.00000002      -0.00000111
N        1.60458653       1.13461461       5.27991680       0.00305021       0.00216156      -0.00000197
N        4.49213717       3.17641966       5.27991668      -0.00304949      -0.00215852      -0.00000359
N        3.77024935       1.13461508       4.02957163      -0.00152078       0.00216419       0.00263417
N        2.32647428       3.17641961       6.53026335       0.00152549      -0.00216019      -0.00263453
N        2.32647452       3.17641989       4.02957141       0.00152731      -0.00215673       0.00263673
N        3.77024873       1.13461537       6.53026376      -0.00152951       0.00216508      -0.00262964
