9
Lattice="4.763677196621129 1.198076793482982e-07 2.750310178540169 1.5878924663506095 4.49123789524183 2.7503102573118263 8.37551527481707e-08 1.5569903336216594e-07 5.500620212012142" Properties=species:S:1:pos:R:3:forces:R:3 energy=-38.86821746826172 free_energy=-38.86821746826172 stress="-0.000185295837582089 8.604222756503077e-08 -1.4083111921081581e-07 8.604222756503077e-08 -0.00018489614012651145 -1.414628343354707e-07 -1.4083111921081581e-07 -1.414628343354707e-07 -0.00018492297385819256" pbc="T T T"
Se       1.58789204       1.12280860       2.75031256      -0.00000346      -0.00000774       0.00001916
Se       4.76367810       3.36842806       8.25093197       0.00000559      -0.00000643       0.00001270
S       -0.00000019       0.00000024      -0.00000037       0.00000275      -0.00000139      -0.00000829
O        1.35613829       0.95893520       5.50062042      -0.00326967      -0.00231135      -0.00000256
O        4.99543146       3.53230351       5.50061943       0.00326705       0.00231373      -0.00000853
O        4.08560752       0.95893509       3.92475946       0.00162935      -0.00230885      -0.00283575
O        2.26596215       3.53230356       7.07647990      -0.00163317       0.00231624       0.00283229
O        2.26596082       3.53230336       3.92476032      -0.00163651       0.00231934      -0.00283670
O        4.08560856       0.95893500       7.07647914       0.00163627      -0.00231373       0.00282812
