9
Lattice="5.6158532116131425 1.9422549966016106e-07 3.242314526436141 1.8719512867910457 5.2946770986267 3.2423144690433516 6.751562854343921e-08 -2.2550757150008648e-08 6.484628935931772" Properties=species:S:1:pos:R:3:forces:R:3 energy=-31.86016273498535 free_energy=-31.86016273498535 stress="-7.507738337153569e-05 -6.362045557040119e-09 1.7463881007984128e-08 -6.362045557040119e-09 -7.50613835407421e-05 -3.8407350189118006e-08 1.7463881007984128e-08 -3.8407350189118006e-08 -7.500527863157913e-05" pbc="T T T"
Se       1.87195192       1.32366962       3.24231423       0.00000230       0.00000172      -0.00000034
Se       5.61585312       3.97100816       9.72694428       0.00000042       0.00000177       0.00000180
Sc       0.00000017       0.00000027      -0.00000020      -0.00000203      -0.00000255      -0.00000215
S        2.04219905       1.44405269       6.48462882      -0.00113809      -0.00080459      -0.00000005
S        5.44560478       3.85062430       6.48462897       0.00113936       0.00080636      -0.00000039
S        4.59475378       1.44405292       5.01091070       0.00056946      -0.00080606      -0.00098875
S        2.89305046       3.85062410       7.95834719      -0.00057148       0.00080289       0.00098863
S        2.89305094       3.85062416       5.01091084      -0.00056930       0.00080648      -0.00098704
S        4.59475406       1.44405283       7.95834694       0.00056934      -0.00080588       0.00098832
