9
Lattice="4.9160121579611475 2.3972636206627335e-06 2.838265950379998 1.6386731462876034 4.634852305165098 2.838265661465281 2.24327397927084e-06 1.2323870598321665e-06 5.676528015295332" Properties=species:S:1:pos:R:3:forces:R:3 energy=-39.329246520996094 free_energy=-39.329246520996094 stress="1.7234440747415647e-05 -1.067631455953233e-05 -1.0231318810838275e-05 -1.067631455953233e-05 6.550357647938654e-05 -6.697601747873705e-06 -1.0231318810838275e-05 -6.697601747873705e-06 -1.535034789412748e-05" pbc="T T T"
Se       1.63867462       1.15871795       2.83826798       0.00006806       0.00012298       0.00004810
Se       4.91601509       3.47613997       8.51479471      -0.00005035      -0.00010308      -0.00002952
Sn       0.00000001      -0.00000029       0.00000009      -0.00000325      -0.00000417      -0.00000178
N        2.12592018       1.50328097       5.67648946      -0.00000465       0.00106001      -0.00096755
N        4.42877768       3.13157188       5.67652826       0.00013572      -0.00114095       0.00023380
N        3.85303167       1.50328560       4.67934433      -0.00076449       0.00136489      -0.00073749
N        2.70165475       3.13155369       6.67373304       0.00079721      -0.00166592       0.00104606
N        2.70162616       3.13155864       4.67934398      -0.00000805      -0.00180671      -0.00069928
N        3.85305010       1.50331524       6.67373666      -0.00017005       0.00217250       0.00110745
