9
Lattice="4.444944624627726 -4.8377674621645606e-08 2.566290010183288 1.4816481666268746 4.190734019514086 2.5662900032056517 -2.9407397630660105e-08 -2.934000028902824e-08 5.132580071301689" Properties=species:S:1:pos:R:3:forces:R:3 energy=-44.73450469970703 free_energy=-44.73450469970703 stress="0.00034248013980686665 -1.3632336504088016e-07 -2.1112689374547244e-10 -1.3632336504088016e-07 0.00034257545485161245 1.216321550145949e-07 -2.1112689374547244e-10 1.216321550145949e-07 0.00034278674866072834" pbc="T T T"
Se       1.48164750       1.04768417       2.56629205      -0.00001081       0.00001209       0.00003524
Se       4.44494451       3.14304954       7.69886971      -0.00000463      -0.00001383      -0.00000932
Si      -0.00000005       0.00000008       0.00000012       0.00000007       0.00000118      -0.00000231
N        1.51618934       1.07210804       5.13257922      -0.00098836      -0.00069213      -0.00001585
N        4.41040354       3.11862584       5.13258010       0.00098956       0.00068915       0.00000538
N        3.68684960       1.07210806       3.87934841       0.00049353      -0.00069791      -0.00086272
N        2.23974318       3.11862619       6.38581125      -0.00049001       0.00070453       0.00085783
N        2.23974269       3.11862558       3.87934838      -0.00049740       0.00068879      -0.00086153
N        3.68685073       1.07210817       6.38581110       0.00050801      -0.00069165       0.00085348
