9
Lattice="4.73279773476326 -3.423301975196991e-08 2.7324820422197447 1.577599198824674 4.462124556836157 2.732482066158783 -2.4672665423230303e-08 1.1873021441901284e-08 5.464964127173782" Properties=species:S:1:pos:R:3:forces:R:3 energy=-42.2755126953125 free_energy=-42.2755126953125 stress="0.00012390765186864883 4.8051933987380835e-08 7.203458274318564e-09 4.8051933987380835e-08 0.00012375264486763626 1.8641186372292395e-08 7.203458274318564e-09 1.8641186372292395e-08 0.00012391024210955948" pbc="T T T"
Se       1.57760058       1.11553282       2.73248214       0.00001647       0.00001986       0.00000166
Se       4.73279746       3.34659229       8.19744560      -0.00000320      -0.00001474      -0.00000474
Sc      -0.00000007      -0.00000003      -0.00000010       0.00000249       0.00000096       0.00000242
O        1.69491600       1.19848695       5.46496408      -0.00160509      -0.00112891      -0.00000092
O        4.61548118       3.26363746       5.46496437       0.00160360       0.00112686       0.00000199
O        3.88533907       1.19848701       4.20032185       0.00079441      -0.00112653      -0.00139511
O        2.42505712       3.26363720       6.72960649      -0.00080076       0.00112242       0.00139308
O        2.42505686       3.26363719       4.20032194      -0.00080389       0.00112468      -0.00139213
O        3.88533946       1.19848730       6.72960665       0.00079608      -0.00112486       0.00139403
