9
Lattice="5.475379926449529 2.393987102270507e-08 3.1612122651865353 1.8251266706033649 5.162237769539787 3.1612122549972317 6.806435903682043e-08 3.564947395479271e-08 6.322424412482176" Properties=species:S:1:pos:R:3:forces:R:3 energy=-35.62916946411133 free_energy=-35.62916946411133 stress="-8.681444160174578e-05 -3.74289577109721e-08 -6.417413267456595e-09 -3.74289577109721e-08 -8.68742645252496e-05 3.806253090488099e-09 -6.417413267456595e-09 3.806253090488099e-09 -8.682649786351249e-05" pbc="T T T"
Se       1.82512852       1.29055797       3.16121143       0.00000790      -0.00001096      -0.00000468
Se       5.47538068       3.87167818       9.48363685       0.00000528      -0.00000100       0.00000103
Ti      -0.00000032       0.00000064      -0.00000018      -0.00000103      -0.00000026       0.00000076
S        1.91650227       1.35517203       6.32242470       0.00279772       0.00198142       0.00000199
S        5.38400355       3.80706616       6.32242451      -0.00279976      -0.00197454       0.00000062
S        4.51712842       1.35517206       4.82095224      -0.00140105       0.00197777       0.00242038
S        2.78337786       3.80706627       7.82389669       0.00139782      -0.00197598      -0.00242326
S        2.78337771       3.80706589       4.82095255       0.00139523      -0.00197415       0.00242195
S        4.51712798       1.35517218       7.82389689      -0.00140204       0.00197756      -0.00241902
