9
Lattice="4.5538017639053345 -2.0384862839999605e-08 2.6291386755537824 1.5179338973940895 4.2933655226531755 2.629138683674732 -2.8041747047379912e-08 -9.882402799351621e-09 5.258277399677308" Properties=species:S:1:pos:R:3:forces:R:3 energy=-47.19049072265625 free_energy=-47.19049072265625 stress="6.909845251357183e-05 9.37609190287958e-09 -1.5580724266328616e-08 9.37609190287958e-09 6.909374496899545e-05 -2.451611358367245e-08 -1.5580724266328616e-08 -2.451611358367245e-08 6.90574015607126e-05" pbc="T T T"
Se       1.51793285       1.07334080       2.62913840      -0.00001008      -0.00000519      -0.00000226
Se       4.55380099       3.22002336       7.88741536      -0.00000875      -0.00000807      -0.00000596
Ti      -0.00000002       0.00000001       0.00000006       0.00000292       0.00000007       0.00000226
O        1.52478121       1.07818362       5.25827733      -0.00021517      -0.00014919      -0.00000007
O        4.54695462       3.21518195       5.25827774       0.00021493       0.00014889       0.00000396
O        3.79141128       1.07818335       3.94963818       0.00010973      -0.00014907      -0.00018275
O        2.28032510       3.21518265       6.56691679      -0.00010070       0.00015420       0.00018561
O        2.28032510       3.21518267       3.94963822      -0.00010219       0.00015563      -0.00018448
O        3.79141137       1.07818352       6.56691690       0.00010934      -0.00014782       0.00018448
