9
Lattice="4.425965381450901 -1.2676487270029057e-07 2.5553326329308677 1.475321708682897 4.1728404065913205 2.555332573381221 2.4105092922043327e-07 9.751563361185904e-08 5.110664848349279" Properties=species:S:1:pos:R:3:forces:R:3 energy=-48.510658264160156 free_energy=-48.510658264160156 stress="0.00013447945821098983 3.405730453209799e-08 -1.2228241530465311e-07 3.405730453209799e-08 0.00013443402713164687 -1.1693295220993605e-07 -1.2228241530465311e-07 -1.1693295220993605e-07 0.0001340966991847381" pbc="T T T"
Se       1.47531835       1.04320582       2.55532979      -0.00003435      -0.00004670      -0.00002575
Se       4.42596086       3.12963768       7.66599880      -0.00005005       0.00008439       0.00001476
Ti       0.00000064       0.00000074       0.00000074       0.00000087       0.00000465       0.00000247
N        1.59046765       1.12462200       5.11066748      -0.00013658      -0.00017050       0.00002010
N        4.31081974       3.04821319       5.11066529       0.00015903       0.00014016      -0.00000510
N        3.63073537       1.12462500       3.93271596       0.00009827      -0.00014946      -0.00013748
N        2.27055766       3.04821434       6.28861182      -0.00006346       0.00014314       0.00012878
N        2.27055731       3.04821614       3.93271632      -0.00005165       0.00015020      -0.00013632
N        3.63073211       1.12462579       6.28861357       0.00007740      -0.00015610       0.00013849
