9
Lattice="4.642861774704682 2.5023500009693892e-09 2.6805576110137537 1.5476205469229725 4.377332081917036 2.680557692427884 -5.863322909281132e-08 5.825158194358463e-08 5.361115323583174" Properties=species:S:1:pos:R:3:forces:R:3 energy=-44.267433166503906 free_energy=-44.267433166503906 stress="0.0004768257786054164 -9.933093281233596e-08 1.0319129550850903e-08 -9.933093281233596e-08 0.0004769172810483724 -2.5111656754006617e-08 1.0319129550850903e-08 -2.5111656754006617e-08 0.00047681876458227634" pbc="T T T"
Se       1.54762112       1.09433438       2.68055749       0.00000535       0.00000908      -0.00000237
Se       4.64286262       3.28299809       8.04167147       0.00000839      -0.00000851      -0.00001098
V       -0.00000020      -0.00000003       0.00000010       0.00000190      -0.00000236      -0.00001139
O        1.49272593       1.05551752       5.36111536      -0.00071824      -0.00050133       0.00000062
O        4.69775592       3.32181483       5.36111602       0.00071502       0.00050312       0.00000320
O        3.89649842       1.05551698       3.97329676       0.00035316      -0.00050277      -0.00061476
O        2.29398386       3.32181472       6.74893412      -0.00036407       0.00050896       0.00062603
O        2.29398319       3.32181477       3.97329682      -0.00036138       0.00050247      -0.00061733
O        3.89649803       1.05551746       6.74893429       0.00035983      -0.00050879       0.00062686
