9
Lattice="5.445806989968119 3.755515314643389e-08 3.1441382984159483 1.8152690210754114 5.134356341701575 3.1441383174475974 -4.255427583789533e-08 -6.78150707465879e-09 6.288276670538043" Properties=species:S:1:pos:R:3:forces:R:3 energy=-36.63841247558594 free_energy=-36.63841247558594 stress="-9.900272561935708e-05 -1.1209009720403174e-08 -2.169289636810845e-08 -1.1209009720403174e-08 -9.905728074954823e-05 -1.5834997313390886e-08 -2.169289636810845e-08 -1.5834997313390886e-08 -9.900680015562102e-05" pbc="T T T"
Se       1.81526951       1.28358959       3.14413863       0.00000326       0.00000178       0.00000279
Se       5.44580675       3.85076699       9.43241531      -0.00000018      -0.00000020      -0.00000042
V       -0.00000017       0.00000022       0.00000027       0.00000247      -0.00000349      -0.00000550
S        1.83461093       1.29726605       6.28827651      -0.00033590      -0.00023568      -0.00000094
S        5.42646500       3.83709045       6.28827650       0.00033396       0.00023499      -0.00000114
S        4.52850102       1.29726585       4.73295767       0.00016594      -0.00023445      -0.00028670
S        2.73257477       3.83709018       7.84359511      -0.00017026       0.00023890       0.00029227
S        2.73257476       3.83709022       4.73295782      -0.00016700       0.00023398      -0.00028908
S        4.52850127       1.29726589       7.84359542       0.00016752      -0.00023609       0.00028896
