9
Lattice="4.490030862875727 1.4412539088932563e-07 2.5923204957447896 1.4966770814931638 4.233241809719877 2.5923205107815126 4.269248255025441e-08 4.8604317479825644e-08 5.184640917544012" Properties=species:S:1:pos:R:3:forces:R:3 energy=-49.68878936767578 free_energy=-49.68878936767578 stress="-8.910411452234257e-06 -1.525107933275649e-07 -5.7557162591592714e-08 -1.525107933275649e-07 -8.989892194222193e-06 1.576928987390147e-08 -5.7557162591592714e-08 1.576928987390147e-08 -9.185216185869649e-06" pbc="T T T"
Se       1.49667393       1.05831085       2.59232095      -0.00004629       0.00000441       0.00000661
Se       4.49003209       3.17493228       7.77696286       0.00002432       0.00001014       0.00001898
V        0.00000052      -0.00000010      -0.00000031      -0.00000201       0.00000187      -0.00000090
N        1.56530600       1.10683936       5.18464095      -0.00055575      -0.00038373      -0.00000013
N        4.42140261       3.12640220       5.18464051       0.00056398       0.00037539      -0.00000813
N        3.70737887       1.10683862       3.94791623       0.00029343      -0.00039524      -0.00046587
N        2.27932947       3.12640410       6.42136525      -0.00028598       0.00039643       0.00046128
N        2.27932979       3.12640310       3.94791603      -0.00028145       0.00039303      -0.00047058
N        3.70737869       1.10683763       6.42136524       0.00029004      -0.00040263       0.00045776
