9
Lattice="4.566546801000154 2.1475913240245363e-08 2.636496983066131 1.5221822539583993 4.305381930643392 2.6364970407249935 -9.620345440300536e-08 2.5912666774612503e-09 5.272994132761517" Properties=species:S:1:pos:R:3:forces:R:3 energy=-53.116050720214844 free_energy=-53.116050720214844 stress="-4.967254426446743e-05 -7.697582304899697e-08 -3.2665667504261364e-08 -7.697582304899697e-08 -4.972583337803371e-05 7.915504340871848e-08 -3.2665667504261364e-08 7.915504340871848e-08 -4.946366243530065e-05" pbc="T T T"
Se       1.52218217       1.07634687       2.63649699       0.00000175       0.00001668      -0.00000244
Se       4.56654699       3.22903547       7.90948990       0.00000247      -0.00001337      -0.00001972
W        0.00000011      -0.00000018      -0.00000062       0.00000343       0.00000758       0.00000303
N        1.59627703       1.12873887       5.27299449       0.00008804       0.00007153       0.00000332
N        4.49245204       3.17664330       5.27299501      -0.00009304      -0.00007570       0.00000924
N        3.76840773       1.12873857       4.01891360      -0.00004804       0.00006342       0.00007778
N        2.32032073       3.17664290       6.52707493       0.00004649      -0.00007278      -0.00007498
N        2.32032049       3.17664306       4.01891369       0.00004095      -0.00007164       0.00008106
N        3.76840845       1.12873901       6.52707472      -0.00004119       0.00007439      -0.00007701
