9
Lattice="5.426061889969129 5.919415720914387e-08 3.132738211551136 1.8086873643813919 5.115739946189687 3.132738190911572 -2.7825451974275144e-08 -4.495372085444174e-08 6.265476471297372" Properties=species:S:1:pos:R:3:forces:R:3 energy=-24.83556365966797 free_energy=-24.83556365966797 stress="0.0001358478475594893 1.4790342284243252e-08 -3.5238132412018786e-09 1.4790342284243252e-08 0.00013583278632722795 1.0589412902106687e-08 -3.5238132412018786e-09 1.0589412902106687e-08 0.00013572782336268574" pbc="T T T"
Se       1.80868671       1.27893525       3.13273879      -0.00000266      -0.00000098       0.00000226
Se       5.42606094       3.83680544       9.39821353      -0.00000468       0.00000131      -0.00000722
Zn       0.00000034      -0.00000038      -0.00000022      -0.00000669       0.00000542       0.00000431
S        1.92484869       1.36107265       6.26547622      -0.00619947      -0.00438554      -0.00000300
S        5.30990062       3.75466687       6.26547653       0.00620159       0.00438568       0.00000073
S        4.46363781       1.36107309       4.79970633       0.00310341      -0.00438662      -0.00537096
S        2.77111172       3.75466652       7.73124734      -0.00309732       0.00438114       0.00536763
S        2.77111159       3.75466673       4.79970587      -0.00309952       0.00438349      -0.00536519
S        4.46363846       1.36107366       7.73124712       0.00310531      -0.00438377       0.00537148
