9
Lattice="4.6511700488383365 7.092873334770052e-08 2.685354366322193 1.5503900687786116 4.385165296321912 2.685354391217081 7.5979825686111e-08 8.421573360094533e-08 5.3707086010434715" Properties=species:S:1:pos:R:3:forces:R:3 energy=-31.608400344848633 free_energy=-31.608400344848633 stress="0.0004392804694361985 1.0469609890151332e-07 -6.430299492876657e-08 1.0469609890151332e-07 0.0004390807298477739 -2.9671401335917835e-08 -6.430299492876657e-08 -2.9671401335917835e-08 0.0004391969123389572" pbc="T T T"
Se       1.55038985       1.09629484       2.68535345       0.00000013       0.00005384      -0.00001734
Se       4.65116903       3.28887169       8.05606659      -0.00002004      -0.00003634       0.00005801
Zn       0.00000003      -0.00000007       0.00000019      -0.00000478       0.00000216       0.00000769
O        1.59757126       1.12965457       5.37070933      -0.00747219      -0.00527099       0.00000989
O        4.60398972       3.25551012       5.37070623       0.00748193       0.00525832      -0.00003216
O        3.85238498       1.12965487       4.06889101       0.00374314      -0.00525513      -0.00647724
O        2.34917524       3.25551110       6.67252573      -0.00373940       0.00525659       0.00646895
O        2.34917660       3.25551088       4.06889062      -0.00371610       0.00526091      -0.00648403
O        3.85238414       1.12965393       6.67252617       0.00372732      -0.00526956       0.00646657
