9
Lattice="4.062102504802341 2.7325911043249268e-08 2.3452560154291886 1.354034173473559 3.829787174194825 2.3452560510349763 -5.3437097543319555e-08 5.822274221247184e-09 4.690512123414145" Properties=species:S:1:pos:R:3:forces:R:3 energy=-52.00152587890625 free_energy=-52.00152587890625 stress="0.0006157663301564753 -6.348284387058811e-08 -5.628024979387192e-08 -6.348284387058811e-08 0.0006154602160677314 -3.853967456279861e-08 -5.628024979387192e-08 -3.853967456279861e-08 0.0006154125439934433" pbc="T T T"
Si       1.35403361       0.95744726       2.34525595      -0.00000177       0.00000605      -0.00000153
Si       4.06210282       2.87234064       7.03576793      -0.00000035       0.00000193      -0.00000090
C        0.00000005       0.00000020      -0.00000005       0.00000157      -0.00000578      -0.00000148
N        1.28101928       0.90581804       4.69051247      -0.00489855      -0.00345457       0.00000480
N        4.13511675       2.92396993       4.69051127       0.00489086       0.00346881      -0.00001136
N        3.42159241       0.90581709       3.45465202       0.00244606      -0.00347066      -0.00423080
N        1.99454466       2.92396890       5.92637325      -0.00244462       0.00345644       0.00424927
N        1.99454388       2.92396880       3.45465173      -0.00245053       0.00345609      -0.00423861
N        3.42159315       0.90581817       5.92637218       0.00245655      -0.00345770       0.00423121
