9
Lattice="4.153538231862522 -1.20887214875898e-07 2.398046353498763 1.384512628361076 3.915994132017541 2.3980463563038996 -1.1122042716881839e-07 -7.520914918081474e-08 4.796092899636972" Properties=species:S:1:pos:R:3:forces:R:3 energy=-48.46229934692383 free_energy=-48.46229934692383 stress="-6.780372495995834e-05 1.6815781123113993e-07 1.8967715220696846e-07 1.6815781123113993e-07 -7.016339077381417e-05 1.6395992474826926e-07 1.8967715220696846e-07 1.6395992474826926e-07 -6.763360579498112e-05" pbc="T T T"
Si       1.38451233       0.97899954       2.39804691       0.00000047       0.00001097       0.00000133
Si       4.15353851       2.93699511       7.19413912       0.00000521      -0.00000263       0.00000095
Ni       0.00000006      -0.00000021      -0.00000051      -0.00000206       0.00000010       0.00000678
N        1.59584208       1.12842886       4.79609484      -0.00022829      -0.00019017       0.00003132
N        3.94220839       2.78756444       4.79609531       0.00022846       0.00018457       0.00003318
N        3.35561871       1.12843119       3.78008531       0.00013325      -0.00016215      -0.00021735
N        2.18243301       2.78756636       5.81209785      -0.00011724       0.00020710       0.00017586
N        2.18243313       2.78756325       3.78008532      -0.00012699       0.00016657      -0.00021487
N        3.35561680       1.12842712       5.81209835       0.00010744      -0.00021458       0.00018278
