9
Lattice="4.131626190691644 -6.49463559109322e-08 2.3853958077202235 1.3772086670684764 3.8953344822523186 2.385395811063192 5.34985780281874e-08 4.192348657015362e-08 4.770791522778178" Properties=species:S:1:pos:R:3:forces:R:3 energy=-50.95891571044922 free_energy=-50.95891571044922 stress="0.00025346322217956185 3.9821394182126824e-08 -4.434592781876745e-08 3.9821394182126824e-08 0.00025359104620292783 9.713813753364775e-09 -4.434592781876745e-08 9.713813753364775e-09 0.0002524300944060087" pbc="T T T"
Si       1.37720684       0.97383343       2.38539427      -0.00001861       0.00000768      -0.00001487
Si       4.13162565       2.92150233       7.15618594      -0.00000876       0.00001466      -0.00001565
P       -0.00000072       0.00000026      -0.00000069       0.00000154       0.00000796      -0.00000106
N        1.55715135       1.10107146       4.77079155      -0.00399703      -0.00283074      -0.00000452
N        3.95168438       2.79426275       4.77079213       0.00401211       0.00283629       0.00000271
N        3.35305220       1.10107150       3.73392748       0.00200397      -0.00283480      -0.00347131
N        2.15578353       2.79426315       5.80765553      -0.00200972       0.00283283       0.00347120
N        2.15578483       2.79426218       3.73392842      -0.00199455       0.00281364      -0.00345874
N        3.35305160       1.10107070       5.80765789       0.00201148      -0.00284791       0.00349277
