9
Lattice="3.9992751129114525 4.5220100495313484e-08 2.3089826333406496 1.333091758282643 3.7705527826840437 2.3089826136906946 4.8460359467984324e-08 1.0200461595342209e-08 4.617965182745486" Properties=species:S:1:pos:R:3:forces:R:3 energy=-50.898494720458984 free_energy=-50.898494720458984 stress="-4.699606961366953e-06 1.67730256350751e-08 -1.7540598307164146e-08 1.67730256350751e-08 -4.742980308947153e-06 1.7160489562684234e-07 -1.7540598307164146e-08 1.7160489562684234e-07 -5.081260496808682e-06" pbc="T T T"
Si       1.33309192       0.94263830       2.30898280      -0.00000121       0.00000018       0.00000066
Si       3.99927521       2.82791492       6.92694808      -0.00000114      -0.00000057       0.00000188
S        0.00000019       0.00000006      -0.00000006      -0.00001399      -0.00000408       0.00001864
N        1.30798601       0.92488571       4.61796481       0.00024527       0.00017318      -0.00000372
N        4.02438063       2.84566702       4.61796439      -0.00023368      -0.00016111      -0.00000617
N        3.34528245       0.92488585       3.44173210      -0.00010952       0.00015855       0.00020063
N        1.98708482       2.84566690       5.79419891       0.00012563      -0.00017476      -0.00020805
N        1.98708445       2.84566683       3.44173185       0.00011279      -0.00016600       0.00020534
N        3.34528214       0.92488578       5.79419889      -0.00012493       0.00017431      -0.00020897
