9
Lattice="4.112406297958677 -7.205852714375636e-08 2.374298968824168 1.370802062451795 3.8772135071269505 2.374298915009929 7.519550950212304e-08 -1.2737467163621743e-08 4.748597807405898" Properties=species:S:1:pos:R:3:forces:R:3 energy=-46.72766876220703 free_energy=-46.72766876220703 stress="-0.0002594702527858317 4.5616090460498526e-07 1.0984219045440113e-07 4.5616090460498526e-07 -0.00025809157523326576 -2.7005420122350188e-08 1.0984219045440113e-07 -2.7005420122350188e-08 -0.00026086941943503916" pbc="T T T"
Si       1.37080201       0.96930394       2.37429889       0.00000969       0.00000423      -0.00000136
Si       4.11240656       2.90790950       7.12289641       0.00000871       0.00000289       0.00000010
Se       0.00000218       0.00000115       0.00000053       0.00006885       0.00003577       0.00001176
N        1.59834892       1.13020381       4.74859860      -0.00307743      -0.00216958       0.00000716
N        3.88485327       2.74700504       4.74859880       0.00289167       0.00202727       0.00000968
N        3.31323176       1.13020617       3.75851107       0.00152523      -0.00208824      -0.00259615
N        2.16997865       2.74700872       5.73868450      -0.00147075       0.00212694       0.00260448
N        2.16997857       2.74700904       3.75851024      -0.00147648       0.00213689      -0.00261831
N        3.31323184       1.13020634       5.73868385       0.00152028      -0.00207604       0.00258245
