9
Lattice="4.720554312320159 8.96544820379798e-08 2.7254133292014564 1.5735181784755643 4.450581540582843 2.7254133467959933 2.941754284209937e-08 4.235016360061511e-08 5.450826607450228" Properties=species:S:1:pos:R:3:forces:R:3 energy=-39.74262237548828 free_energy=-39.74262237548828 stress="-0.00021588987146969885 -8.48324699376235e-09 -2.2574253577545278e-08 -8.48324699376235e-09 -0.00021603962522931397 -2.1938303618185273e-08 -2.2574253577545278e-08 -2.1938303618185273e-08 -0.00021589563402812928" pbc="T T T"
Sn       1.57351739       1.11264613       2.72541225      -0.00000530       0.00000607      -0.00000867
Sn       4.72055385       3.33793639       8.17623975      -0.00000452       0.00000206      -0.00000043
Ag       0.00000024       0.00000002      -0.00000014      -0.00000535       0.00000094       0.00000292
O        1.61764837       1.14385004       5.45082749      -0.00043225      -0.00030631       0.00000727
O        4.67642454       3.30673151       5.45082628       0.00043750       0.00030464      -0.00000282
O        3.91173056       1.14385002       4.12633827       0.00022173      -0.00031084      -0.00037521
O        2.38234248       3.30673112       6.77531585      -0.00021511       0.00030398       0.00037742
O        2.38234230       3.30673111       4.12633772      -0.00021583       0.00030470      -0.00037646
O        3.91173038       1.14385033       6.77531562       0.00021797      -0.00030547       0.00037646
