9
Lattice="6.251031912996347 6.549407033998929e-08 3.609035008760003 2.0836773662921653 5.893529303088855 3.6090350083934557 2.0040930887543534e-08 1.3722132612837039e-08 7.2180699828081085" Properties=species:S:1:pos:R:3:forces:R:3 energy=-28.51586151123047 free_energy=-28.51586151123047 stress="-1.0708767149480991e-05 1.9777278481569738e-08 -5.8517386491985235e-09 1.9777278481569738e-08 -1.0766085324576125e-05 -6.706755595331515e-09 -5.8517386491985235e-09 -6.706755595331515e-09 -1.0723614650487434e-05" pbc="T T T"
Sn       2.08367722       1.47338033       3.60903565      -0.00000054      -0.00000675       0.00000180
Sn       6.25103329       4.42014786      10.82710372       0.00000392       0.00000405      -0.00000373
Ag      -0.00000029       0.00000058      -0.00000012       0.00000278      -0.00000385       0.00000182
Te       2.27308388       1.60731328       7.21806991       0.00034783       0.00024533      -0.00000076
Te       6.06162472       4.28621705       7.21807110      -0.00034853      -0.00024328       0.00000273
Te       5.11448957       1.60731167       5.57758366      -0.00017630       0.00024364       0.00030427
Te       3.22021981       4.28621760       8.85855574       0.00017413      -0.00024178      -0.00030281
Te       3.22021900       4.28621737       5.57758455       0.00017121      -0.00024218       0.00030213
Te       5.11448996       1.60731179       8.85855586      -0.00017454       0.00024477      -0.00030542
