9
Lattice="5.781354187553096 8.498716061909792e-08 3.3378664086947936 1.9271181044835382 5.45071312837995 3.3378664747913276 -6.728315624199717e-08 3.337495703910769e-08 6.67573293392742" Properties=species:S:1:pos:R:3:forces:R:3 energy=-31.57086181640625 free_energy=-31.57086181640625 stress="-3.52547358488664e-05 -1.6237251543316233e-08 3.5940443954274315e-09 -1.6237251543316233e-08 -3.524443309288472e-05 -4.124874664057643e-09 3.5940443954274315e-09 -4.124874664057643e-09 -3.5248918720753863e-05" pbc="T T T"
Sn       1.92711825       1.36267884       3.33786691       0.00000040       0.00000116       0.00000088
Sn       5.78135358       4.08803511      10.01359925      -0.00000107       0.00000089      -0.00000023
Au       0.00000005       0.00000026      -0.00000031      -0.00000003      -0.00000149       0.00000113
Se       2.19513793       1.55219669       6.67573286      -0.00140507      -0.00099390      -0.00000034
Se       5.51333471       3.89851621       6.67573295       0.00140580       0.00099388       0.00000027
Se       4.68378453       1.55219743       5.23891211       0.00070130      -0.00099287      -0.00121684
Se       3.02468738       3.89851580       8.11255395      -0.00070152       0.00099222       0.00121574
Se       3.02468745       3.89851547       5.23891183      -0.00070181       0.00099253      -0.00121693
Se       4.68378498       1.55219726       8.11255370       0.00070194      -0.00099238       0.00121631
