9
Lattice="5.735509505613037 3.533806491473051e-08 3.311397933437239 1.9118365410942737 5.407489963434767 3.3113979232074118 5.5189963318039826e-08 2.649627039428449e-08 6.622795771282638" Properties=species:S:1:pos:R:3:forces:R:3 energy=-31.00007438659668 free_energy=-31.00007438659668 stress="-4.8969297495204955e-05 -1.8618598218722582e-08 -2.8326699208491846e-08 -1.8618598218722582e-08 -4.8847283323993906e-05 -2.1151981499656358e-08 -2.8326699208491846e-08 -2.1151981499656358e-08 -4.8926329327514395e-05" pbc="T T T"
Sn       1.91183613       1.35187314       3.31139840      -0.00000008       0.00000037       0.00000024
Sn       5.73550927       4.05561639       9.93419306      -0.00000042      -0.00000056      -0.00000022
Ag       0.00000022       0.00000044      -0.00000024       0.00000017      -0.00000159       0.00000117
Se       2.17609626       1.53873331       6.62279562      -0.00446250      -0.00315350      -0.00000101
Se       5.47125005       3.86875697       6.62279669       0.00446221       0.00315419       0.00000159
Se       4.64746114       1.53873310       5.19595290       0.00223109      -0.00315435      -0.00386512
Se       2.99988506       3.86875704       8.04963903      -0.00223054       0.00315549       0.00386457
Se       2.99988462       3.86875637       5.19595255      -0.00223178       0.00315326      -0.00386517
Se       4.64746159       1.53873337       8.04963846       0.00223185      -0.00315330       0.00386398
