9
Lattice="5.5247638000856005 -5.263554707899784e-08 3.1897237371049916 1.8415878780086172 5.208797245065087 3.189723747026143 -6.841777592683975e-08 -3.622785846185448e-08 6.379447592713049" Properties=species:S:1:pos:R:3:forces:R:3 energy=-33.27363586425781 free_energy=-33.27363586425781 stress="2.9863960662623867e-05 1.2881188560243118e-08 4.132712838611496e-09 1.2881188560243118e-08 2.9877379347453825e-05 -1.9724748057114994e-08 4.132712838611496e-09 -1.9724748057114994e-08 2.9854063541279174e-05" pbc="T T T"
Sn       1.84158786       1.30219960       3.18972490       0.00000089       0.00000122       0.00000038
Sn       5.52476370       3.90659705       9.56917233      -0.00000015       0.00000020       0.00000020
Au       0.00000019       0.00000024      -0.00000040      -0.00000113      -0.00000451       0.00000897
S        1.94794666       1.37740673       6.37944745      -0.00287339      -0.00203171       0.00000008
S        5.41840475       3.83139080       6.37944689       0.00287598       0.00203317      -0.00000052
S        4.55079027       1.37740656       4.87669485       0.00143689      -0.00203308      -0.00249127
S        2.81556113       3.83139083       7.88219965      -0.00143656       0.00203142       0.00248772
S        2.81556151       3.83139050       4.87669486      -0.00143829       0.00203365      -0.00249240
S        4.55079035       1.37740630       7.88219964       0.00143549      -0.00203019       0.00248703
