9
Lattice="6.132593417670618 6.986714213904154e-08 3.540654389891359 2.044197773305285 5.781865209886756 3.5406545604226833 -2.53074918957551e-07 2.99063802207741e-08 7.081309218121399" Properties=species:S:1:pos:R:3:forces:R:3 energy=-30.02386474609375 free_energy=-30.02386474609375 stress="-2.4855333322193474e-05 7.917813071856017e-09 1.7574121713437307e-08 7.917813071856017e-09 -2.49107506533619e-05 1.1008141953539052e-08 1.7574121713437307e-08 1.1008141953539052e-08 -2.4847946406225674e-05" pbc="T T T"
Sn       2.04419768       1.44546771       3.54065449       0.00000097       0.00000336       0.00000012
Sn       6.13259283       4.33639868      10.62196248      -0.00000113      -0.00000177      -0.00000312
Be       0.00000022       0.00000037      -0.00000087      -0.00000167      -0.00000316       0.00000591
Te       1.98689431       1.40494746       7.08130873       0.00028102       0.00020038      -0.00000102
Te       6.18989633       4.37691735       7.08130965      -0.00027780      -0.00019892       0.00000212
Te       5.13914591       1.40494730       5.26135607      -0.00014004       0.00019727       0.00024056
Te       3.03764525       4.37691745       8.90126334       0.00014204      -0.00020182      -0.00024126
Te       3.03764477       4.37691720       5.26135584       0.00013794      -0.00019847       0.00023974
Te       5.13914639       1.40494773       8.90126296      -0.00014137       0.00020307      -0.00024308
