9
Lattice="4.986367759158044 -7.951411994437944e-07 2.8788808158976114 1.6621217427399664 4.701192659344613 2.8788809786753715 2.157250639111073e-07 3.5190193367727795e-07 5.757761258148351" Properties=species:S:1:pos:R:3:forces:R:3 energy=-34.295692443847656 free_energy=-34.295692443847656 stress="-0.0004096693592146039 2.0021518665203075e-08 9.066804196322664e-09 2.0021518665203075e-08 -0.00040971391717903316 -2.9295584624833282e-08 9.066804196322664e-09 -2.9295584624833282e-08 -0.0004097768687643111" pbc="T T T"
Sn       1.66212575       1.17529821       2.87888000      -0.00000786      -0.00000350      -0.00000334
Sn       4.98636841       3.52589547       8.63664105       0.00000280       0.00000037       0.00000405
Be       0.00000011      -0.00000021      -0.00000035      -0.00000378      -0.00000022       0.00000423
S        1.69278253       1.19697750       5.75776029      -0.00010034      -0.00007143       0.00000376
S        4.95570555       3.50421304       5.75776138       0.00009947       0.00007295      -0.00000412
S        4.13997685       1.19697837       4.34487332       0.00005666      -0.00007114      -0.00008453
S        2.50851316       3.50421483       7.17065127      -0.00005065       0.00006925       0.00007969
S        2.50851047       3.50421391       4.34487457      -0.00004856       0.00007593      -0.00008062
S        4.13997592       1.19697782       7.17065069       0.00005224      -0.00007214       0.00008081
