9
Lattice="5.406198810155908 -7.456858813688962e-08 3.1212702374730426 1.8020662478127845 5.097013273558792 3.121270154222439 -2.403960675027557e-08 -1.1895928463210527e-07 6.242540516583899" Properties=species:S:1:pos:R:3:forces:R:3 energy=-34.239234924316406 free_energy=-34.239234924316406 stress="-0.00014810898574069142 1.3529778186693875e-08 -2.1103659264554153e-08 1.3529778186693875e-08 -0.00014810118591412902 -2.5464098385441503e-08 -2.1103659264554153e-08 -2.5464098385441503e-08 -0.00014809334243182093" pbc="T T T"
Sn       1.80206658       1.27425320       3.12127084       0.00000055       0.00000150       0.00000149
Sn       5.40619905       3.82276001       9.36381201      -0.00000002      -0.00000169      -0.00000011
Cu       0.00000004      -0.00000033       0.00000021      -0.00000174       0.00000217      -0.00000214
S        1.86025063       1.31539527       6.24254029       0.00860888       0.00608730      -0.00000032
S        5.34801428       3.78161763       6.24253999      -0.00860882      -0.00608784       0.00000059
S        4.47607368       1.31539543       4.73229420      -0.00430501       0.00608739       0.00745618
S        2.73219113       3.78161783       7.75278587       0.00430492      -0.00608745      -0.00745666
S        2.73219140       3.78161803       4.73229402       0.00430503      -0.00608850       0.00745630
S        4.47607334       1.31539521       7.75278598      -0.00430372       0.00608721      -0.00745523
