9
Lattice="5.366791176031638 -2.068590649328526e-08 3.098518280422476 1.7889304109476394 5.059859240199123 3.098518213842525 9.299133103339288e-08 -1.5788682369299325e-08 6.197036399779171" Properties=species:S:1:pos:R:3:forces:R:3 energy=-42.970088958740234 free_energy=-42.970088958740234 stress="-0.000134014873765409 -4.3046764375276325e-08 7.592839246228777e-09 -4.3046764375276325e-08 -0.00013396231224760413 -1.697618223772679e-08 7.592839246228777e-09 -1.697618223772679e-08 -0.0001339623413514346" pbc="T T T"
Sn       1.78893008       1.26496577       3.09851801       0.00000114      -0.00000053       0.00000226
Sn       5.36679161       3.79489487       9.29555492      -0.00000123       0.00000025       0.00000252
Cr      -0.00000009      -0.00000010       0.00000106       0.00000066       0.00000199      -0.00001254
S        1.82430920       1.28998131       6.19703691       0.00076112       0.00053802      -0.00000404
S        5.33141256       3.76987741       6.19703665      -0.00076500      -0.00053982      -0.00000329
S        4.45463662       1.28998108       4.67841637      -0.00038539       0.00054453       0.00066349
S        2.70108558       3.76987669       7.71565558       0.00037833      -0.00053176      -0.00065598
S        2.70108505       3.76987764       4.67841656       0.00038560      -0.00054294       0.00066173
S        4.45463608       1.28998214       7.71565562      -0.00037515       0.00053030      -0.00065407
