9
Lattice="5.980874316950458 3.4348175985542895e-08 3.453059253604788 1.993624838092809 5.638821979041484 3.4530591957677803 3.840288389479414e-08 -4.36806129034194e-08 6.906118440693863" Properties=species:S:1:pos:R:3:forces:R:3 energy=-31.278108596801758 free_energy=-31.278108596801758 stress="0.0002706145169213414 2.5204133891065794e-08 -2.0573009962276956e-08 2.5204133891065794e-08 0.00027058605337515473 -2.062074067055164e-08 -2.0573009962276956e-08 -2.062074067055164e-08 0.00027066271286457777" pbc="T T T"
Sn       1.99362499       1.40970406       3.45305929       0.00000153      -0.00000478       0.00000007
Sn       5.98087495       4.22911762      10.35917680       0.00000292       0.00000385      -0.00000463
Ca       0.00000035       0.00000023       0.00000019      -0.00000265      -0.00000145      -0.00000109
Se       2.28964941       1.61902606       6.90611845      -0.00527572      -0.00373331      -0.00000088
Se       5.68484962       4.01979595       6.90611911       0.00527724       0.00373503       0.00000526
Se       4.83604935       1.61902549       5.43595377       0.00263660      -0.00373618      -0.00456869
Se       3.13844992       4.01979616       8.37628251      -0.00263621       0.00373609       0.00456677
Se       3.13844879       4.01979630       5.43595423      -0.00264183       0.00373433      -0.00456560
Se       4.83604942       1.61902602       8.37628316       0.00263803      -0.00373363       0.00456865
