9
Lattice="4.64570758583779 -1.2865391118940668e-07 2.6822003542170743 1.5485691365248448 4.380014781483776 2.6822002458917624 1.989245222648039e-08 -1.1860479235450893e-07 5.364400673979413" Properties=species:S:1:pos:R:3:forces:R:3 energy=-54.48509216308594 free_energy=-54.48509216308594 stress="0.0005831240559928119 -3.258616043666507e-09 -5.772862721187266e-08 -3.258616043666507e-09 0.0005832038004882634 -7.621158815140916e-09 -5.772862721187266e-08 -7.621158815140916e-09 0.0005832234746776521" pbc="T T T"
Sn       1.54856964       1.09500395       2.68220062       0.00000076       0.00000158       0.00000104
Sn       4.64570770       3.28501030       8.04660127       0.00000089      -0.00000306       0.00000118
Cr       0.00000013      -0.00000005      -0.00000000       0.00000090      -0.00000128      -0.00000293
N        1.52969058       1.08165488       5.36440031      -0.00650775      -0.00459933      -0.00000051
N        4.66458594       3.29835986       5.36440040       0.00650752       0.00459933      -0.00000047
N        3.88086200       1.08165485       4.00695087       0.00325167      -0.00459814      -0.00563574
N        2.31341461       3.29835973       6.72185010      -0.00325423       0.00460124       0.00563884
N        2.31341437       3.29835988       4.00695129      -0.00325364       0.00459993      -0.00563800
N        3.88086206       1.08165472       6.72185000       0.00325483      -0.00460070       0.00563729
