9
Lattice="4.739876030612162 -4.64769624825111e-08 2.736568668079372 1.5799586382546158 4.468797851293309 2.736568659067855 -4.7382895031333255e-08 -4.454154771479949e-08 5.4731374182283234" Properties=species:S:1:pos:R:3:forces:R:3 energy=-37.80744171142578 free_energy=-37.80744171142578 stress="-0.0005201315507292747 -2.8035745947008195e-10 -2.976267055032622e-08 -2.8035745947008195e-10 -0.0005199718289077282 -3.5266449316395665e-08 -2.976267055032622e-08 -3.5266449316395665e-08 -0.0005201389431022108" pbc="T T T"
Sn       1.57995915       1.11719786       2.73656943       0.00000319      -0.00001196       0.00000726
Sn       4.73987600       3.35159842       8.20970684       0.00000134       0.00000253       0.00001134
Cd       0.00000061       0.00000021       0.00000141      -0.00001290      -0.00000561      -0.00002957
O        1.76093536       1.24516898       5.47313718       0.00684196       0.00483561      -0.00000158
O        4.55889839       3.22362911       5.47313686      -0.00683445      -0.00482482      -0.00000492
O        3.85940802       1.24516930       4.26158279      -0.00342354       0.00483984       0.00592327
O        2.46042626       3.22362885       6.68469057       0.00341371      -0.00482380      -0.00591767
O        2.46042648       3.22362898       4.26158334       0.00342360      -0.00483686       0.00592643
O        3.85940821       1.24516931       6.68469042      -0.00341305       0.00482535      -0.00591463
