9
Lattice="6.562204661377549 -1.0328656163247464e-07 3.7886905272774007 2.1874013997727295 6.186905706144394 3.7886906253812604 -6.628642084366813e-08 7.328060444946996e-08 7.577381169366214" Properties=species:S:1:pos:R:3:forces:R:3 energy=-28.942920684814453 free_energy=-28.942920684814453 stress="-0.00011042811820516363 -8.250961691658176e-09 2.4736368509081785e-09 -8.250961691658176e-09 -0.00011041946709156036 -2.8839726162743773e-09 2.4736368509081785e-09 -2.8839726162743773e-09 -0.00011040987737942487" pbc="T T T"
Sn       2.18740192       1.54672647       3.78869125       0.00000289      -0.00000049       0.00000268
Sn       6.56220310       4.64018017      11.36607131      -0.00000737       0.00000342      -0.00000031
Ca      -0.00000021       0.00000002      -0.00000035       0.00000070       0.00000010       0.00000087
Te       2.47992126       1.75356811       7.57738120       0.00588996       0.00416096      -0.00000100
Te       6.26968534       4.43333714       7.57738215      -0.00588971      -0.00416334       0.00000177
Te       5.32224370       1.75356877       5.93636483      -0.00294601       0.00416368       0.00509745
Te       3.42736235       4.43333699       9.21839732       0.00294702      -0.00416218      -0.00509898
Te       3.42736265       4.43333664       5.93636438       0.00294736      -0.00416463       0.00509673
Te       5.32224388       1.75356845       9.21839726      -0.00294483       0.00416255      -0.00509928
