9
Lattice="6.166811114043028 -7.499149983464613e-08 3.56041006543575 2.055603646334224 5.814125429372371 3.560410044034751 -1.0438263964809628e-07 -1.0002040076105504e-07 7.120820311667494" Properties=species:S:1:pos:R:3:forces:R:3 energy=-36.18617248535156 free_energy=-36.18617248535156 stress="-0.0001731078518787399 -1.543819294624882e-08 1.4753152477453568e-08 -1.543819294624882e-08 -0.000173104417626746 -1.5530533303831362e-08 1.4753152477453568e-08 -1.5530533303831362e-08 -0.0001730751828290522" pbc="T T T"
Sn       2.05560332       1.45353160       3.56040981      -0.00000086       0.00000099       0.00000016
Sn       6.16681011       4.36059160      10.68122970      -0.00000206      -0.00000693      -0.00000210
Cr      -0.00000032      -0.00000031       0.00000022       0.00000125       0.00000068      -0.00000243
Te       2.13964790       1.51296064       7.12082016       0.00076373       0.00054196      -0.00000001
Te       6.08276623       4.30116522       7.12082051      -0.00076390      -0.00054035       0.00000060
Te       5.09698744       1.51296081       5.41339969      -0.00038113       0.00054283       0.00066134
Te       3.12542839       4.30116506       8.82824069       0.00038188      -0.00053963      -0.00065950
Te       3.12542823       4.30116507       5.41340015       0.00038137      -0.00053991       0.00066002
Te       5.09698729       1.51296133       8.82824077      -0.00038026       0.00054033      -0.00065814
