9
Lattice="5.632538219840285 3.7621193738323404e-08 3.2519476051049048 1.87751278497786 5.31040825380199 3.2519475885438918 2.0607810088892798e-07 1.2543624247260324e-07 6.503894853271994" Properties=species:S:1:pos:R:3:forces:R:3 energy=-32.510643005371094 free_energy=-32.510643005371094 stress="-0.0003415693645365536 -3.0600112665979395e-08 -2.7497055299363637e-08 -3.0600112665979395e-08 -0.00034156610490754247 -1.7834198118293898e-08 -2.7497055299363637e-08 -1.7834198118293898e-08 -0.00034157189656980336" pbc="T T T"
Sn       1.87751217       1.32760247       3.25194773       0.00000157      -0.00000015       0.00000002
Sn       5.63253853       3.98280603       9.75584206      -0.00000086       0.00000028      -0.00000039
Cu       0.00000013       0.00000002       0.00000023      -0.00000042       0.00000034       0.00000047
Se       2.06759238       1.46200937       6.50389520       0.00298657       0.00211130      -0.00000030
Se       5.44245853       3.84839904       6.50389563      -0.00298528      -0.00210993      -0.00000144
Se       4.59874269       1.46200845       5.04253569      -0.00149418       0.00211206       0.00258593
Se       2.91130998       3.84839925       7.96525417       0.00149100      -0.00211056      -0.00258552
Se       2.91130847       3.84839949       5.04253549       0.00149312      -0.00211182       0.00258531
Se       4.59874192       1.46200955       7.96525412      -0.00149161       0.00210851      -0.00258422
