9
Lattice="5.699223866437238 -2.874979398254394e-07 3.2904484144320314 1.899741053817257 5.373279482959074 3.2904483519734584 -3.3445100215827064e-08 -1.0014512377573183e-07 6.580896886792737" Properties=species:S:1:pos:R:3:forces:R:3 energy=-37.12508773803711 free_energy=-37.12508773803711 stress="-0.0003464577894192189 4.628391447880631e-09 -7.931182932630065e-10 4.628391447880631e-09 -0.00034640904050320387 3.3698572821094785e-08 -7.931182932630065e-10 3.3698572821094785e-08 -0.00034639661316759884" pbc="T T T"
Sn       1.89974144       1.34331970       3.29044841       0.00000166      -0.00000009       0.00000106
Sn       5.69922307       4.02995937       9.87134472      -0.00000249       0.00000065       0.00000012
Co      -0.00000006       0.00000003       0.00000107      -0.00000059      -0.00000017      -0.00000848
Se       1.89022917       1.33659361       6.58089671       0.00827974       0.00585593       0.00000024
Se       5.70873565       4.03668555       6.58089678      -0.00827919      -0.00585479       0.00000053
Se       4.75410896       1.33659361       4.92743489      -0.00413962       0.00585506       0.00717198
Se       2.84485638       4.03668516       8.23435879       0.00413862      -0.00585434      -0.00716906
Se       2.84485598       4.03668548       4.92743456       0.00414027      -0.00585560       0.00717238
Se       4.75410894       1.33659385       8.23435863      -0.00413836       0.00585329      -0.00716860
