9
Lattice="4.529259827968877 1.823945795983431e-08 2.6149695017222148 1.5097533139026027 4.270227359549861 2.6149694658398843 1.6990044212673015e-08 -3.193289848720788e-08 5.229938974016828" Properties=species:S:1:pos:R:3:forces:R:3 energy=-50.240787506103516 free_energy=-50.240787506103516 stress="-3.8114667404443026e-05 -1.0839739417178862e-07 4.892898530783896e-08 -1.0839739417178862e-07 -3.81076279154513e-05 -4.2664982657925066e-08 4.892898530783896e-08 -4.2664982657925066e-08 -3.805967571679503e-05" pbc="T T T"
Sn       1.50975326       1.06755666       2.61496892      -0.00000154       0.00000058       0.00000019
Sn       4.52926013       3.20267032       7.84490809       0.00000141      -0.00000031      -0.00000048
Co       0.00000014      -0.00000000      -0.00000016       0.00000009       0.00000351      -0.00000034
N        1.51040106       1.06801424       5.22993910      -0.00237912      -0.00168481       0.00000005
N        4.52861247       3.20221293       5.22993925       0.00237864       0.00168273       0.00000100
N        3.77405994       1.06801481       3.92301554       0.00119415      -0.00168657      -0.00206512
N        2.26495325       3.20221267       6.53686264      -0.00119352       0.00168565       0.00206244
N        2.26495339       3.20221251       3.92301533      -0.00119299       0.00168619      -0.00206459
N        3.77405913       1.06801527       6.53686301       0.00119281      -0.00168675       0.00206709
