9
Lattice="4.68171628489013 1.4917709174193977e-07 2.702990184413582 1.5605722103864577 4.413964677129115 2.702990228100136 6.760991820282584e-09 5.828562871641493e-08 5.40598035711676" Properties=species:S:1:pos:R:3:forces:R:3 energy=-52.593624114990234 free_energy=-52.593624114990234 stress="-4.468749921215931e-06 5.642836864439005e-09 4.589287172507284e-08 5.642836864439005e-09 -4.662328137783334e-06 8.941157858544102e-08 4.589287172507284e-08 8.941157858544102e-08 -4.405312211019918e-06" pbc="T T T"
Sn       1.56057247       1.10349172       2.70298999       0.00000262       0.00000128      -0.00000111
Sn       4.68171676       3.31047343       8.10897090       0.00000424       0.00000069       0.00000220
Cr       0.00000005       0.00000002       0.00000000      -0.00000137      -0.00000204      -0.00000410
O        1.51405121       1.07059595       5.40598055      -0.00030785      -0.00021771       0.00000009
O        4.72823696       3.34336906       5.40598034       0.00030579       0.00021150       0.00000213
O        3.92469058       1.07059612       4.01419696       0.00015207      -0.00021581      -0.00026249
O        2.31759773       3.34336863       6.79776334      -0.00015406       0.00021806       0.00027196
O        2.31759773       3.34336876       4.01419728      -0.00015482       0.00021639      -0.00027010
O        3.92469043       1.07059575       6.79776378       0.00015355      -0.00021207       0.00026068
