9
Lattice="4.79102310251792 6.834974158558245e-09 2.766098417021942 1.5970076967720206 4.517019723873816 2.766098435228134 3.4303192775735896e-08 4.655397860387102e-08 5.532196774628993" Properties=species:S:1:pos:R:3:forces:R:3 energy=-41.36836624145508 free_energy=-41.36836624145508 stress="-0.00022481851920019835 -8.397191386677605e-09 -8.343963742163396e-08 -8.397191386677605e-09 -0.00022448363597504795 -8.208609614257512e-08 -8.343963742163396e-08 -8.208609614257512e-08 -0.00022477289894595742" pbc="T T T"
Sn       1.59700784       1.12925375       2.76609994      -0.00000203      -0.00001380       0.00001353
Sn       4.79102311       3.38776584       8.29829854       0.00000309       0.00001277       0.00002942
Ca       0.00000007       0.00000038       0.00000037      -0.00000235      -0.00000522      -0.00000806
O        1.80801159       1.27845675       5.53219641      -0.00449002      -0.00318062      -0.00000442
O        4.58001912       3.23856287       5.53219558       0.00449294       0.00318305      -0.00001345
O        3.88701736       1.27845705       4.33188163       0.00224330      -0.00317369      -0.00389344
O        2.50101292       3.23856321       6.73251027      -0.00225236       0.00318693       0.00388494
O        2.50101408       3.23856330       4.33188185      -0.00223905       0.00318158      -0.00389260
O        3.88701724       1.27845597       6.73250989       0.00224654      -0.00319102       0.00388396
