9
Lattice="5.382471789195924 9.546536432431424e-08 3.107571428482397 1.794157293795565 5.074643039815307 3.1075715311503243 -1.3386016354942308e-08 1.1627665993059035e-07 6.215142880150048" Properties=species:S:1:pos:R:3:forces:R:3 energy=-40.286842346191406 free_energy=-40.286842346191406 stress="-0.0002013246266869828 1.820625783466312e-08 3.9247622929394765e-09 1.820625783466312e-08 -0.00020129872427787632 -7.47518846822004e-09 3.9247622929394765e-09 -7.47518846822004e-09 -0.00020131486235186458" pbc="T T T"
Sn       1.79415724       1.26866090       3.10757138       0.00000102       0.00000069       0.00000024
Sn       5.38247221       3.80598270       9.32271472      -0.00000009       0.00000089       0.00000015
Co      -0.00000000      -0.00000002      -0.00000014       0.00000085      -0.00000196       0.00000159
S        1.77410240       1.25448014       6.21514282       0.00812031       0.00574021      -0.00000041
S        5.40252659       3.82016308       6.21514305      -0.00811984      -0.00574113      -0.00000007
S        4.49542043       1.25448001       4.64398925      -0.00406101       0.00574252       0.00703378
S        2.68120846       3.82016302       7.78629652       0.00406070      -0.00574233      -0.00703236
S        2.68120837       3.82016303       4.64398933       0.00405980      -0.00574127       0.00703071
S        4.49542059       1.25448015       7.78629647      -0.00406161       0.00574212      -0.00703374
