9
Lattice="6.376950196483343 2.2641342808247498e-08 3.6817338233176278 2.12564991235918 6.012245525138379 3.6817341255288794 -1.2229834550574578e-07 2.8365377439286834e-07 7.363467858462231" Properties=species:S:1:pos:R:3:forces:R:3 energy=-26.35701560974121 free_energy=-26.35701560974121 stress="-8.823106327326968e-06 3.1800579947116603e-09 5.874059461064007e-09 3.1800579947116603e-09 -8.768457519181538e-06 2.4173978374619765e-09 5.874059461064007e-09 2.4173978374619765e-09 -8.812715350359213e-06" pbc="T T T"
Sn       2.12565041       1.50306247       3.68173279       0.00000152       0.00000411      -0.00000377
Sn       6.37695022       4.50918365      11.04520315       0.00000156      -0.00000226       0.00000479
Cd      -0.00000020       0.00000066       0.00000040       0.00000420      -0.00000277       0.00000002
Te       2.35942638       1.66836761       7.36346805       0.00029710       0.00021246       0.00000196
Te       6.14317395       4.34387858       7.36346685      -0.00029998      -0.00021596      -0.00000321
Te       5.19723707       1.66836639       5.72505709      -0.00014900       0.00021416       0.00026038
Te       3.30536248       4.34387893       9.00187827       0.00014699      -0.00021339      -0.00025643
Te       3.30536349       4.34387873       5.72505809       0.00014953      -0.00021043       0.00025700
Te       5.19723595       1.66836662       9.00187853      -0.00015195       0.00021403      -0.00026077
