9
Lattice="6.129758744706596 3.37204866181078e-08 3.5390177496318422 2.043252944775937 5.779191998085475 3.539017752954302 3.757659416310801e-08 3.063984386602419e-08 7.078035434179095" Properties=species:S:1:pos:R:3:forces:R:3 energy=-30.141956329345703 free_energy=-30.141956329345703 stress="-2.1880441636312753e-05 1.288588880044017e-08 3.674044624091266e-09 1.288588880044017e-08 -2.1888019546167925e-05 -9.584670834783537e-09 3.674044624091266e-09 -9.584670834783537e-09 -2.1873527657589875e-05" pbc="T T T"
Sn       2.04325252       1.44479777       3.53901783      -0.00000132      -0.00000131       0.00000037
Sn       6.12975901       4.33439410      10.61705264       0.00000019       0.00000031      -0.00000063
Cu      -0.00000003       0.00000013       0.00000008      -0.00000024      -0.00000103       0.00000008
Te       2.15786689       1.52584244       7.07803551      -0.00090438      -0.00063945      -0.00000057
Te       6.01514448       4.25334941       7.07803579       0.00090589       0.00064027       0.00000032
Te       5.05082547       1.52584198       5.40778542       0.00045155      -0.00063926      -0.00078205
Te       3.12218654       4.25335011       8.74828550      -0.00045200       0.00064018       0.00078312
Te       3.12218638       4.25335005       5.40778571      -0.00045227       0.00064011      -0.00078309
Te       5.05082563       1.52584227       8.74828527       0.00045258      -0.00063981       0.00078248
