9
Lattice="5.342534188331448 1.2230627227124366e-07 3.084513512424522 1.780844703223893 5.036990083650352 3.084513757564037 1.5171528916142617e-08 3.1096124600867335e-07 6.1690269985711925" Properties=species:S:1:pos:R:3:forces:R:3 energy=-36.648963928222656 free_energy=-36.648963928222656 stress="1.945088843058329e-05 1.0659054194839257e-10 9.882590745746711e-09 1.0659054194839257e-10 1.945724397955928e-05 -1.2229160795129701e-08 9.882590745746711e-09 -1.2229160795129701e-08 1.952993989107199e-05" pbc="T T T"
Sn       1.78084475       1.25924800       3.08451145      -0.00000498       0.00000718      -0.00004224
Sn       5.34253422       3.77774347       9.25353827      -0.00000392       0.00000858      -0.00004027
C        0.00000463      -0.00000827       0.00004392       0.00011752      -0.00019639       0.00105961
S        1.62961849       1.15231360       6.16902965      -0.00230759      -0.00165153       0.00006865
S        5.49376150       3.88467610       6.16903053       0.00234383       0.00163859       0.00006945
S        4.52773171       1.15230464       4.49579523       0.00132698      -0.00188047      -0.00221866
S        2.59566057       3.88466677       7.84224258      -0.00099918       0.00141031       0.00181133
S        2.59564383       3.88468976       4.49578927      -0.00139907       0.00197619      -0.00236905
S        4.52771604       1.15232817       7.84223647       0.00092670      -0.00131232       0.00166130
