9
Lattice="4.5966575724308525 -1.8142315072747023e-07 2.653881522820745 1.5322190674802276 4.333769893013932 2.6538814401718946 -6.338974233221439e-08 -1.46047104114078e-07 5.307763155435777" Properties=species:S:1:pos:R:3:forces:R:3 energy=-44.268795013427734 free_energy=-44.268795013427734 stress="-0.0002579649444669485 9.544008250372826e-09 4.16640721923045e-09 9.544008250372826e-09 -0.00025813686079345644 -2.5560593641671403e-08 4.16640721923045e-09 -2.5560593641671403e-08 -0.00025811410159803927" pbc="T T T"
Sn       1.53221880       1.08344319       2.65388138      -0.00000264       0.00000406      -0.00000010
Sn       4.59665651       3.25032733       7.96164555      -0.00000539       0.00000300       0.00000566
Cu      -0.00000001       0.00000007      -0.00000018      -0.00000260      -0.00000265      -0.00000197
O        1.50975931       1.06756071       5.30776317       0.00097752       0.00069165       0.00000002
O        4.61911783       3.26620804       5.30776266      -0.00097275      -0.00069281      -0.00000244
O        3.84177836       1.06756059       3.96137152      -0.00048813       0.00069132       0.00084621
O        2.28709854       3.26620890       6.65415485       0.00048906      -0.00069147      -0.00084677
O        2.28709936       3.26620889       3.96137079       0.00049427      -0.00069338       0.00084335
O        3.84177765       1.06756054       6.65415480      -0.00049016       0.00069031      -0.00084439
