9
Lattice="4.495611722096699 -9.055656563212714e-08 2.595542551108925 1.4985372098285763 4.238503157168475 2.5955424566996617 -7.471491159323809e-08 -1.6845871118348263e-07 5.191085231627892" Properties=species:S:1:pos:R:3:forces:R:3 energy=-50.07555389404297 free_energy=-50.07555389404297 stress="7.319799237848201e-07 -6.489786841257228e-08 -6.759559312286001e-08 -6.489786841257228e-08 5.965105742689047e-07 1.470916277668266e-08 -6.759559312286001e-08 1.470916277668266e-08 7.432196298395866e-07" pbc="T T T"
Sn       1.49853718       1.05962548       2.59554263       0.00000088       0.00000070       0.00000310
Sn       4.49561172       3.17887727       7.78662801      -0.00000045      -0.00000214       0.00000096
C        0.00000009      -0.00000105       0.00000216       0.00000252      -0.00001921       0.00006180
N        1.35307000       0.95676454       5.19108558      -0.00081527      -0.00057864       0.00000451
N        4.64107905       3.28173866       5.19108547       0.00082970       0.00058568       0.00000371
N        3.81907747       0.95676388       3.76733421       0.00042140      -0.00059772      -0.00072682
N        2.17507169       3.28173823       6.61483485      -0.00040412       0.00056863       0.00070310
N        2.17507134       3.28173906       3.76733383      -0.00042951       0.00060260      -0.00073874
N        3.81907651       0.95676520       6.61483403       0.00039524      -0.00056028       0.00068855
