9
Lattice="4.594405095811932 1.477121057642867e-08 2.652581087738354 1.5314684157602936 4.3316463155924065 2.6525810244090424 3.1675858569244174e-10 -7.733832514079602e-08 5.305162174928079" Properties=species:S:1:pos:R:3:forces:R:3 energy=-47.98983383178711 free_energy=-47.98983383178711 stress="-0.00031500894692726433 5.0327390255233695e-08 -4.8889063464230276e-08 5.0327390255233695e-08 -0.0003150750126224011 6.129477370109271e-09 -4.8889063464230276e-08 6.129477370109271e-09 -0.00031508380197919905" pbc="T T T"
Sn       1.53146869       1.08291205       2.65258081       0.00000056       0.00000101       0.00000237
Sn       4.59440381       3.24873472       7.95774444      -0.00000624       0.00000232       0.00000222
Co      -0.00000008       0.00000011      -0.00000019       0.00000073      -0.00000294       0.00000517
O        1.47084432       1.04004319       5.30516252       0.00807840       0.00571001       0.00000513
O        4.65502966       3.29160265       5.30516145      -0.00807518      -0.00571167      -0.00000723
O        3.85898259       1.04004371       3.92636914      -0.00403720       0.00570923       0.00699198
O        2.26689114       3.29160280       6.68395495       0.00403914      -0.00571036      -0.00699264
O        2.26689035       3.29160207       3.92636898       0.00404102      -0.00571078       0.00699121
O        3.85898361       1.04004374       6.68395502      -0.00404063       0.00571364      -0.00699848
