9
Lattice="6.109340872946941 -4.056283502791985e-09 3.527229915516034 2.0364470155733043 5.759941031338337 3.5272298085643055 1.6187567928540893e-07 -1.6525187306101952e-08 7.054459550655195" Properties=species:S:1:pos:R:3:forces:R:3 energy=-34.41066360473633 free_energy=-34.41066360473633 stress="-6.169419066281989e-05 3.556575256524752e-09 6.897794335714025e-09 3.556575256524752e-09 -6.17162004346028e-05 4.047236323856396e-09 6.897794335714025e-09 4.047236323856396e-09 -6.173103611217812e-05" pbc="T T T"
Sn       2.03644715       1.43998511       3.52723007       0.00000027       0.00000055       0.00000070
Sn       6.10934071       4.31995706      10.58168850      -0.00000090       0.00000136      -0.00000100
Co      -0.00000005      -0.00000019       0.00000027      -0.00000164      -0.00000068      -0.00000439
Te       2.00841480       1.42016240       7.05445983       0.00450132       0.00318081       0.00000092
Te       6.13737351       4.33977830       7.05446066      -0.00450076      -0.00318069       0.00000021
Te       5.10513348       1.42016310       5.26656737      -0.00225131       0.00318284       0.00389930
Te       3.04065478       4.33977812       8.84235175       0.00225108      -0.00318155      -0.00389744
Te       3.04065400       4.33977679       5.26656699       0.00225174      -0.00318459       0.00389903
Te       5.10513381       1.42016326       8.84235171      -0.00224984       0.00318193      -0.00389729
