9
Lattice="5.624335459256885 -1.2803567376428678e-07 3.2472115053942527 1.8747784007512012 5.302673646539213 3.247211444693799 -3.445916424103453e-08 -9.870890569474013e-08 6.4944230704734895" Properties=species:S:1:pos:R:3:forces:R:3 energy=-29.794010162353516 free_energy=-29.794010162353516 stress="3.6870820622425526e-05 6.047246614571122e-08 5.410471359823532e-08 6.047246614571122e-08 3.697406282299198e-05 -1.698352214418719e-08 5.410471359823532e-08 -1.698352214418719e-08 3.686541458591819e-05" pbc="T T T"
Sn       1.87477811       1.32566900       3.24721115      -0.00000292       0.00000211      -0.00000137
Sn       5.62433531       3.97700383       9.74163312       0.00000044      -0.00000348      -0.00000235
Cd      -0.00000014      -0.00000039      -0.00000056       0.00000228       0.00000248       0.00000395
S        2.05608820       1.45387644       6.49442333      -0.00334871      -0.00235899       0.00000167
S        5.44302520       3.84879884       6.49442411       0.00334272       0.00236221       0.00000454
S        4.59629095       1.45387389       5.02783671       0.00167403      -0.00236572      -0.00289825
S        2.90282237       3.84879932       7.96101045      -0.00167151       0.00236098       0.00289813
S        2.90282294       3.84879881       5.02783651      -0.00167219       0.00236581      -0.00289994
S        4.59629237       1.45387390       7.96100918       0.00167589      -0.00236538       0.00289372
