9
Lattice="4.33676630763183 1.949297864491969e-08 2.5038331383836225 1.445588695953664 4.088742869205666 2.50383329710028 -2.149649828131139e-07 4.2384204475079674e-08 5.00766664909752" Properties=species:S:1:pos:R:3:forces:R:3 energy=-48.993770599365234 free_energy=-48.993770599365234 stress="5.1427567086648196e-05 4.3341643163330446e-08 -2.002627397246215e-09 4.3341643163330446e-08 5.1692484703380615e-05 -9.864988825825094e-09 -2.002627397246215e-09 -9.864988825825094e-09 5.182755194255151e-05" pbc="T T T"
Sn       1.44558852       1.02218543       2.50383183      -0.00000609      -0.00001025      -0.00003394
Sn       4.33676568       3.06655663       7.51149852      -0.00000554      -0.00000844      -0.00003639
C       -0.00000465      -0.00000643      -0.00002822      -0.00009483      -0.00012825      -0.00056303
O        1.30367067       0.92183441       5.00766680      -0.00339496      -0.00240338       0.00000618
O        4.47869053       3.16691313       5.00766653       0.00352514       0.00249934       0.00000696
O        3.68492835       0.92183883       3.63285074       0.00163859      -0.00231421      -0.00283158
O        2.09741783       3.16691708       6.38249891      -0.00182182       0.00258017       0.00316942
O        2.09742595       3.16690532       3.63284969      -0.00165284       0.00234270      -0.00286162
O        3.68493624       0.92182724       6.38249727       0.00181073      -0.00255644       0.00314295
