9
Lattice="5.769426358680073 -3.4482934210966146e-08 3.3309798296751914 1.923142102682651 5.439467330115623 3.3309798025972412 -2.3764063579627664e-08 -4.996726167611034e-08 6.661959700510846" Properties=species:S:1:pos:R:3:forces:R:3 energy=-39.22175598144531 free_energy=-39.22175598144531 stress="-1.069011432264233e-05 2.3588246023109605e-08 7.201992335836849e-09 2.3588246023109605e-08 -1.0690698218240868e-05 3.643505275263692e-09 7.201992335836849e-09 3.643505275263692e-09 -1.0741391633928288e-05" pbc="T T T"
Sn       1.92314235       1.35986630       3.33097987       0.00000014       0.00000084      -0.00000011
Sn       5.76942636       4.07960044       9.99293913      -0.00000009      -0.00000015       0.00000015
Fe      -0.00000009       0.00000013      -0.00000016       0.00000417      -0.00000687       0.00000313
Se       1.86030765       1.31543627       6.66195970       0.00096691       0.00068229      -0.00000081
Se       5.83226066       4.12403122       6.66195980      -0.00096595      -0.00068346      -0.00000045
Se       4.83927237       1.31543601       4.94205347      -0.00048535       0.00068586       0.00084113
Se       2.85329612       4.12403123       8.38186585       0.00048272      -0.00068232      -0.00083666
Se       2.85329599       4.12403097       4.94205362       0.00048280      -0.00068200       0.00083488
Se       4.83927230       1.31543640       8.38186599      -0.00048549       0.00068571      -0.00084107
