9
Lattice="6.148543529341514 1.986025641527499e-07 3.549863190271559 2.049514806280754 5.7969026218705295 3.5498630010347054 1.5303953114820283e-07 -1.2355152313674795e-07 7.099726115470957" Properties=species:S:1:pos:R:3:forces:R:3 energy=-35.82709884643555 free_energy=-35.82709884643555 stress="-5.786285692011006e-05 3.29563540901745e-08 7.197602513997481e-08 3.29563540901745e-08 -5.790702562080696e-05 -1.0000734107507014e-07 7.197602513997481e-08 -1.0000734107507014e-07 -5.791822331957519e-05" pbc="T T T"
Sn       2.04951376       1.44922595       3.54986318      -0.00000215       0.00000111      -0.00000021
Sn       6.14854418       4.34767655      10.64958836       0.00000100      -0.00000044      -0.00000188
Fe       0.00000027      -0.00000022       0.00000029      -0.00000603       0.00000795      -0.00000774
Te       1.97095242       1.39367429       7.09972606       0.00272603       0.00192779       0.00000022
Te       6.22710612       4.40322836       7.09972655      -0.00272569      -0.00192805       0.00000041
Te       5.16306811       1.39367350       5.25675755      -0.00136667       0.00193350       0.00236880
Te       3.03499078       4.40322903       8.94269515       0.00136822      -0.00193468      -0.00236978
Te       3.03499046       4.40322862       5.25675818       0.00136381      -0.00192936       0.00236445
Te       5.16306785       1.39367472       8.94269393      -0.00135854       0.00192217      -0.00235425
