9
Lattice="5.432479968029948 6.566110686863872e-08 3.1364436173582404 1.8108266873946948 5.121791314189944 3.1364436702224374 -4.846928652764027e-08 3.04722212087766e-08 6.272887318667729" Properties=species:S:1:pos:R:3:forces:R:3 energy=-41.87250900268555 free_energy=-41.87250900268555 stress="1.2034591989618093e-08 1.0202713340845548e-08 2.845197322187687e-08 1.0202713340845548e-08 8.062169598588298e-08 -1.2609203459135188e-08 2.845197322187687e-08 -1.2609203459135188e-08 8.011744512259611e-08" pbc="T T T"
Sn       1.81082630       1.28044831       3.13644384      -0.00000076      -0.00000011      -0.00000025
Sn       5.43247969       3.84134346       9.40933120       0.00000017       0.00000027       0.00000036
Fe       0.00000019      -0.00000001      -0.00000013      -0.00000258      -0.00000212       0.00000294
S        1.77193334       1.25294598       6.27288754       0.00033924       0.00023910      -0.00000040
S        5.47137325       3.86884533       6.27288711      -0.00033447      -0.00023577       0.00000061
S        4.54651346       1.25294656       4.67098300      -0.00016864       0.00023696       0.00029039
S        2.69679367       3.86884493       7.87479142       0.00016889      -0.00023872      -0.00029272
S        2.69679367       3.86884499       4.67098316       0.00016609      -0.00023657       0.00029051
S        4.54651300       1.25294618       7.87479117      -0.00016774       0.00023675      -0.00029132
