9
Lattice="4.626779102735041 -6.881023309322211e-08 2.6712721109576605 1.542259635023194 4.362169128559148 2.671272112713196 -3.8876303432579545e-08 -2.5339611862180926e-08 5.34254428925106" Properties=species:S:1:pos:R:3:forces:R:3 energy=-52.27513122558594 free_energy=-52.27513122558594 stress="-8.093618362181587e-07 6.831876397939141e-09 5.324979568399613e-09 6.831876397939141e-09 -8.580719850215246e-07 9.725361849177716e-09 5.324979568399613e-09 9.725361849177716e-09 -9.693344509287272e-07" pbc="T T T"
Sn       1.54225969       1.09054186       2.67127212       0.00000012      -0.00000010      -0.00000048
Sn       4.62677908       3.27162716       8.01381607      -0.00000001      -0.00000090      -0.00000055
Fe      -0.00000091       0.00000055      -0.00000010      -0.00000737       0.00000546      -0.00000315
N        1.51484364       1.07115557       5.34254430       0.00002140       0.00001237      -0.00000017
N        4.65419551       3.29101343       5.34254445      -0.00001925      -0.00001237       0.00000235
N        3.86935771       1.07115572       3.98316496      -0.00000727       0.00001287       0.00001687
N        2.29968114       3.29101294       6.70192357       0.00000986      -0.00001466      -0.00001705
N        2.29968129       3.29101304       3.98316517       0.00001079      -0.00001517       0.00001723
N        3.86935761       1.07115582       6.70192378      -0.00000861       0.00001237      -0.00001448
