9
Lattice="4.5276575886247254 -5.465433265229279e-09 2.6140441670539483 1.509219166391484 4.268716480537447 2.614044209773036 -9.043335846158e-08 -1.1626026956981364e-08 5.228088490743054" Properties=species:S:1:pos:R:3:forces:R:3 energy=-46.686214447021484 free_energy=-46.686214447021484 stress="0.00021281656518112868 5.143610692925904e-08 2.0889455498718235e-08 5.143610692925904e-08 0.00021278891654219478 -7.953739356025835e-08 2.0889455498718235e-08 -7.953739356025835e-08 0.00021263239614199847" pbc="T T T"
Sn       1.50921912       1.06717904       2.61404417      -0.00000047      -0.00000011       0.00000083
Sn       4.52765754       3.20153744       7.84213270      -0.00000037      -0.00000009      -0.00000017
Ge       0.00000001       0.00000003      -0.00000003      -0.00000136       0.00000107       0.00000014
N        1.59570439       1.12833372       5.22808857      -0.00260115      -0.00183946       0.00000006
N        4.44117210       3.14038257       5.22808834       0.00260270       0.00184101      -0.00000056
N        3.72980512       1.12833349       3.99596481       0.00129902      -0.00183940      -0.00225246
N        2.30707141       3.14038296       6.46021211      -0.00129956       0.00183779       0.00225163
N        2.30707143       3.14038296       3.99596486      -0.00129956       0.00183868      -0.00225103
N        3.72980539       1.12833367       6.46021199       0.00130075      -0.00183982       0.00225151
