9
Lattice="5.8027252676455054 3.0766108637105136e-08 3.3502049218338974 1.934241770726216 5.470861844408176 3.350204946363491 2.4476210739760474e-08 4.7349810514434856e-08 6.700409801273711" Properties=species:S:1:pos:R:3:forces:R:3 energy=-33.823001861572266 free_energy=-33.823001861572266 stress="-0.0001330329687334597 7.87248755074188e-09 -8.876300583438024e-09 7.87248755074188e-09 -0.00013301668514031917 5.25020160679901e-09 -8.876300583438024e-09 5.25020160679901e-09 -0.00013295424287207425" pbc="T T T"
Sn       1.93424176       1.36771503       3.35020493       0.00000038      -0.00000124      -0.00000008
Sn       5.80272536       4.10314677      10.05061478      -0.00000045       0.00000010      -0.00000058
Ge      -0.00000000      -0.00000010      -0.00000007      -0.00000180       0.00000032      -0.00000437
Se       2.01846968       1.42727333       6.70040992       0.00293425       0.00207545      -0.00000014
Se       5.71849738       4.04358875       6.70040980      -0.00293286      -0.00207388       0.00000007
Se       4.79349040       1.42727336       5.09825083      -0.00146686       0.00207514       0.00254092
Se       2.94347673       4.04358869       8.30256885       0.00146547      -0.00207343      -0.00253893
Se       2.94347660       4.04358859       5.09825084       0.00146662      -0.00207550       0.00254159
Se       4.79349039       1.42727333       8.30256878      -0.00146484       0.00207307      -0.00253814
