9
Lattice="4.546096275047382 -1.7289753129498254e-07 2.6246896962558868 1.51536534225501 4.286100497513625 2.624689557261348 -9.460416362663335e-08 -2.371281433379206e-07 5.249379556371014" Properties=species:S:1:pos:R:3:forces:R:3 energy=-48.205543518066406 free_energy=-48.205543518066406 stress="0.0004927043919451535 5.1835971959235394e-08 8.125558537130928e-08 5.1835971959235394e-08 0.0004923627711832523 -4.664336472615105e-08 8.125558537130928e-08 -4.664336472615105e-08 0.0004924935637973249" pbc="T T T"
Sn       1.51536501       1.07152571       2.62469003      -0.00000160       0.00000545      -0.00000065
Sn       4.54609516       3.21457483       7.87406815      -0.00000759      -0.00000079      -0.00000905
Ge       0.00000018       0.00000023      -0.00000109      -0.00000415      -0.00000477       0.00002156
O        1.54907094       1.09535792       5.24937924       0.00190341       0.00134242      -0.00000006
O        4.51239128       3.19074112       5.24937993      -0.00189579      -0.00134385       0.00000341
O        3.77156108       1.09535816       3.96622356      -0.00094765       0.00134456       0.00164723
O        2.28990074       3.19074241       6.53253580       0.00095791      -0.00135219      -0.00165451
O        2.28990052       3.19074149       3.96622377       0.00095123      -0.00134194       0.00164545
O        3.77156139       1.09535788       6.53253584      -0.00095576       0.00135148      -0.00165474
