9
Lattice="6.284958328787908 -3.380165676088417e-07 3.6286224880091242 2.09498583590673 5.925515038501945 3.6286224100741347 -1.4633937430694214e-07 -1.9892805201133846e-07 7.257245229485511" Properties=species:S:1:pos:R:3:forces:R:3 energy=-30.32328987121582 free_energy=-30.32328987121582 stress="-9.83743211691035e-06 1.872464183705347e-09 2.1161616459153265e-08 1.872464183705347e-09 -9.827908797888085e-06 1.8413014446494458e-09 2.1161616459153265e-08 1.8413014446494458e-09 -9.863682862487622e-06" pbc="T T T"
Sn       2.09498837       1.48137823       3.62862118       0.00000720      -0.00000144      -0.00000493
Sn       6.28495787       4.44413594      10.88586892      -0.00000027       0.00000025       0.00000567
Ge      -0.00000020       0.00000012      -0.00000029       0.00000019      -0.00000043       0.00000068
Te       2.26675936       1.60284078       7.25724569      -0.00001076      -0.00000785       0.00000245
Te       6.11318446       4.32267418       7.25724430       0.00000916       0.00000863      -0.00000313
Te       5.15157832       1.60284094       5.59169324       0.00000503      -0.00000601      -0.00001058
Te       3.22836479       4.32267368       8.92279651      -0.00000681       0.00000626       0.00000963
Te       3.22836641       4.32267417       5.59169396      -0.00000338       0.00000966      -0.00001168
Te       5.15157654       1.60283996       8.92279698      -0.00000037      -0.00000902       0.00001185
