9
Lattice="5.81037664954748 -9.456532907811754e-08 3.3546225402199235 1.936792127829037 5.478075695086276 3.3546225394053377 -8.634521764251277e-08 -6.205284477697993e-08 6.709245229994097" Properties=species:S:1:pos:R:3:forces:R:3 energy=-28.429407119750977 free_energy=-28.429407119750977 stress="0.00014169022324495018 -6.209026626180503e-09 -1.3531892273377366e-09 -6.209026626180503e-09 0.00014167954213917255 1.4836928130534943e-08 -1.3531892273377366e-09 1.4836928130534943e-08 0.00014167340123094618" pbc="T T T"
Sn       1.93679275       1.36951875       3.35462244       0.00000116      -0.00000058      -0.00000064
Sn       5.81037623       4.10855663      10.06386776      -0.00000087       0.00000042       0.00000059
Hg      -0.00000010      -0.00000007       0.00000014       0.00000062      -0.00000053       0.00000045
Se       2.24526432       1.58764128       6.70924547      -0.00369355      -0.00261271       0.00000102
Se       5.50190425       3.89043410       6.70924482       0.00369453       0.00261224       0.00000010
Se       4.68774404       1.58764210       5.29907840       0.00184669      -0.00261292      -0.00320040
Se       3.05942436       3.89043380       8.11941147      -0.00184693       0.00261170       0.00319998
Se       3.05942478       3.89043415       5.29907839      -0.00184710       0.00261345      -0.00320052
Se       4.68774412       1.58764138       8.11941232       0.00184542      -0.00261105       0.00319940
