9
Lattice="4.500751841617901 8.78650448944622e-08 2.5985101531544808 1.5002507182863543 4.243349362057623 2.598510115787649 -5.6828840613838385e-08 -8.594891632120548e-08 5.197020404739448" Properties=species:S:1:pos:R:3:forces:R:3 energy=-53.967987060546875 free_energy=-53.967987060546875 stress="0.00030960471485741436 9.170435077976435e-08 9.563193970052453e-08 9.170435077976435e-08 0.00030955346301198006 1.4678535364964773e-07 9.563193970052453e-08 1.4678535364964773e-07 0.00030949045321904123" pbc="T T T"
Sn       1.50025127       1.06083823       2.59851018       0.00000230       0.00000641      -0.00000332
Sn       4.50075180       3.18251239       7.79553071       0.00000164       0.00000226       0.00000316
Hf       0.00000043       0.00000105      -0.00000002       0.00000292       0.00000193       0.00000428
N        1.72088724       1.21685080       5.19702040      -0.00481944      -0.00340675       0.00000214
N        4.28011879       3.02649994       5.19701880       0.00486556       0.00343089      -0.00001850
N        3.64030785       1.21684944       4.08884127       0.00240499      -0.00341746      -0.00418251
N        2.36069155       3.02649756       6.30520144      -0.00243960       0.00339499       0.00420723
N        2.36069324       3.02649874       4.08883968      -0.00242129       0.00341279      -0.00420416
N        3.64030787       1.21684932       6.30520027       0.00240291      -0.00342504       0.00419203
