9
Lattice="6.377595992979988 9.191652966242377e-08 3.682106591812395 2.125865404404503 6.0128550967973124 3.6821066147595567 1.1518716465626585e-08 3.624941586475569e-08 7.364213163673811" Properties=species:S:1:pos:R:3:forces:R:3 energy=-25.451061248779297 free_energy=-25.451061248779297 stress="2.9063565307296813e-05 3.0840766385153984e-08 3.752769206499806e-09 3.0840766385153984e-08 2.905188375734724e-05 -2.4922492958268094e-09 3.752769206499806e-09 -2.4922492958268094e-09 2.9043394533800893e-05" pbc="T T T"
Sn       2.12586510       1.50321318       3.68210631      -0.00000114      -0.00000118      -0.00000182
Sn       6.37759669       4.50964172      11.04631963       0.00000445       0.00000087      -0.00000005
Hg       0.00000039       0.00000087      -0.00000091      -0.00000170      -0.00000316       0.00000451
Te       2.36783625       1.67431347       7.36421336      -0.00049508      -0.00034903       0.00000122
Te       6.13562509       4.33854192       7.36421328       0.00049603       0.00035107       0.00000028
Te       5.19367849       1.67431240       5.73271267       0.00024948      -0.00035171      -0.00042792
Te       3.30978236       4.33854290       8.99571397      -0.00024799       0.00034904       0.00042668
Te       3.30978275       4.33854255       5.73271318      -0.00024959       0.00035271      -0.00042826
Te       5.19367853       1.67431185       8.99571402       0.00024550      -0.00034872       0.00042526
