9
Lattice="5.6313144892257405 1.0786825814631259e-07 3.2512408398881725 1.877104910158878 5.309254418638385 3.251240876749933 -6.911237648028207e-08 -3.7235658357788327e-09 6.502481799482437" Properties=species:S:1:pos:R:3:forces:R:3 energy=-29.069297790527344 free_energy=-29.069297790527344 stress="0.000196845707250759 -6.33974437391771e-08 2.164541657023733e-09 -6.33974437391771e-08 0.00019685187726281583 3.431663486708203e-08 2.164541657023733e-09 3.431663486708203e-08 0.0001968790020328015" pbc="T T T"
Sn       1.87710518       1.32731319       3.25124118       0.00000139      -0.00000170      -0.00000065
Sn       5.63131470       3.98193952       9.75372426       0.00000172      -0.00000471       0.00000295
Hg       0.00000084      -0.00000010      -0.00000205      -0.00000712      -0.00000048       0.00001961
S        2.05282095       1.45156440       6.50248224       0.00666636       0.00471678       0.00000212
S        5.45559773       3.85769028       6.50248100      -0.00666291      -0.00471181      -0.00000302
S        4.60490332       1.45156631       5.02903720      -0.00332828       0.00471324       0.00576475
S        2.90351582       3.85769056       7.97592617       0.00333481      -0.00471628      -0.00577852
S        2.90351609       3.85768946       5.02903710       0.00333117      -0.00471228       0.00576827
S        4.60490262       1.45156452       7.97592688      -0.00333694       0.00471696      -0.00577566
