9
Lattice="4.704809017858706 -6.585009843000225e-08 2.716322780492053 1.5682695503335287 4.43573708321493 2.7163228847649727 -1.5765395402344636e-07 1.622954389344531e-08 5.4326458340488" Properties=species:S:1:pos:R:3:forces:R:3 energy=-36.597679138183594 free_energy=-36.597679138183594 stress="0.00040694407653063536 1.853129845130752e-07 1.1633427021706666e-07 1.853129845130752e-07 0.0004069230053573847 5.328927343839496e-08 1.1633427021706666e-07 5.328927343839496e-08 0.0004072799056302756" pbc="T T T"
Sn       1.56827351       1.10893523       2.71632310       0.00002797       0.00000777       0.00000231
Sn       4.70480929       3.32680098       8.14896635       0.00000260      -0.00001321      -0.00001448
Hg       0.00000008       0.00000001       0.00000022      -0.00000076      -0.00000676      -0.00000026
O        1.69782464       1.20054453       5.43264536       0.00093877       0.00066927      -0.00000339
O        4.57525255       3.23519371       5.43264716      -0.00094330      -0.00066090       0.00000814
O        3.85589516       1.20054417       4.18668147      -0.00048080       0.00067303       0.00081372
O        2.41718201       3.23519234       6.67860971       0.00046891      -0.00067174      -0.00080848
O        2.41718118       3.23519236       4.18668259       0.00046533      -0.00066972       0.00081235
O        3.85589518       1.20054469       6.67861012      -0.00047889       0.00067195      -0.00080967
