9
Lattice="5.827143816850319 -3.168351927505742e-08 3.3643030807287784 1.942381228528991 5.493883895149128 3.364303104774737 -4.7916442911534386e-08 -4.4318743074285576e-09 6.728606244451246" Properties=species:S:1:pos:R:3:forces:R:3 energy=-31.523685455322266 free_energy=-31.523685455322266 stress="3.69149756807019e-06 4.8508912442457586e-09 9.021457358926455e-09 4.8508912442457586e-09 3.6699102565762587e-06 -1.7799822060737824e-08 9.021457358926455e-09 -1.7799822060737824e-08 3.65440587302146e-06" pbc="T T T"
Sn       1.94238172       1.37347085       3.36430311       0.00000170      -0.00000054      -0.00000010
Sn       5.82714357       4.12041276      10.09290865      -0.00000102      -0.00000044      -0.00000138
In      -0.00000013      -0.00000027       0.00000018       0.00000147       0.00000112       0.00000029
Se       2.21609904       1.56701850       6.72860618      -0.00201717      -0.00142647      -0.00000014
Se       5.55342626       3.92686589       6.72860682       0.00201572       0.00142670       0.00000050
Se       4.71909414       1.56701825       5.28350074       0.00100750      -0.00142636      -0.00174654
Se       3.05043090       3.92686499       8.17371156      -0.00100745       0.00142584       0.00174630
Se       3.05043048       3.92686553       5.28350098      -0.00100838       0.00142559      -0.00174616
Se       4.71909398       1.56701896       8.17371148       0.00100753      -0.00142548       0.00174727
