9
Lattice="5.656360993345089 7.754737127259324e-08 3.265701545352592 1.8854536599816896 5.332868345791285 3.265701679723494 -4.490540431860116e-08 1.3281715427441974e-07 6.5314031684836396" Properties=species:S:1:pos:R:3:forces:R:3 energy=-33.16780471801758 free_energy=-33.16780471801758 stress="-6.052153480595734e-07 -2.006104971030709e-08 4.028472133654759e-08 -2.006104971030709e-08 -6.131699024081172e-07 -1.2170205287986846e-08 4.028472133654759e-08 -1.2170205287986846e-08 -6.053075480849657e-07" pbc="T T T"
Sn       1.88545397       1.33321612       3.26570145       0.00000215      -0.00000120      -0.00000013
Sn       5.65636082       3.99965185       9.79710444      -0.00000216       0.00000042      -0.00000030
In       0.00000017      -0.00000059       0.00000005      -0.00000379       0.00000632      -0.00000017
S        2.06556193       1.46057230       6.53140296      -0.00045541      -0.00032532      -0.00000047
S        5.47625306       3.87229597       6.53140255       0.00045541       0.00032243      -0.00000318
S        4.62357972       1.46057280       5.05453017       0.00022805      -0.00032534      -0.00039938
S        2.91823564       3.87229644       8.00827646      -0.00022298       0.00032303       0.00039452
S        2.91823377       3.87229643       5.05453131      -0.00022827       0.00032382      -0.00038961
S        4.62357947       1.46057293       8.00827615       0.00022689      -0.00032432       0.00039855
