9
Lattice="6.423262138894016 -4.300972393533071e-09 3.708472104301476 2.141087351413488 6.0559095088391235 3.7084721461527117 -8.067240831448103e-08 -5.7869295959497456e-09 7.4169443483316835" Properties=species:S:1:pos:R:3:forces:R:3 energy=-28.58689308166504 free_energy=-28.58689308166504 stress="-0.00010766309424070641 -2.6683242282388164e-09 -5.046756346160919e-09 -2.6683242282388164e-09 -0.00010765838669613004 8.527579531403262e-09 -5.046756346160919e-09 8.527579531403262e-09 -0.00010766318155219778" pbc="T T T"
Sn       2.14108727       1.51397707       3.70847291      -0.00000019      -0.00000074       0.00000390
Sn       6.42326224       4.54193223      11.12541544       0.00000026       0.00000016      -0.00000314
In      -0.00000008       0.00000004       0.00000007       0.00000216      -0.00000005       0.00000092
Te       2.35360902       1.66425296       7.41694412       0.00119630       0.00084566      -0.00000123
Te       6.21074049       4.39165677       7.41694500      -0.00119880      -0.00084783       0.00000166
Te       5.24645707       1.66425278       5.74675705      -0.00059891       0.00084564       0.00103639
Te       3.31789197       4.39165702       9.08713123       0.00059941      -0.00084470      -0.00103641
Te       3.31789149       4.39165643       5.74675737       0.00059761      -0.00084589       0.00103636
Te       5.24645817       1.66425268       9.08713123      -0.00059785       0.00084776      -0.00103849
