9
Lattice="4.757331881432974 -2.547059595962311e-08 2.7466468324579107 1.5857773020544979 4.485255371934206 2.7466467765864455 2.4616224275737093e-08 -5.102201019024515e-08 5.493293622279289" Properties=species:S:1:pos:R:3:forces:R:3 energy=-42.158103942871094 free_energy=-42.158103942871094 stress="2.9574391646747245e-06 -1.5114572704533202e-08 2.1041753228701054e-08 -1.5114572704533202e-08 2.8809406558139017e-06 -1.8823731906536523e-08 2.1041753228701054e-08 -1.8823731906536523e-08 3.0231517484935466e-06" pbc="T T T"
Sn       1.58577732       1.12131461       2.74664627      -0.00000029       0.00000311      -0.00000458
Sn       4.75733138       3.36394083       8.23993971      -0.00000271      -0.00000237      -0.00000424
In       0.00000007       0.00000011       0.00000015      -0.00000122      -0.00000221      -0.00000511
O        1.75183303       1.23873297       5.49329351       0.00158000       0.00111735      -0.00000089
O        4.59127622       3.24652187       5.49329388      -0.00157624      -0.00111777       0.00000299
O        3.88141575       1.23873308       4.26377882      -0.00078791       0.00111991       0.00136894
O        2.46169420       3.24652179       6.72280881       0.00078905      -0.00111860      -0.00136161
O        2.46169388       3.24652245       4.26377906       0.00078887      -0.00111580       0.00136799
O        3.88141500       1.23873344       6.72280867      -0.00078937       0.00111622      -0.00136328
