9
Lattice="4.713273716821637 9.954877476961954e-09 2.7212098775067397 1.5710912635638417 4.443717165135093 2.721209851114193 3.211788350913842e-08 -9.613370186872047e-09 5.442419699383686" Properties=species:S:1:pos:R:3:forces:R:3 energy=-54.970516204833984 free_energy=-54.970516204833984 stress="-0.00019300919666420668 1.5572406653063808e-07 -3.867074127583692e-08 1.5572406653063808e-07 -0.00019293214427307248 -2.1685041318164622e-08 -3.867074127583692e-08 -2.1685041318164622e-08 -0.00019316682300996035" pbc="T T T"
Sn       1.57109134       1.11092949       2.72120990       0.00000344      -0.00000141      -0.00000052
Sn       4.71327380       3.33278798       8.16362961       0.00000086       0.00000073       0.00000135
Mn      -0.00000030      -0.00000040      -0.00000017       0.00000215      -0.00000205      -0.00000178
O        1.52956930       1.08156879       5.44241970       0.00270712       0.00191092       0.00000211
O        4.75479580       3.36214854       5.44241970      -0.00271022      -0.00191641       0.00000221
O        3.94848914       1.08156864       4.04585560      -0.00135368       0.00191545       0.00234580
O        2.33587569       3.36214852       6.83898387       0.00135159      -0.00190938      -0.00234044
O        2.33587606       3.36214848       4.04585559       0.00134993      -0.00191140       0.00233781
O        3.94848924       1.08156857       6.83898384      -0.00135189       0.00191402      -0.00234723
