9
Lattice="5.511026164967258 -1.472246763044874e-07 3.1817923064090095 1.8370086345728107 5.195845005476743 3.181792216824176 -1.2015454153611093e-07 -1.9468063013504974e-07 6.363584820931776" Properties=species:S:1:pos:R:3:forces:R:3 energy=-42.9820556640625 free_energy=-42.9820556640625 stress="-1.0677626960386988e-05 1.8536843171546025e-08 -2.0138903877864323e-08 1.8536843171546025e-08 -1.0669903531379532e-05 2.3533383242124728e-08 -2.0138903877864323e-08 2.3533383242124728e-08 -1.0689085684134625e-05" pbc="T T T"
Sn       1.83700923       1.29896147       3.18179227       0.00000032       0.00000058       0.00000007
Sn       5.51102632       3.89688379       9.54537740       0.00000040       0.00000027      -0.00000018
Mn      -0.00000038      -0.00000025      -0.00000036       0.00000326       0.00000070       0.00000327
S        1.80285354       1.27480957       6.36358477       0.00051099       0.00036097      -0.00000078
S        5.54518114       3.92103465       6.36358438      -0.00051308      -0.00036332       0.00000068
S        4.60959950       1.27480979       4.74310907      -0.00025573       0.00036135       0.00044370
S        2.73843483       3.92103483       7.98406025       0.00025591      -0.00036284      -0.00044364
S        2.73843544       3.92103537       4.74310902       0.00025553      -0.00036243       0.00044331
S        4.60959907       1.27480928       7.98406063      -0.00025731       0.00036436      -0.00044644
