9
Lattice="4.520122751254535 -2.784816900441575e-08 2.609693956452909 1.506707534565104 4.261612489327863 2.6096939961703796 -6.269961570636173e-09 4.4210235772984555e-08 5.219387923765694" Properties=species:S:1:pos:R:3:forces:R:3 energy=-42.86735916137695 free_energy=-42.86735916137695 stress="7.660590199520811e-05 1.5014227017218218e-07 -1.064970689412803e-08 1.5014227017218218e-07 7.688997720833868e-05 6.691348630738503e-08 -1.064970689412803e-08 6.691348630738503e-08 7.675431697862223e-05" pbc="T T T"
Sn       1.50670933       1.06540239       2.60969229       0.00001088      -0.00000612      -0.00001499
Sn       4.52012178       3.19620994       7.82908012      -0.00000478       0.00000206      -0.00001743
Mg      -0.00000002      -0.00000022      -0.00000052       0.00000229       0.00000345       0.00000371
O        1.60174371       1.13260317       5.21938841       0.00152704       0.00107673       0.00000517
O        4.42508651       3.12900956       5.21938871      -0.00153092      -0.00107801       0.00000660
O        3.71925055       1.13260334       3.99684440      -0.00076762       0.00107822       0.00132433
O        2.30757991       3.12900845       6.44193269       0.00077012      -0.00108340      -0.00131667
O        2.30757912       3.12900981       3.99684505       0.00076289      -0.00107613       0.00132897
O        3.71925025       1.13260357       6.44193256      -0.00076950       0.00108314      -0.00132036
