9
Lattice="5.801421531492636 -1.0158250854842173e-07 3.3494523087002674 1.9338071109327553 5.469632693393833 3.3494522575330286 -1.2390819256088335e-08 -7.142846405913539e-08 6.698904638862122" Properties=species:S:1:pos:R:3:forces:R:3 energy=-39.98397445678711 free_energy=-39.98397445678711 stress="-2.8385757104842924e-05 -7.504647570044654e-09 1.3540628174268932e-08 -7.504647570044654e-09 -2.8396761990734376e-05 -1.4980638951556102e-08 1.3540628174268932e-08 -1.4980638951556102e-08 -2.8385891710058786e-05" pbc="T T T"
Sn       1.93380715       1.36740773       3.34945262       0.00000052       0.00000017       0.00000020
Sn       5.80142161       4.10222450      10.04835642      -0.00000014       0.00000037      -0.00000037
Mn      -0.00000023      -0.00000009       0.00000033       0.00000095       0.00000322      -0.00000451
Se       1.90635517       1.34799654       6.69890451       0.00163054       0.00115329      -0.00000025
Se       5.82887348       4.12163584       6.69890464      -0.00163352      -0.00115547       0.00000037
Se       4.84824372       1.34799665       5.00040433      -0.00081718       0.00115448       0.00141418
Se       2.88698494       4.12163616       8.39740487       0.00081657      -0.00115359      -0.00141430
Se       2.88698484       4.12163590       5.00040438       0.00081685      -0.00115481       0.00141478
Se       4.84824384       1.34799686       8.39740464      -0.00081477       0.00115237      -0.00141025
