9
Lattice="5.738978934525961 -4.804192715544205e-08 3.3134012387285527 1.9129929582066698 5.410761226292266 3.3134011948630864 2.71190507239271e-08 -3.4547929893844395e-08 6.626802430485486" Properties=species:S:1:pos:R:3:forces:R:3 energy=-30.55919647216797 free_energy=-30.55919647216797 stress="0.0003091749094892293 -6.961300158536687e-08 -1.7166222221476346e-08 -6.961300158536687e-08 0.0003092332335654646 1.6141347813913853e-08 -1.7166222221476346e-08 1.6141347813913853e-08 0.00030913035152480006" pbc="T T T"
Sn       1.91299359       1.35269057       3.31340124       0.00000080       0.00000036       0.00000028
Sn       5.73897859       4.05806992       9.94020365      -0.00000105      -0.00000081      -0.00000038
Mg      -0.00000021      -0.00000012      -0.00000027       0.00000128       0.00000082       0.00000153
Se       2.16364487       1.52992818       6.62680245      -0.00075517      -0.00053324      -0.00000041
Se       5.48832707       3.88083358       6.62680257       0.00075397       0.00053309      -0.00000103
Se       4.65715598       1.52992824       5.18717217       0.00037709      -0.00053313      -0.00065558
Se       2.99481587       3.88083269       8.06643223      -0.00037688       0.00053323       0.00065508
Se       2.99481571       3.88083284       5.18717259      -0.00037616       0.00053234      -0.00065509
Se       4.65715619       1.52992862       8.06643287       0.00037615      -0.00053272       0.00065558
