9
Lattice="4.671037887601664 2.234095815601712e-08 2.6968249001757725 1.5570126269761762 4.403896785005169 2.696824940511168 -7.430635197454764e-08 -3.1419812309513775e-09 5.393649929053936" Properties=species:S:1:pos:R:3:forces:R:3 energy=-55.61008834838867 free_energy=-55.61008834838867 stress="-0.0006661373190581799 -9.876625739480005e-08 2.153568168239417e-08 -9.876625739480005e-08 -0.0006660742219537497 6.443896438668162e-08 2.153568168239417e-08 6.443896438668162e-08 -0.0006658843485638499" pbc="T T T"
Sn       1.55701255       1.10097385       2.69682554      -0.00000118      -0.00000145       0.00000259
Sn       4.67103809       3.30292255       8.09047448       0.00000243      -0.00000127      -0.00000097
Mo       0.00000001      -0.00000005       0.00000010       0.00000094       0.00000123      -0.00000332
N        1.62858168       1.15158134       5.39364960      -0.00044692      -0.00031579      -0.00000287
N        4.59946867       3.25231575       5.39364998       0.00044477       0.00031662       0.00000281
N        3.85674693       1.15158141       4.10721803       0.00022477      -0.00031853      -0.00039017
N        2.37130335       3.25231573       6.68008134      -0.00022537       0.00032020       0.00038946
N        2.37130345       3.25231545       4.10721805      -0.00022572       0.00031698      -0.00038826
N        3.85674696       1.15158127       6.68008140       0.00022691      -0.00031877       0.00039124
