9
Lattice="6.349580877998723 1.1086286343193282e-07 3.6659322774203815 2.116527154939066 5.986442198708556 3.665932119658897 3.420824663520932e-08 -1.6902872477547518e-07 7.331864495590376" Properties=species:S:1:pos:R:3:forces:R:3 energy=-27.91937255859375 free_energy=-27.91937255859375 stress="0.00014987558824941516 -3.425641281751268e-08 1.4702878026184862e-08 -3.425641281751268e-08 0.00014993257354944944 1.190522880278877e-08 1.4702878026184862e-08 1.190522880278877e-08 0.00014985543384682387" pbc="T T T"
Sn       2.11652918       1.49661286       3.66593192       0.00000949       0.00000915      -0.00000137
Sn       6.34958052       4.48983023      10.99779766      -0.00000342      -0.00000656       0.00000445
Mg      -0.00000015      -0.00000003      -0.00000076       0.00000032      -0.00000088       0.00000429
Te       2.33595162       1.65176789       7.33186488      -0.00765310      -0.00540881       0.00000111
Te       6.13015668       4.33467433       7.33186332       0.00765198       0.00540838      -0.00000373
Te       5.18160397       1.65176870       5.68892489       0.00382419      -0.00540635      -0.00663247
Te       3.28450309       4.33467292       8.97480410      -0.00382632       0.00540423       0.00663055
Te       3.28450356       4.33467355       5.68892539      -0.00382521       0.00540756      -0.00663237
Te       5.18160382       1.65176806       8.97480424       0.00382208      -0.00540672       0.00662946
