9
Lattice="6.120631177519222 1.7496914361788245e-07 3.533747929895755 2.0402104713597833 5.770586855757315 3.5337480790411213 -2.3128180960594489e-07 1.9124023887142813e-08 7.067496260383558" Properties=species:S:1:pos:R:3:forces:R:3 energy=-36.111305236816406 free_energy=-36.111305236816406 stress="-6.996709544182522e-06 -3.7096270943948184e-08 -2.1221387314085405e-08 -3.7096270943948184e-08 -6.965444299567025e-06 2.1350855305968253e-08 -2.1221387314085405e-08 2.1350855305968253e-08 -6.9407301452883985e-06" pbc="T T T"
Sn       2.04021002       1.44264661       3.53374812      -0.00000123      -0.00000042       0.00000011
Sn       6.12063127       4.32794085      10.60124571       0.00000122       0.00000133       0.00000376
Mn       0.00000049      -0.00000021       0.00000095      -0.00000657       0.00000154      -0.00001198
Te       2.04474718       1.44585485       7.06749595       0.00031629       0.00022337      -0.00000021
Te       6.11609416       4.32473223       7.06749526      -0.00031349      -0.00022073      -0.00000130
Te       5.09825733       1.44585535       5.30455201      -0.00015512       0.00022030       0.00026986
Te       3.06258384       4.32473156       8.83043989       0.00015342      -0.00021796      -0.00026703
Te       3.06258430       4.32473200       5.30455125       0.00015917      -0.00022407       0.00027424
Te       5.09825712       1.44585501       8.83043989      -0.00015359       0.00021666      -0.00026739
