9
Lattice="5.59960741111563 1.28570933457702e-07 3.2329350860630997 1.8665359204745864 5.279360811655861 3.2329350937680195 4.943057577129228e-08 4.438926427812159e-08 6.465870086509939" Properties=species:S:1:pos:R:3:forces:R:3 energy=-32.0201301574707 free_energy=-32.0201301574707 stress="3.412572914385237e-05 3.886132304842249e-08 -1.526462511947102e-08 3.886132304842249e-08 3.410817953408696e-05 -5.669211211589698e-10 -1.526462511947102e-08 -5.669211211589698e-10 3.411550642340444e-05" pbc="T T T"
Sn       1.86653546       1.31983980       3.23293505      -0.00000131      -0.00000274       0.00000144
Sn       5.59960776       3.95952033       9.69880659       0.00000122      -0.00000050       0.00000467
Mg      -0.00000017      -0.00000011       0.00000050       0.00000029       0.00000004      -0.00000391
S        2.00284466       1.41622509       6.46587000      -0.00059931      -0.00042325      -0.00000119
S        5.46329854       3.86313609       6.46586963       0.00060196       0.00042437      -0.00000358
S        4.59818572       1.41622498       4.96744942       0.00029914      -0.00042227      -0.00051721
S        2.86795789       3.86313621       7.96429012      -0.00030252       0.00042370       0.00052101
S        2.86795835       3.86313650       4.96744958      -0.00030029       0.00042480      -0.00051862
S        4.59818533       1.41622502       7.96429021       0.00030089      -0.00042433       0.00051749
