9
Lattice="4.6314992101199115 7.914763693938141e-08 2.6739972390114293 1.5438331311310927 4.3666193005463585 2.673997262446071 3.5733033349753225e-08 5.39685083007128e-08 5.3479944161314314" Properties=species:S:1:pos:R:3:forces:R:3 energy=-54.369667053222656 free_energy=-54.369667053222656 stress="1.8566124708740972e-06 -1.0020222873663442e-07 1.818290656929733e-10 -1.0020222873663442e-07 1.7885098486658535e-06 1.9237399229155017e-08 1.818290656929733e-10 1.9237399229155017e-08 1.954056415343075e-06" pbc="T T T"
Sn       1.54383349       1.09165537       2.67399718       0.00000375       0.00000105      -0.00000117
Sn       4.63149910       3.27496444       8.02199201      -0.00000076       0.00000188       0.00000156
Nb       0.00000004       0.00000002      -0.00000011       0.00000101      -0.00000058       0.00000029
N        1.68840271       1.19388097       5.34799420      -0.00134397      -0.00094861      -0.00000000
N        4.48692997       3.17273845       5.34799392       0.00134265       0.00094849      -0.00000404
N        3.78729778       1.19388112       4.13619687       0.00067163      -0.00094914      -0.00116241
N        2.38803474       3.17273789       6.55979236      -0.00067019       0.00094420       0.00116551
N        2.38803447       3.17273837       4.13619712      -0.00067139       0.00094974      -0.00116271
N        3.78729718       1.19388118       6.55979212       0.00066692      -0.00094783       0.00116378
