9
Lattice="5.3968171817062895 4.7551450399152705e-09 3.115854098332258 1.7989390950362543 5.088168149801874 3.11585404639793 -2.6212075236630672e-08 -8.214106453812077e-08 6.231708242065212" Properties=species:S:1:pos:R:3:forces:R:3 energy=-38.17417907714844 free_energy=-38.17417907714844 stress="-9.100956958718598e-05 5.172141470666247e-08 8.00100252718039e-09 5.172141470666247e-08 -9.10561066120863e-05 2.9154055170010906e-08 8.00100252718039e-09 2.9154055170010906e-08 -9.107044752454385e-05" pbc="T T T"
Sn       1.79893944       1.27204219       3.11585438      -0.00000077      -0.00000050      -0.00000083
Sn       5.39681697       3.81612576       9.34756181       0.00000101       0.00000013       0.00000045
Ni      -0.00000020       0.00000010      -0.00000018      -0.00000138       0.00000194       0.00000706
S        1.77781624       1.25710585       6.23170801       0.00157535       0.00111435       0.00000017
S        5.41794024       3.83106211       6.23170850      -0.00157714      -0.00111412       0.00000024
S        4.50790881       1.25710608       4.65548823      -0.00078738       0.00111382       0.00136434
S        2.68784719       3.83106202       7.80792839       0.00079004      -0.00111678      -0.00136973
S        2.68784723       3.83106212       4.65548773       0.00078952      -0.00111523       0.00136693
S        4.50790899       1.25710594       7.80792870      -0.00078903       0.00111662      -0.00136864
