9
Lattice="6.104875542599599 2.21200271999565e-07 3.5246514034626646 2.03495866633559 5.755732044758208 3.5246515011743633 -3.8202284056298764e-08 9.265882099182558e-08 7.049302873093614" Properties=species:S:1:pos:R:3:forces:R:3 energy=-32.71849060058594 free_energy=-32.71849060058594 stress="-2.6797079044627026e-05 6.670108909645478e-09 -3.6490810373379645e-09 6.670108909645478e-09 -2.6823739972314797e-05 9.28714971593081e-09 -3.6490810373379645e-09 9.28714971593081e-09 -2.6846561013371684e-05" pbc="T T T"
Sn       2.03495667       1.43893437       3.52465179      -0.00000358       0.00000243       0.00000064
Sn       6.10487581       4.31679918      10.57395312       0.00000114      -0.00000039      -0.00000299
Ni      -0.00000033       0.00000029       0.00000012       0.00000274      -0.00000468      -0.00000301
Te       2.07788357       1.46928612       7.04930286       0.00026242       0.00018661      -0.00000062
Te       6.06195111       4.28644521       7.04930389      -0.00026107      -0.00018757       0.00000176
Te       5.06593440       1.46928547       5.32415168      -0.00013225       0.00018735       0.00023030
Te       3.07390078       4.28644603       8.77445439       0.00013015      -0.00018459      -0.00022531
Te       3.07389962       4.28644652       5.32415129       0.00013060      -0.00018737       0.00022925
Te       5.06593518       1.46928631       8.77445397      -0.00013014       0.00018820      -0.00022997
