9
Lattice="5.587452595319237 7.32095640305042e-08 3.225917346957161 1.862484192854024 5.267901104032142 3.2259174761825635 -6.514203024952988e-08 1.1220583110648464e-07 6.4518348067436095" Properties=species:S:1:pos:R:3:forces:R:3 energy=-45.49782943725586 free_energy=-45.49782943725586 stress="-9.746821160661057e-05 -2.9470792028973847e-08 -4.2786631127000874e-08 -2.9470792028973847e-08 -9.745031275087968e-05 4.948914877900279e-08 -4.2786631127000874e-08 4.948914877900279e-08 -9.739546658238396e-05" pbc="T T T"
Sn       1.86248454       1.31697553       3.22591702       0.00000038      -0.00000011      -0.00000034
Sn       5.58745253       3.95092606       9.67775224       0.00000009       0.00000009      -0.00000009
Nb      -0.00000004       0.00000004      -0.00000022       0.00000159      -0.00000114       0.00000019
S        1.93380148       1.36740418       6.45183478      -0.00137991      -0.00097549       0.00000025
S        5.51613516       3.90049720       6.45183480       0.00137797       0.00097488      -0.00000074
S        4.62055177       1.36740421       4.90063882       0.00069255      -0.00097844      -0.00119841
S        2.82938496       3.90049674       8.00303106      -0.00069194       0.00097825       0.00119890
S        2.82938477       3.90049691       4.90063882      -0.00068963       0.00097586      -0.00119436
S        4.62055159       1.36740432       8.00303115       0.00068884      -0.00097394       0.00119489
