9
Lattice="5.867546215710744 -6.069715876464844e-08 3.387629292634979 1.9558487402140787 5.531975457164464 3.3876291906696143 2.4213533837151472e-08 -1.0775994043791864e-07 6.775258543330876" Properties=species:S:1:pos:R:3:forces:R:3 energy=-41.75935363769531 free_energy=-41.75935363769531 stress="3.491184179438278e-05 5.8551059112232906e-08 1.151728934445373e-08 5.8551059112232906e-08 3.486702189547941e-05 -2.160694378972039e-08 1.151728934445373e-08 -2.160694378972039e-08 3.482682222966105e-05" pbc="T T T"
Sn       1.95584901       1.38299440       3.38762912       0.00000177       0.00000057      -0.00000083
Sn       5.86754595       4.14898098      10.16288754      -0.00000024      -0.00000132      -0.00000057
Nb       0.00000033      -0.00000006       0.00000003      -0.00000373       0.00000099      -0.00000042
Se       2.03572279       1.43947371       6.77525863      -0.00837708      -0.00592203       0.00000019
Se       5.78767208       4.09250169       6.77525843       0.00837858       0.00592352       0.00000023
Se       4.84968467       1.43947301       5.15061670       0.00418556      -0.00591981      -0.00725081
Se       2.97371032       4.09250188       8.39990049      -0.00418529       0.00591934       0.00724981
Se       2.97371031       4.09250191       5.15061664      -0.00418604       0.00592014      -0.00725081
Se       4.84968446       1.43947361       8.39990059       0.00418640      -0.00592141       0.00725321
