9
Lattice="6.330363075528552 -2.1782029343830393e-07 3.654837023827413 2.1101208595588847 5.968323632043345 3.6548369549859223 7.970798989133241e-08 -2.7951187267510644e-08 7.309673909596519" Properties=species:S:1:pos:R:3:forces:R:3 energy=-37.33348846435547 free_energy=-37.33348846435547 stress="-0.00024233668227680027 -6.860425116883562e-08 -2.4293069778025256e-09 -6.860425116883562e-08 -0.00024227678659372032 -6.945339858788202e-09 -2.4293069778025256e-09 -6.945339858788202e-09 -0.0002422350225970149" pbc="T T T"
Sn       2.11012083       1.49208012       3.65483718      -0.00000124      -0.00000271       0.00000091
Sn       6.33036305       4.47624227      10.96451136       0.00000053      -0.00000174       0.00000082
Nb      -0.00000024      -0.00000051       0.00000054      -0.00000007       0.00000307      -0.00000473
Te       2.22175144       1.57101560       7.30967387       0.00439486       0.00310871      -0.00000054
Te       6.21873258       4.39730826       7.30967330      -0.00439681      -0.00310842      -0.00000077
Te       5.21948718       1.57101578       5.57893065      -0.00219470       0.00310478       0.00380164
Te       3.22099702       4.39730795       9.04041691       0.00219447      -0.00310212      -0.00380151
Te       3.22099713       4.39730801       5.57893082       0.00219518      -0.00310415       0.00380325
Te       5.21948707       1.57101604       9.04041693      -0.00219219       0.00310257      -0.00379905
