9
Lattice="4.616165828221244 8.170217932237447e-08 2.665144595094879 1.5387220403039361 4.35216292310106 2.6651445595290317 8.056515146064919e-08 1.3409072657217197e-08 5.330289050646846" Properties=species:S:1:pos:R:3:forces:R:3 energy=-47.60004425048828 free_energy=-47.60004425048828 stress="0.0005768823903053999 -1.4380925783541443e-08 6.639101268746117e-09 -1.4380925783541443e-08 0.0005769465351477265 1.8333548013060863e-08 6.639101268746117e-09 1.8333548013060863e-08 0.0005769665003754199" pbc="T T T"
Sn       1.53872232       1.08804062       2.66514446       0.00000082      -0.00000100      -0.00000068
Sn       4.61616566       3.26412251       7.99543391      -0.00000191      -0.00000036       0.00000123
Ni       0.00000004      -0.00000007      -0.00000012      -0.00000013       0.00000026       0.00000126
N        1.53078852       1.08243062       5.33028933      -0.00593042      -0.00419530       0.00000246
N        4.62409924       3.26973220       5.33028894       0.00593048       0.00419584      -0.00000156
N        3.85077157       1.08243074       3.99084598       0.00296484      -0.00419378      -0.00513726
N        2.30411623       3.26973249       6.66973221      -0.00296436       0.00419423       0.00513497
N        2.30411651       3.26973222       3.99084583      -0.00296453       0.00419450      -0.00513691
N        3.85077174       1.08243077       6.66973214       0.00296497      -0.00419453       0.00513670
