9
Lattice="4.533372041306685 4.0341832072782925e-08 2.617343567055925 1.5111240099684426 4.274104237747601 2.617343639516474 4.397363190379021e-08 1.19839715636194e-07 5.234687057947321" Properties=species:S:1:pos:R:3:forces:R:3 energy=-44.220550537109375 free_energy=-44.220550537109375 stress="-0.00019128035637550056 4.020946420268956e-08 2.9160688086449227e-08 4.020946420268956e-08 -0.00019145311671309173 2.5700172656684117e-08 2.9160688086449227e-08 2.5700172656684117e-08 -0.0001914811145979911" pbc="T T T"
Sn       1.51112509       1.06852613       2.61734378       0.00000496       0.00000031      -0.00000235
Sn       4.53337303       3.20557807       7.85202979       0.00000691      -0.00000175      -0.00000174
Ni      -0.00000001      -0.00000007       0.00000007      -0.00000292       0.00000230       0.00000145
O        1.46943973       1.03905161       5.23468690       0.00201310       0.00142612      -0.00000105
O        4.57505562       3.23505306       5.23468738      -0.00201276      -0.00142372       0.00000419
O        3.79865188       1.03905092       3.88991599      -0.00101238       0.00142477       0.00174841
O        2.24584344       3.23505351       6.57945838       0.00100958      -0.00143005      -0.00174813
O        2.24584388       3.23505348       3.88991613       0.00100738      -0.00142786       0.00174811
O        3.79865165       1.03905077       6.57945856      -0.00101371       0.00143022      -0.00174863
