9
Lattice="4.638090834288201 -4.3204584859571055e-08 2.6778031860136218 1.5460302082716366 4.372834147835916 2.6778032364003073 -3.0910144288306176e-08 3.9854063274173915e-08 5.355606425565171" Properties=species:S:1:pos:R:3:forces:R:3 energy=-55.6146125793457 free_energy=-55.6146125793457 stress="0.00022527738474309444 -1.8704122339840978e-07 -3.5415190779986006e-08 -1.8704122339840978e-07 0.00022545314277522266 1.5208923898057947e-08 -3.5415190779986006e-08 1.5208923898057947e-08 0.00022563694801647216" pbc="T T T"
Sn       1.54603055       1.09320856       2.67780360       0.00000010      -0.00000089       0.00000162
Sn       4.63809098       3.27962583       8.03340975       0.00000109       0.00000186       0.00000197
Os      -0.00000006       0.00000011       0.00000036       0.00000416       0.00000020      -0.00001441
N        1.57055001       1.11054624       5.35560613      -0.00483978      -0.00342399      -0.00000112
N        4.61357107       3.26228796       5.35560600       0.00483727       0.00342101      -0.00000124
N        3.85281533       1.11054629       4.03793938       0.00242108      -0.00342679      -0.00419641
N        2.33130503       3.26228739       6.67327331      -0.00242794       0.00343239       0.00420380
N        2.33130530       3.26228779       4.03793959      -0.00242162       0.00342649      -0.00419569
N        3.85281579       1.11054651       6.67327310       0.00242633      -0.00343007       0.00420141
