9
Lattice="4.686497634891682 -6.783013866795205e-08 2.705750852513428 1.5621658370896627 4.418472357063883 2.705750813120828 7.96467835828966e-08 8.072917249720183e-09 5.411501567074548" Properties=species:S:1:pos:R:3:forces:R:3 energy=-45.38658905029297 free_energy=-45.38658905029297 stress="-7.705128518864512e-05 -8.993622913067156e-08 4.899774808109214e-08 -8.993622913067156e-08 -7.700330024817958e-05 -1.0141959450038485e-07 4.899774808109214e-08 -1.0141959450038485e-07 -7.691328210057691e-05" pbc="T T T"
Sn       1.56216439       1.10461885       2.70575022      -0.00001294       0.00000330      -0.00000233
Sn       4.68649670       3.31385417       8.11725316      -0.00000891       0.00000061       0.00000845
Pd      -0.00000014      -0.00000023      -0.00000003       0.00000324       0.00000035      -0.00000003
O        1.58534896       1.12101001       5.41150195       0.00007308       0.00004551       0.00000204
O        4.66331501       3.29746131       5.41150098      -0.00006747      -0.00005186      -0.00000423
O        3.89382467       1.12101106       4.07870358      -0.00002784       0.00005192       0.00006261
O        2.35484030       3.29746166       6.74430003       0.00003484      -0.00004879      -0.00006074
O        2.35484072       3.29746111       4.07870315       0.00003326      -0.00004730       0.00005019
O        3.89382351       1.12101123       6.74429985      -0.00002697       0.00004631      -0.00005579
