9
Lattice="4.787227905488864 -7.951930838981566e-08 2.7639072559126245 1.5957426008397768 4.513441752671635 2.7639071855076396 4.4370731146436496e-08 -5.4853289264432646e-08 5.527814434972899" Properties=species:S:1:pos:R:3:forces:R:3 energy=-47.33112716674805 free_energy=-47.33112716674805 stress="-5.105227683088742e-05 1.1218270756785387e-08 -1.89323809962616e-08 1.1218270756785387e-08 -5.1279363106004894e-05 -2.5457658203720257e-09 -1.89323809962616e-08 -2.5457658203720257e-09 -5.137835250934586e-05" pbc="T T T"
Sn       1.59574270       1.12836011       2.76390751       0.00000138      -0.00000037       0.00000064
Sn       4.78722782       3.38508093       8.29172241      -0.00000160      -0.00000129       0.00000193
Pt      -0.00000011       0.00000023      -0.00000045      -0.00000220      -0.00000564       0.00004336
O        1.58282501       1.11922626       5.52781437      -0.00009492      -0.00006586      -0.00000035
O        4.80014582       3.39421551       5.52781416       0.00009561       0.00006887      -0.00000270
O        3.99581516       1.11922652       4.13467359       0.00005348      -0.00007072      -0.00009122
O        2.38715514       3.39421550       6.92095516      -0.00004189       0.00005841       0.00007039
O        2.38715501       3.39421543       4.13467348      -0.00005017       0.00007302      -0.00008893
O        3.99581570       1.11922600       6.92095523       0.00004058      -0.00005651       0.00006720
