9
Lattice="5.503497639407773 1.4341103626603922e-07 3.1774461411416874 1.8344992589428286 5.188747385725312 3.1774462959909635 1.0678961031056691e-08 1.9720210676003235e-07 6.35489226378672" Properties=species:S:1:pos:R:3:forces:R:3 energy=-36.97086715698242 free_energy=-36.97086715698242 stress="-3.8905318433535285e-06 2.9309829230328432e-08 6.17411885506236e-11 2.9309829230328432e-08 -3.900745923601789e-06 3.387314961855736e-08 6.17411885506236e-11 3.387314961855736e-08 -3.9361243580060545e-06" pbc="T T T"
Sn       1.83449938       1.29718570       3.17744638      -0.00000025      -0.00000129      -0.00000033
Sn       5.50349875       3.89156101       9.53233769       0.00000079       0.00000046      -0.00000039
Pd      -0.00000009       0.00000019       0.00000013      -0.00000358      -0.00000317      -0.00000108
S        1.91203847       1.35201558       6.35489225      -0.00043702      -0.00030875      -0.00000117
S        5.42595780       3.83673224       6.35489308       0.00044048       0.00031245      -0.00000009
S        4.54747813       1.35201521       4.83332034       0.00021821      -0.00031036      -0.00037837
S        2.79051841       3.83673299       7.87646427      -0.00021905       0.00031155       0.00038016
S        2.79051789       3.83673256       4.83332031      -0.00021866       0.00030822      -0.00037670
S        4.54747877       1.35201548       7.87646432       0.00021863      -0.00030887       0.00037801
