9
Lattice="5.704663397074409 -1.605708076858511e-07 3.2935891373085777 1.9015543605557295 5.378408252272912 3.2935890571979676 9.446708242372372e-08 -3.131672275240719e-08 6.587178110995329" Properties=species:S:1:pos:R:3:forces:R:3 energy=-33.25014114379883 free_energy=-33.25014114379883 stress="-3.705416020238772e-06 -8.427934972132789e-08 8.421348063336609e-09 -8.427934972132789e-08 -3.7137242543394677e-06 1.4978519757846698e-08 8.421348063336609e-09 1.4978519757846698e-08 -3.6417766295926413e-06" pbc="T T T"
Sn       1.90155508       1.34460141       3.29358842       0.00000110      -0.00000190      -0.00000207
Sn       5.70466283       4.03380617       9.88076721      -0.00000114       0.00000118       0.00000002
Pb       0.00000020      -0.00000044       0.00000027       0.00000050       0.00000858      -0.00000967
S        2.08131032       1.47170782       6.58717847      -0.00069068      -0.00049169       0.00000246
S        5.52490789       3.90670013       6.58717831       0.00068706       0.00048651       0.00000121
S        4.66400811       1.47170844       5.09605640       0.00034415      -0.00049017      -0.00060222
S        2.94220947       3.90669994       8.07829994      -0.00034693       0.00049245       0.00060043
S        2.94220957       3.90670028       5.09605625      -0.00034353       0.00048857      -0.00059626
S        4.66400798       1.47170848       8.07829995       0.00034937      -0.00049350       0.00060592
