9
Lattice="4.904913213604101 6.917125614219217e-08 2.8318529926202225 1.6349711257837438 4.624396443863558 2.831853011036911 6.445645024828916e-08 6.813341293371862e-08 5.663705873598537" Properties=species:S:1:pos:R:3:forces:R:3 energy=-43.343223571777344 free_energy=-43.343223571777344 stress="7.30187603039667e-05 -2.827286493811698e-08 -5.439889250169472e-08 -2.827286493811698e-08 7.308633212232962e-05 2.7214793973939777e-08 -5.439889250169472e-08 2.7214793973939777e-08 7.29895691620186e-05" pbc="T T T"
Sn       1.63497051       1.15609888       2.83185286      -0.00000117      -0.00000415      -0.00000040
Sn       4.90491350       3.46829841       8.49555991      -0.00000039       0.00000951       0.00000948
Pb       0.00000007      -0.00000008       0.00000083      -0.00000454       0.00000269      -0.00002212
O        1.68210594       1.18942767       5.66370609      -0.00121200      -0.00086236       0.00000113
O        4.85777870       3.43496876       5.66370518       0.00121656       0.00086191      -0.00000356
O        4.06386067       1.18942843       4.28859931       0.00060803      -0.00085962      -0.00104889
O        2.47602393       3.43496836       7.03881234      -0.00061302       0.00086531       0.00105619
O        2.47602392       3.43496837       4.28859854      -0.00060187       0.00085306      -0.00104427
O        4.06386049       1.18942747       7.03881245       0.00060830      -0.00086623       0.00105244
