9
Lattice="6.561582268505304 7.564349052059623e-08 3.788331425395454 2.1871941860177855 6.186319409623101 3.7883313817500968 2.2756897869439163e-08 -3.736286672209241e-08 7.576662811374861" Properties=species:S:1:pos:R:3:forces:R:3 energy=-28.713987350463867 free_energy=-28.713987350463867 stress="-3.023932731593959e-05 -1.1185884218889441e-08 3.21145421366964e-09 -1.1185884218889441e-08 -3.024264151463285e-05 -1.9377353055460844e-09 3.21145421366964e-09 -1.9377353055460844e-09 -3.0229692129069008e-05" pbc="T T T"
Sn       2.18719426       1.54657998       3.78833142       0.00000041      -0.00000010      -0.00000017
Sn       6.56158187       4.63973891      11.36499466      -0.00000147      -0.00000171       0.00000270
Pb       0.00000020      -0.00000017      -0.00000010       0.00000047       0.00000068      -0.00000009
Te       2.49828837       1.76655657       7.57666289       0.00051342       0.00036297       0.00000043
Te       6.25048807       4.41976315       7.57666263      -0.00051427      -0.00036332      -0.00000155
Te       5.31243809       1.76655704       5.95191241      -0.00025637       0.00036495       0.00044389
Te       3.43633846       4.41976256       9.20141314       0.00025681      -0.00036365      -0.00044484
Te       3.43633869       4.41976270       5.95191237       0.00025822      -0.00036324       0.00044423
Te       5.31243794       1.76655703       9.20141305      -0.00025715       0.00036341      -0.00044466
