9
Lattice="5.827800179202223 3.10099254627606e-08 3.3646820312184778 1.942600102855578 5.494502611066445 3.3646820071687453 7.816129057866411e-08 2.581363294988768e-08 6.729363927057636" Properties=species:S:1:pos:R:3:forces:R:3 energy=-34.99229431152344 free_energy=-34.99229431152344 stress="0.00015245434769894928 -1.7499476312465845e-09 -1.8182372940600544e-08 -1.7499476312465845e-09 0.00015245747636072338 2.8416774711104154e-08 -1.8182372940600544e-08 2.8416774711104154e-08 0.0001524693361716345" pbc="T T T"
Sn       1.94260013       1.37362582       3.36468178      -0.00000002       0.00000003       0.00000016
Sn       5.82780056       4.12087704      10.09404617       0.00000068       0.00000024       0.00000028
Pd       0.00000014      -0.00000001      -0.00000012      -0.00000156       0.00000138       0.00000221
Se       2.03923224       1.44195494       6.72936393      -0.00741747      -0.00524502       0.00000037
Se       5.73116809       4.05254778       6.72936394       0.00741756       0.00524528      -0.00000069
Se       4.80818407       1.44195485       5.13070903       0.00371003      -0.00524640      -0.00642633
Se       2.96221602       4.05254767       8.32801899      -0.00370933       0.00524455       0.00642323
Se       2.96221613       4.05254793       5.13070890      -0.00370777       0.00524494      -0.00642267
Se       4.80818413       1.44195474       8.32801930       0.00370786      -0.00524516       0.00642309
