9
Lattice="4.9859306415853 -8.882371087334088e-06 2.87861433699621 1.6619685091856402 4.700744951908488 2.8786143317371264 -4.464666879380315e-06 -3.1634373521477416e-06 5.757236407022877" Properties=species:S:1:pos:R:3:forces:R:3 energy=-43.22193145751953 free_energy=-43.22193145751953 stress="-1.536808667879086e-05 2.3348375179921277e-05 1.2459644494811073e-05 2.3348375179921277e-05 0.00010065237438539043 8.86538782651769e-06 1.2459644494811073e-05 8.86538782651769e-06 5.022071854909882e-05" pbc="T T T"
Sn       1.66195493       1.17520328       2.87860843      -0.00045868       0.00050014      -0.00019961
Sn       4.98593363       3.52553320       8.63585248       0.00032994      -0.00043957       0.00009981
Pb       0.00001096      -0.00000586       0.00000831       0.00014824      -0.00006903       0.00011655
N        2.17377303       1.53722716       5.75726564      -0.00050557       0.00308071       0.00064789
N        4.47410440       3.16346635       5.75719793       0.00032833      -0.00343525      -0.00077169
N        3.89910497       1.53718048       4.76126197       0.00164291       0.00200181       0.00154169
N        2.74880956       3.16351946       6.75325407      -0.00147109      -0.00243892      -0.00096352
N        2.74883516       3.16360173       4.76120988      -0.00074515      -0.00123872       0.00101568
N        3.89905207       1.53720593       6.75320167       0.00073124       0.00203884      -0.00148681
