9
Lattice="4.462380934844944 -3.3585831846383785e-08 2.57635684149494 1.4874603071913248 4.20717279046567 2.5763567943114913 3.470577469571242e-08 -3.3246992132791497e-08 5.152713622877698" Properties=species:S:1:pos:R:3:forces:R:3 energy=-51.845375061035156 free_energy=-51.845375061035156 stress="0.0005242663901299238 -1.5760691951527406e-07 -6.633175075876352e-08 -1.5760691951527406e-07 0.0005240826867520809 -1.3670261012066476e-07 -6.633175075876352e-08 -1.3670261012066476e-07 0.0005243168561719358" pbc="T T T"
Sn       1.48746020       1.05179314       2.57635674       0.00000024      -0.00000022       0.00000022
Sn       4.46238097       3.15537955       7.72907058      -0.00000052       0.00000120      -0.00000017
P        0.00000012      -0.00000006      -0.00000021       0.00000012      -0.00000066       0.00000223
N        1.45632867       1.02978012       5.15271350      -0.00338197      -0.00238991      -0.00000036
N        4.49351252       3.17739275       5.15271374       0.00338078       0.00238919       0.00000062
N        3.73421652       1.02977988       3.83757455       0.00169027      -0.00239170      -0.00292909
N        2.21562464       3.17739273       6.46785284      -0.00169027       0.00239038       0.00292909
N        2.21562474       3.17739292       3.83757461      -0.00169098       0.00239551      -0.00292993
N        3.73421663       1.02977989       6.46785279       0.00169230      -0.00239289       0.00292838
