9
Lattice="4.701833731557259 4.441672140306977e-08 2.714605090034691 1.5672779704766346 4.432931515350099 2.714605058717368 2.8058520128900795e-08 -1.8515360808166053e-08 5.4292101314706045" Properties=species:S:1:pos:R:3:forces:R:3 energy=-58.71042251586914 free_energy=-58.71042251586914 stress="0.00021410640329122543 6.575125865992959e-08 3.4330479792288315e-08 6.575125865992959e-08 0.0002140462602255866 5.0405756013560676e-08 3.4330479792288315e-08 5.0405756013560676e-08 0.0002140598517144099" pbc="T T T"
Sn       1.56727820       1.10823260       2.71460515      -0.00000031      -0.00000190      -0.00000056
Sn       4.70183371       3.32469857       8.14381547       0.00000020      -0.00000149       0.00000161
Re       0.00000012      -0.00000006      -0.00000003      -0.00000468       0.00000175      -0.00000036
N        1.60200690       1.13279043       5.42921013      -0.00271845      -0.00192058       0.00000004
N        4.66710446       3.30014168       5.42921023       0.00271595       0.00192165       0.00000030
N        3.90083026       1.13279000       4.10198399       0.00135821      -0.00191921      -0.00235295
N        2.36828133       3.30014148       6.75643625      -0.00135595       0.00192016       0.00234997
N        2.36828180       3.30014134       4.10198373      -0.00135392       0.00191844      -0.00235081
N        3.90083009       1.13279005       6.75643644       0.00135803      -0.00191891       0.00235236
