9
Lattice="4.568841720823554 -5.766480785171707e-09 2.637822005459972 1.5229471829794319 4.307545480081374 2.6378220952813507 -6.225910555998883e-08 6.59844430016748e-08 5.2756441187558965" Properties=species:S:1:pos:R:3:forces:R:3 energy=-49.85225296020508 free_energy=-49.85225296020508 stress="0.0003593004075810313 5.0651266292334185e-08 6.696413645812527e-09 5.0651266292334185e-08 0.0003592760767787695 3.3020366441149918e-09 6.696413645812527e-09 3.3020366441149918e-09 0.0003591715940274298" pbc="T T T"
Sn       1.52294721       1.07688613       2.63782217      -0.00000016      -0.00000137      -0.00000002
Sn       4.56884161       3.23065936       7.91346594      -0.00000069       0.00000096      -0.00000003
Rh      -0.00000007       0.00000002       0.00000013      -0.00000523      -0.00000195      -0.00000024
N        1.59645265       1.12886239       5.27564405      -0.00129974      -0.00092018      -0.00000159
N        4.49533618       3.17868310       5.27564432       0.00130612       0.00092483       0.00000099
N        3.77061525       1.12886224       4.02039049       0.00065038      -0.00092095      -0.00112748
N        2.32117328       3.17868322       6.53089760      -0.00065088       0.00092000       0.00112689
N        2.32117366       3.17868326       4.02039048      -0.00064901       0.00091898      -0.00112623
N        3.77061562       1.12886243       6.53089778       0.00064963      -0.00092018       0.00112754
