9
Lattice="6.721218178975864 -8.644272482204536e-08 3.88049713262222 2.2404060184361545 6.3368252707416515 3.8804970628611755 -1.1139945628893002e-08 -9.331659210553572e-08 7.760994284539449" Properties=species:S:1:pos:R:3:forces:R:3 energy=-28.440176010131836 free_energy=-28.440176010131836 stress="0.00011552862270036712 6.132854779572483e-10 1.1897280494110873e-08 6.132854779572483e-10 0.00011553464719327167 -7.397245482820836e-09 1.1897280494110873e-08 -7.397245482820836e-09 0.0001155138379544951" pbc="T T T"
Sn       2.24040571       1.58420613       3.88049738      -0.00000025      -0.00000040       0.00000180
Sn       6.72121834       4.75261917      11.64149021      -0.00000036       0.00000027      -0.00000404
Sr       0.00000001      -0.00000021       0.00000086       0.00000018      -0.00000017      -0.00000541
Te       2.59701802       1.83636904       7.76099413       0.00482273       0.00340981      -0.00000050
Te       6.36460612       4.50045621       7.76099494      -0.00482170      -0.00340862       0.00000273
Te       5.42270878       1.83636882       6.12958071      -0.00241267       0.00340979       0.00417829
Te       3.53891533       4.50045602       9.39240749       0.00241144      -0.00340869      -0.00417486
Te       3.53891501       4.50045578       6.12958064       0.00240990      -0.00341065       0.00417622
Te       5.42270939       1.83636944       9.39240755      -0.00240925       0.00340867      -0.00417427
