9
Lattice="6.002869107482747 7.930973584484972e-10 3.4657581418532764 2.000956366342305 5.659559373134768 3.4657581480303397 1.8087777029815227e-08 2.035534071843791e-08 6.931516252377588" Properties=species:S:1:pos:R:3:forces:R:3 energy=-31.301082611083984 free_energy=-31.301082611083984 stress="-4.237990651745349e-05 -1.2819685757392563e-08 -8.67807603555093e-09 -1.2819685757392563e-08 -4.238649125909433e-05 1.3603863813216321e-08 -8.67807603555093e-09 1.3603863813216321e-08 -4.2379062506370246e-05" pbc="T T T"
Sn       2.00095747       1.41488986       3.46575813       0.00000593       0.00000015      -0.00000064
Sn       6.00286892       4.24466968      10.39727421      -0.00000021       0.00000160      -0.00000121
Sr       0.00000030      -0.00000013      -0.00000040      -0.00000210       0.00000187       0.00000523
S        2.29133801       1.62022046       6.93151595       0.00066686       0.00047096      -0.00000090
S        5.71248709       4.03933915       6.93151623      -0.00066681      -0.00046887      -0.00000033
S        4.85719951       1.62022057       5.45011505      -0.00033437       0.00046712       0.00057411
S        3.14662556       4.03933880       8.41291805       0.00033446      -0.00047300      -0.00057687
S        3.14662556       4.03933842       5.45011488       0.00033221      -0.00047111       0.00057580
S        4.85719957       1.62022080       8.41291790      -0.00033601       0.00047133      -0.00057517
