9
Lattice="5.864614767798289 1.5686784633714662e-08 3.385936897803573 1.9548715971070953 5.5292118512426995 3.3859369098389194 -4.32418039396022e-08 -1.583629479678702e-08 6.7718738705041" Properties=species:S:1:pos:R:3:forces:R:3 energy=-37.003509521484375 free_energy=-37.003509521484375 stress="-0.0002544080198276788 9.585634508368912e-09 -2.5121586588738865e-08 9.585634508368912e-09 -0.00025441611069254577 -1.0710321518558885e-08 -2.5121586588738865e-08 -1.0710321518558885e-08 -0.00025445051142014563" pbc="T T T"
Sn       1.95487086       1.38230328       3.38593722      -0.00000258       0.00000200       0.00000110
Sn       5.86461527       4.14690810      10.15780940       0.00000135      -0.00000206      -0.00000507
Sc       0.00000051       0.00000049       0.00000005      -0.00000569      -0.00000406      -0.00000164
Se       2.12493935       1.50255948       6.77187379      -0.00552243      -0.00390273       0.00000007
Se       5.69454656       4.02665191       6.77187447       0.00552651       0.00390629       0.00000247
Se       4.80214489       1.50255917       5.22618905       0.00276262      -0.00390654      -0.00478260
Se       3.01734167       4.02665259       8.31755896      -0.00276136       0.00390684       0.00478351
Se       3.01734095       4.02665244       5.22618879      -0.00276284       0.00390437      -0.00478193
Se       4.80214522       1.50255996       8.31755898       0.00276435      -0.00390422       0.00478412
