9
Lattice="6.374018896690986 2.550450206611963e-07 3.68004118766704 2.1246731132726935 6.009482226022743 3.680041348314278 -5.0692412441458683e-08 1.6090690780981763e-07 7.360082463135957" Properties=species:S:1:pos:R:3:forces:R:3 energy=-34.351356506347656 free_energy=-34.351356506347656 stress="-0.00017899835074786097 7.211267138984567e-09 -1.1777593122985763e-08 7.211267138984567e-09 -0.00017898807709570974 1.3122107844765196e-08 -1.1777593122985763e-08 1.3122107844765196e-08 -0.00017901700630318373" pbc="T T T"
Sn       2.12467214       1.50236938       3.68004117      -0.00000522      -0.00000315       0.00000000
Sn       6.37402044       4.50711139      11.04012570       0.00000692      -0.00000414       0.00000795
Sc      -0.00000011       0.00000082       0.00000156       0.00000007      -0.00000717      -0.00001433
Te       2.29634356       1.62376058       7.36008246      -0.00367433      -0.00259818       0.00000061
Te       6.20234705       4.38572269       7.36008139       0.00367853       0.00260523      -0.00000367
Te       5.22584872       1.62376113       5.66873252       0.00183792      -0.00259517      -0.00317918
Te       3.27284383       4.38572167       9.05143069      -0.00184536       0.00260445       0.00318640
Te       3.27284384       4.38572198       5.66873275      -0.00183876       0.00259829      -0.00318028
Te       5.22584845       1.62376094       9.05143180       0.00184020      -0.00260021       0.00318258
