9
Lattice="5.614224922889509 9.32035133276585e-09 3.241374057442699 1.8714082976333601 5.293141810376286 3.2413740899771804 -7.369740953615261e-08 -1.226548872443257e-08 6.482748242533092" Properties=species:S:1:pos:R:3:forces:R:3 energy=-34.288753509521484 free_energy=-34.288753509521484 stress="-0.00022211762552615255 1.801077686991448e-08 -9.865122940766469e-09 1.801077686991448e-08 -0.000222137343371287 1.7065671542582095e-08 -9.865122940766469e-09 1.7065671542582095e-08 -0.0002221588947577402" pbc="T T T"
Sn       1.87140908       1.32328555       3.24137420       0.00000192       0.00000072       0.00000065
Sn       5.61422475       3.96985647       9.72412192       0.00000017       0.00000104      -0.00000094
Se       0.00000032       0.00000048       0.00000101      -0.00000769      -0.00000641      -0.00002196
S        1.85321858       1.31042324       6.48274826       0.00355250       0.00251213      -0.00000143
S        5.63241417       3.98271831       6.48274852      -0.00354230      -0.00250512      -0.00000245
S        4.68761563       1.31042290       4.84630810      -0.00177974       0.00251523       0.00307977
S        2.79801777       3.98271803       8.11918750       0.00176847      -0.00250250      -0.00306597
S        2.79801719       3.98271851       4.84630836       0.00177699      -0.00251624       0.00307846
S        4.68761517       1.31042383       8.11918773      -0.00177038       0.00250128      -0.00306609
