9
Lattice="6.09020297648323 -6.387608882856599e-08 3.516180308001674 2.0300677120911854 5.741898036172519 3.516180111437472 9.036538142450273e-08 -1.7684302626573947e-07 7.032360459485895" Properties=species:S:1:pos:R:3:forces:R:3 energy=-30.52217674255371 free_energy=-30.52217674255371 stress="-2.844623668352142e-05 -2.540104482307015e-08 -7.66057084433669e-09 -2.540104482307015e-08 -2.8426269636838697e-05 -9.454849347889649e-09 -7.66057084433669e-09 -9.454849347889649e-09 -2.8417405701475218e-05" pbc="T T T"
Sn       2.03006766       1.43547382       3.51618041       0.00000042      -0.00000236       0.00000292
Sn       6.09020338       4.30642372      10.54853973       0.00000442       0.00000206      -0.00000555
Sr       0.00000030      -0.00000014       0.00000007      -0.00000101       0.00000149      -0.00000112
Se       2.37596933       1.68006372       7.03236014      -0.00237565      -0.00167990      -0.00000386
Se       5.74430227       4.06183511       7.03236120       0.00238126       0.00168610       0.00000390
Se       4.90221823       1.68006272       5.57382972       0.00118564      -0.00168621      -0.00205810
Se       3.21805241       4.06183425       8.49089090      -0.00118900       0.00168212       0.00205622
Se       3.21805128       4.06183427       5.57382990      -0.00119584       0.00168029      -0.00205582
Se       4.90221829       1.68006370       8.49089149       0.00118972      -0.00168370       0.00206144
