9
Lattice="4.46264900234245 -7.153700553397607e-08 2.576511822398931 1.4875495898478148 4.207426041272308 2.5765118399860603 -6.386166161187935e-08 -2.361728143672361e-08 5.1530237554094995" Properties=species:S:1:pos:R:3:forces:R:3 energy=-49.71946716308594 free_energy=-49.71946716308594 stress="2.3434227841789834e-05 1.1549811773647889e-07 6.257010909394012e-08 1.1549811773647889e-07 2.3679751393501647e-05 5.033652072938821e-08 6.257010909394012e-08 5.033652072938821e-08 2.3497130314353853e-05" pbc="T T T"
Sn       1.48754960       1.05185644       2.57651187      -0.00000048       0.00000020       0.00000092
Sn       4.46264898       3.15556955       7.72953547       0.00000038      -0.00000046       0.00000065
S        0.00000028       0.00000009       0.00000003      -0.00000187       0.00000112      -0.00000076
N        1.42151825       1.00516558       5.15302397       0.00064147       0.00045407      -0.00000220
N        4.52868000       3.20226048       5.15302401      -0.00063801      -0.00045204      -0.00000272
N        3.75188951       1.00516522       3.80758254      -0.00032228       0.00045359       0.00056076
N        2.19830868       3.20226065       6.49846497       0.00032091      -0.00045621      -0.00056040
N        2.19830891       3.20226071       3.80758272       0.00032037      -0.00045335       0.00055993
N        3.75188979       1.00516511       6.49846467      -0.00032037       0.00045133      -0.00055671
