9
Lattice="4.632448274060579 1.0820055890056793e-07 2.674545773013095 1.544149551998102 4.367514386915131 2.674545729194481 4.048467936034639e-08 -2.503967127997317e-08 5.349091475904706" Properties=species:S:1:pos:R:3:forces:R:3 energy=-49.795265197753906 free_energy=-49.795265197753906 stress="7.90073536336422e-05 -2.1469662669915124e-07 -2.1494810198419145e-07 -2.1469662669915124e-07 7.815018761903048e-05 -1.1082808981655035e-07 -2.1494810198419145e-07 -1.1082808981655035e-07 7.791307143634185e-05" pbc="T T T"
Sn       1.54415275       1.09187744       2.67454674       0.00004475      -0.00001518       0.00001459
Sn       4.63245985       3.27563315       8.02364130       0.00012078      -0.00002905       0.00004535
Sc       0.00000171      -0.00000095       0.00000046       0.00000423       0.00000594       0.00000401
O        1.66523878       1.17750960       5.34909081      -0.00016725      -0.00005022      -0.00000750
O        4.51135468       3.19001063       5.34908950       0.00011212       0.00009033      -0.00001487
O        3.79982522       1.17750473       4.11668711       0.00004312      -0.00008503      -0.00012195
O        2.37676612       3.19001127       6.58149283      -0.00009981       0.00009045       0.00008124
O        2.37676764       3.19001073       4.11668931      -0.00009027       0.00009385      -0.00009489
O        3.79982451       1.17750121       6.58149387       0.00003242      -0.00010151       0.00009376
