9
Lattice="4.548993965863087 -1.4298689020734006e-08 2.6263628800794567 1.516331291835869 4.288832928768247 2.6263629088965788 -1.0307707294047847e-07 -3.759291239743867e-08 5.252725938693673" Properties=species:S:1:pos:R:3:forces:R:3 energy=-49.57756423950195 free_energy=-49.57756423950195 stress="-0.00019452582637313753 -6.851693967746542e-08 -5.604574582207533e-08 -6.851693967746542e-08 -0.0001944427494890988 -2.3078515098973185e-08 -5.604574582207533e-08 -2.3078515098973185e-08 -0.00019453454297035933" pbc="T T T"
Sn       1.51633105       1.07220809       2.62636312      -0.00000078       0.00000008       0.00000120
Sn       4.54899372       3.21662460       7.87908912      -0.00000097      -0.00000030       0.00000066
S        0.00000009       0.00000002       0.00000037       0.00000126       0.00000007      -0.00000312
O        1.36665283       0.96636886       5.25272561       0.00227737       0.00161207       0.00000146
O        4.69867256       3.32246375       5.25272585      -0.00228059      -0.00161207      -0.00000253
O        3.86566782       0.96636951       3.80991836      -0.00113595       0.00161397       0.00197256
O        2.19965741       3.32246365       6.69553296       0.00113517      -0.00161099      -0.00197256
O        2.19965772       3.32246366       3.80991861       0.00114173      -0.00161064       0.00197387
O        3.86566758       0.96636932       6.69553288      -0.00113791       0.00160766      -0.00197172
