9
Lattice="4.633993704797403 3.0419488562654703e-09 2.675438007578704 1.544664621602165 4.368971102055047 2.6754379201648617 2.1244591839256794e-07 4.316229458246972e-08 5.3508756471902394" Properties=species:S:1:pos:R:3:forces:R:3 energy=-46.22849655151367 free_energy=-46.22849655151367 stress="-0.00011518981045810506 -1.6392959878430702e-08 6.66198332055501e-08 -1.6392959878430702e-08 -0.00011539887054823339 -1.818905026595985e-08 6.66198332055501e-08 -1.818905026595985e-08 -0.00011525592708494514" pbc="T T T"
Sn       1.54466453       1.09224235       2.67543792       0.00000033      -0.00000113       0.00000056
Sn       4.63399417       3.27672860       8.02631412      -0.00000021       0.00000053       0.00000148
Se       0.00000001       0.00000088       0.00000123      -0.00000051       0.00001028       0.00001462
O        1.48501086       1.05006068       5.35087565      -0.00047696      -0.00033647      -0.00000198
O        4.69364762       3.31891022       5.35087529       0.00047839       0.00033432      -0.00000213
O        3.89148838       1.05006085       3.96149467       0.00023896      -0.00033838      -0.00041473
O        2.28717021       3.31890988       6.74025649      -0.00023973       0.00033355       0.00040996
O        2.28717018       3.31891003       3.96149461      -0.00023955       0.00033301      -0.00041592
O        3.89148846       1.05006120       6.74025675       0.00023878      -0.00033557       0.00040853
