9
Lattice="5.6494618977075435 3.671677023048728e-08 3.261718142154747 1.8831539771019636 5.326363869849322 3.2617181827150006 -2.714899290745542e-08 3.0478718921363404e-08 6.523436331332935" Properties=species:S:1:pos:R:3:forces:R:3 energy=-39.40758514404297 free_energy=-39.40758514404297 stress="0.0001362263719784096 1.392746251660526e-09 -6.033005206518283e-08 1.392746251660526e-09 0.00013629882596433163 3.581851970579919e-08 -6.033005206518283e-08 3.581851970579919e-08 0.00013621918333228678" pbc="T T T"
Sn       1.88315529       1.33159110       3.26171903       0.00000388       0.00000213       0.00000275
Sn       5.64946215       3.99477466       9.78515561       0.00000261       0.00000586       0.00000424
Sc      -0.00000021      -0.00000026      -0.00000009       0.00000216       0.00000206       0.00000006
S        2.01532719       1.42505065       6.52343611      -0.00551411      -0.00389944      -0.00000051
S        5.51728896       3.90131269       6.52343565       0.00550776       0.00389502      -0.00000162
S        4.64179798       1.42505094       5.00704261       0.00275575      -0.00390064      -0.00477470
S        2.89081693       3.90131297       8.03982937      -0.00275673       0.00389686       0.00477332
S        2.89081734       3.90131226       5.00704211      -0.00275518       0.00389499      -0.00477382
S        4.64179778       1.42505066       8.03983018       0.00275373      -0.00389677       0.00477036
