9
Lattice="5.537868567245866 -1.8423851502452303e-08 3.1972897037938144 1.845956157476448 5.221152591707225 3.1972897284500674 7.052160168104719e-08 8.006393696492281e-08 6.394579285440624" Properties=species:S:1:pos:R:3:forces:R:3 energy=-43.13899230957031 free_energy=-43.13899230957031 stress="-6.892703822813928e-05 4.75791539500392e-09 -1.191112364296032e-08 4.75791539500392e-09 -6.891176599310711e-05 -4.3486183542995605e-09 -1.191112364296032e-08 -4.3486183542995605e-09 -6.88888831064105e-05" pbc="T T T"
Sn       1.84595670       1.30528867       3.19728956      -0.00000002       0.00000062      -0.00000019
Sn       5.53786913       3.91586520       9.59186953       0.00000072       0.00000069       0.00000062
Ti      -0.00000021      -0.00000003      -0.00000018       0.00000211      -0.00000086      -0.00000102
S        1.89791569       1.34202886       6.39457944       0.00862023       0.00609523      -0.00000031
S        5.48590946       3.87912380       6.39457902      -0.00862232      -0.00609742       0.00000031
S        4.58891063       1.34202844       4.84093261      -0.00431064       0.00609647       0.00746569
S        2.79491371       3.87912352       7.94822617       0.00431085      -0.00609541      -0.00746489
S        2.79491377       3.87912361       4.84093271       0.00431037      -0.00609662       0.00746560
S        4.58891035       1.34202850       7.94822596      -0.00431125       0.00609763      -0.00746587
