9
Lattice="4.647619346963652 9.707027158409364e-08 2.6833055403517743 1.5492063909348932 4.381819163333725 2.683305799417609 3.591725864051406e-07 5.712629765179078e-07 5.366610458598294" Properties=species:S:1:pos:R:3:forces:R:3 energy=-53.84183120727539 free_energy=-53.84183120727539 stress="0.0005375394248403609 -3.0619482060956216e-08 -4.499770867028019e-08 -3.0619482060956216e-08 0.0005374560132622719 1.606385211516681e-07 -4.499770867028019e-08 1.606385211516681e-07 0.0005372919258661568" pbc="T T T"
Sn       1.54919874       1.09545896       2.68330475      -0.00007377       0.00004769      -0.00001006
Sn       4.64761599       3.28636500       8.04991805      -0.00004409       0.00000348       0.00002999
Ti      -0.00000036       0.00000257       0.00000118      -0.00001565      -0.00001776      -0.00000617
O        1.58296483       1.11932392       5.36661001      -0.00207567      -0.00150335      -0.00001687
O        4.61386235       3.26249231       5.36661148       0.00213110       0.00146973       0.00001034
O        3.85614431       1.11932745       4.05419214       0.00109887      -0.00146890      -0.00180387
O        2.34068818       3.26249168       6.67902865      -0.00105679       0.00148278       0.00184011
O        2.34069059       3.26249342       4.05419145      -0.00103378       0.00148034      -0.00184023
O        3.85613867       1.11932342       6.67902916       0.00106978      -0.00149363       0.00179636
