9
Lattice="4.510625567607259 7.03424014870221e-08 2.6042108171648044 1.5035418258304702 4.252658850539225 2.6042109840618632 -8.181202982832784e-08 1.4655649226665822e-07 5.20842177603218" Properties=species:S:1:pos:R:3:forces:R:3 energy=-52.50984191894531 free_energy=-52.50984191894531 stress="3.716249921126291e-05 7.219682629511226e-08 5.718815287991674e-08 7.219682629511226e-08 3.707408905029297e-05 -1.0764831870346825e-07 5.718815287991674e-08 -1.0764831870346825e-07 3.695706982398406e-05" pbc="T T T"
Sn       1.50354179       1.06316475       2.60421094      -0.00000018      -0.00000057      -0.00000100
Sn       4.51062530       3.18949428       7.81263284       0.00000019       0.00000007      -0.00000068
Ti       0.00000008      -0.00000001       0.00000020       0.00000031      -0.00000027       0.00000129
N        1.64486120       1.16309250       5.20842176      -0.00044179      -0.00031459       0.00000093
N        4.36930615       3.08956621       5.20842160       0.00043952       0.00031334      -0.00000021
N        3.68819500       1.16309277       4.02870229       0.00022006      -0.00031203      -0.00038129
N        2.32597233       3.08956668       6.38814132      -0.00022048       0.00031459       0.00038105
N        2.32597247       3.08956645       4.02870235      -0.00021803       0.00031239      -0.00038075
N        3.68819481       1.16309258       6.38814079       0.00022000      -0.00031310       0.00038069
