9
Lattice="4.7069854191541225 -8.314519087126199e-08 2.717579441478786 1.5689950827158257 4.437788435674382 2.717579404433987 -4.0540547868379094e-08 -7.403691173622327e-08 5.435158953175855" Properties=species:S:1:pos:R:3:forces:R:3 energy=-44.984336853027344 free_energy=-44.984336853027344 stress="-0.0007640467374585569 -3.867212683417165e-08 -2.4046164170954398e-08 -3.867212683417165e-08 -0.0007639229297637939 2.5044881724056722e-08 -2.4046164170954398e-08 2.5044881724056722e-08 -0.0007639549439772964" pbc="T T T"
Sn       1.56899526       1.10944711       2.71757936       0.00000123       0.00000194       0.00000179
Sn       4.70698546       3.32834134       8.15273849       0.00000109       0.00000077      -0.00000003
Te       0.00000002      -0.00000001      -0.00000002      -0.00000108      -0.00000460      -0.00000399
N        1.64824659       1.16548627       5.43515895       0.00255108       0.00180203      -0.00000087
N        4.62773386       3.27230211       5.43515902      -0.00254738      -0.00180030      -0.00000117
N        3.88286204       1.16548627       4.14500295      -0.00127417       0.00180143       0.00220448
N        2.39311822       3.27230173       6.72531471       0.00126874      -0.00179708      -0.00220102
N        2.39311813       3.27230199       4.14500292       0.00127262      -0.00180256       0.00220501
N        3.88286224       1.16548620       6.72531485      -0.00127292       0.00179845      -0.00220400
