9
Lattice="4.622372107112563 3.365263237156816e-08 2.6687277693999363 1.54079072038196 4.358014173213675 2.6687277931582947 -2.683229219366553e-08 1.012462269414836e-08 5.33745558527477" Properties=species:S:1:pos:R:3:forces:R:3 energy=-56.53010559082031 free_energy=-56.53010559082031 stress="-3.546838343027048e-05 4.85494986435242e-08 1.6210506714742223e-08 4.85494986435242e-08 -3.520849350024946e-05 4.8371216365694636e-08 1.6210506714742223e-08 4.8371216365694636e-08 -3.5321667382959276e-05" pbc="T T T"
Sn       1.54079082       1.08950340       2.66872774       0.00000078      -0.00000077      -0.00000037
Sn       4.62237188       3.26851072       8.00618310      -0.00000106       0.00000134      -0.00000156
Ta       0.00000012       0.00000006       0.00000021      -0.00000059       0.00000085      -0.00000148
N        1.67977205       1.18777798       5.33745549      -0.00506788      -0.00358766      -0.00000153
N        4.48339092       3.17023582       5.33745537       0.00507027       0.00358409       0.00000103
N        3.78248604       1.18777812       4.12345285       0.00253221      -0.00358760      -0.00439006
N        2.38067677       3.17023599       6.55145850      -0.00253206       0.00358510       0.00439298
N        2.38067670       3.17023630       4.12345309      -0.00253502       0.00358784      -0.00439137
N        3.78248593       1.18777850       6.55145815       0.00253314      -0.00358319       0.00439286
