9
Lattice="5.830188234387121 -1.0948549294686677e-07 3.3660608549801436 1.9433960799031225 5.496754024918518 3.3660606731183336 1.4970330178061006e-07 -1.1687815818927248e-07 6.73212145066657" Properties=species:S:1:pos:R:3:forces:R:3 energy=-40.0063591003418 free_energy=-40.0063591003418 stress="-1.9785920812864788e-05 1.1315520964672032e-08 2.0735374306468657e-08 1.1315520964672032e-08 -1.9810215235338546e-05 1.5498233807420547e-08 2.0735374306468657e-08 1.5498233807420547e-08 -1.9821247406071052e-05" pbc="T T T"
Sn       1.94339611       1.37418872       3.36606059      -0.00000061       0.00000202      -0.00000004
Sn       5.83018840       4.12256512      10.09818313       0.00000018       0.00000067       0.00000135
Ti      -0.00000033       0.00000044      -0.00000060       0.00000438      -0.00000458       0.00000226
Se       2.00237437       1.41589225       6.73212157      -0.00016341      -0.00011597      -0.00000037
Se       5.77121060       4.08086148       6.73212097       0.00016240       0.00011393      -0.00000022
Se       4.82900153       1.41589218       5.10016739       0.00008055      -0.00011339      -0.00013902
Se       2.94458287       4.08086161       8.36407564      -0.00008076       0.00011395       0.00014091
Se       2.94458284       4.08086174       5.10016729      -0.00008222       0.00011571      -0.00014177
Se       4.82900143       1.41589166       8.36407590       0.00007942      -0.00011228       0.00013711
