9
Lattice="6.258852525604447 -6.086839677409566e-08 3.613550282079045 2.086284142450247 5.900902964721973 3.613550239408222 3.621312837232343e-09 -4.970019500253102e-08 7.227100557885786" Properties=species:S:1:pos:R:3:forces:R:3 energy=-35.89432907104492 free_energy=-35.89432907104492 stress="7.239659316837788e-05 -3.0475479917413395e-08 1.3259567666068506e-08 -3.0475479917413395e-08 7.242106221383438e-05 -1.4708674278551825e-08 1.3259567666068506e-08 -1.4708674278551825e-08 7.24336423445493e-05" pbc="T T T"
Sn       2.08628442       1.47522620       3.61355074       0.00000109       0.00000156       0.00000115
Sn       6.25885257       4.42567821      10.84064917      -0.00000028       0.00000393      -0.00000429
Ti      -0.00000006       0.00000014       0.00000001       0.00000096       0.00000065      -0.00000023
Te       2.18681103       1.54630831       7.22710025       0.00771186       0.00545230      -0.00000054
Te       6.15832677       4.35459406       7.22710142      -0.00771506      -0.00545535       0.00000069
Te       5.16544618       1.54630809       5.50738445      -0.00385658       0.00545157       0.00667807
Te       3.17968998       4.35459387       8.94681718       0.00385655      -0.00545283      -0.00667766
Te       3.17968906       4.35459378       5.50738425       0.00385527      -0.00545219       0.00667819
Te       5.16544674       1.54630872       8.94681689      -0.00385381       0.00545035      -0.00667539
