9
Lattice="4.605592894531491 9.51708896481073e-08 2.6590404054710355 1.535197694750973 4.34219478932496 2.659040451348736 2.732466048943816e-08 7.550993162005007e-08 5.318080763614385" Properties=species:S:1:pos:R:3:forces:R:3 energy=-54.72641372680664 free_energy=-54.72641372680664 stress="-2.2414043996832334e-05 6.586379885931137e-09 -7.833200754703284e-09 6.586379885931137e-09 -2.2428879674407654e-05 3.280977989295053e-10 -7.833200754703284e-09 3.280977989295053e-10 -2.2284160877461545e-05" pbc="T T T"
Sn       1.53519782       1.08554888       2.65904047      -0.00000044       0.00000056       0.00000071
Sn       4.60559310       3.25664639       7.97712123       0.00000127       0.00000146      -0.00000063
V       -0.00000016       0.00000001       0.00000002       0.00000062       0.00000217       0.00000012
N        1.59302020       1.12643552       5.31808061      -0.00012243      -0.00008726       0.00000033
N        4.54777059       3.21575939       5.31808080       0.00012112       0.00008631       0.00000082
N        3.80908247       1.12643547       4.03863657       0.00006223      -0.00008857      -0.00010765
N        2.33170775       3.21575942       6.59752533      -0.00006187       0.00008607       0.00010550
N        2.33170797       3.21575929       4.03863642      -0.00006056       0.00008631      -0.00010633
N        3.80908274       1.12643553       6.59752518       0.00005943      -0.00008714       0.00010705
