9
Lattice="5.800994454810549 1.157762974239253e-07 3.349205845682371 1.933664867785595 5.469230507384538 3.3492059489810697 6.579746534143636e-08 1.7304037373647693e-07 6.698411577400199" Properties=species:S:1:pos:R:3:forces:R:3 energy=-40.08363723754883 free_energy=-40.08363723754883 stress="-0.00013407054939307272 2.9033748738527265e-09 -3.4507012802720283e-09 2.9033748738527265e-09 -0.00013407098595052958 4.571235834305298e-09 -3.4507012802720283e-09 4.571235834305298e-09 -0.00013407717051450163" pbc="T T T"
Sn       1.93366592       1.36730780       3.34920510       0.00000084       0.00000011      -0.00000143
Sn       5.80099430       4.10192279      10.04761753       0.00000054       0.00000012      -0.00000003
V       -0.00000010       0.00000010      -0.00000004      -0.00000005      -0.00000032       0.00000009
Se       1.95648993       1.38344773       6.69841192      -0.00089613      -0.00063398      -0.00000039
Se       5.77816912       4.08578321       6.69841150       0.00089559       0.00063382      -0.00000084
Se       4.82274941       1.38344761       5.04357618       0.00044804      -0.00063387      -0.00077589
Se       2.91191017       4.08578273       8.35324743      -0.00044848       0.00063430       0.00077692
Se       2.91190981       4.08578311       5.04357640      -0.00044817       0.00063413      -0.00077532
Se       4.82274896       1.38344809       8.35324744       0.00044794      -0.00063412       0.00077684
