9
Lattice="5.488774256512809 -4.750981109876201e-08 3.1689454435619555 1.8295913613365513 5.174866229350561 3.168945465573501 4.612632779352156e-08 5.957476013765272e-08 6.337890807230787" Properties=species:S:1:pos:R:3:forces:R:3 energy=-43.54045867919922 free_energy=-43.54045867919922 stress="-0.00020708577358163893 -4.3399843718816555e-08 -1.3953729727234077e-08 -4.3399843718816555e-08 -0.00020708379452116787 8.834120990286465e-09 -1.3953729727234077e-08 8.834120990286465e-09 -0.00020702982146758586" pbc="T T T"
Sn       1.82959223       1.29371630       3.16894564       0.00000108      -0.00000055       0.00000047
Sn       5.48877419       3.88114935       9.50683678       0.00000029      -0.00000017       0.00000130
V       -0.00000008       0.00000009       0.00000070       0.00000267       0.00000006      -0.00000655
S        1.83348800       1.29647224       6.33789083       0.00833133       0.00589135      -0.00000149
S        5.48487754       3.87839462       6.33789059      -0.00833428      -0.00589350      -0.00000123
S        4.57203009       1.29647216       4.75679293      -0.00416626       0.00589252       0.00721517
S        2.74633577       3.87839358       7.91898784       0.00416242      -0.00588614      -0.00721002
S        2.74633548       3.87839410       4.75679316       0.00416547      -0.00589162       0.00721341
S        4.57202937       1.29647253       7.91898823      -0.00416280       0.00588813      -0.00721142
