9
Lattice="4.755351186599152 -1.836502658475316e-07 2.745503419591668 1.58511686438768 4.483387801974115 2.74550346231251 -2.112542520074163e-07 -9.705711117531932e-08 5.4910072050864" Properties=species:S:1:pos:R:3:forces:R:3 energy=-52.94487380981445 free_energy=-52.94487380981445 stress="-4.926804467686452e-05 5.358925747600551e-09 -2.098203033540358e-08 5.358925747600551e-09 -4.926211113343015e-05 3.816250782051611e-08 -2.098203033540358e-08 3.816250782051611e-08 -4.892713695880957e-05" pbc="T T T"
Sn       1.58511796       1.12084742       2.74550488      -0.00000245       0.00000087       0.00001455
Sn       4.75535010       3.36254080       8.23651415      -0.00000108       0.00000347       0.00002527
V       -0.00000055      -0.00000023       0.00000217       0.00000260       0.00000993      -0.00005405
O        1.51972801       1.07460955       5.49100642       0.00208569       0.00147575      -0.00001460
O        4.82074023       3.40877722       5.49100547      -0.00209260      -0.00147992      -0.00001348
O        3.99548772       1.07460998       4.06162604      -0.00105667       0.00149685       0.00180900
O        2.34498045       3.40877786       6.92038593       0.00103164      -0.00146037      -0.00179702
O        2.34498107       3.40877903       4.06162562       0.00106299      -0.00149965       0.00182021
O        3.99548621       1.07460903       6.92038525      -0.00103068       0.00145340      -0.00179052
