9
Lattice="4.736446950368374 -1.3344570534300565e-08 2.7345890144917164 1.5788156390016155 4.465565334987096 2.7345890119625738 2.3296531721251813e-08 1.3375599339913746e-08 5.469177988632647" Properties=species:S:1:pos:R:3:forces:R:3 energy=-57.97719955444336 free_energy=-57.97719955444336 stress="0.0001594405621290207 -1.3808855214847426e-07 -3.2147642770041784e-08 -1.3808855214847426e-07 0.0001594374334672466 1.6954098569499365e-08 -3.2147642770041784e-08 1.6954098569499365e-08 0.00015951508248690516" pbc="T T T"
Sn       1.57881541       1.11639237       2.73458900      -0.00000181       0.00000354       0.00000113
Sn       4.73644667       3.34917329       8.20376776      -0.00000119      -0.00000211       0.00000470
W       -0.00000007       0.00000001      -0.00000005       0.00000333       0.00000208      -0.00000644
N        1.62243535       1.14723460       5.46917769      -0.00208426      -0.00147402      -0.00000220
N        4.69282769       3.31833017       5.46917763       0.00208318       0.00147009      -0.00000187
N        3.92522970       1.14723544       4.13965882       0.00104684      -0.00147319      -0.00181115
N        2.39003311       3.31833009       6.79869699      -0.00104851       0.00147653       0.00181317
N        2.39003355       3.31833028       4.13965883      -0.00104332       0.00147545      -0.00181079
N        3.92522925       1.14723519       6.79869704       0.00104678      -0.00147820       0.00181317
