9
Lattice="6.039693551693582 7.841676178681714e-08 3.4870185638654925 2.0132311574544346 5.69427786336056 3.487018737720861 -1.4762835583851783e-07 1.0853946949102772e-07 6.974037383430784" Properties=species:S:1:pos:R:3:forces:R:3 energy=-36.17032241821289 free_energy=-36.17032241821289 stress="-9.760136163095012e-05 -3.8814458314107014e-09 -1.9209947410558925e-08 -3.8814458314107014e-09 -9.761761612026021e-05 5.8879172648573785e-09 -1.9209947410558925e-08 5.8879172648573785e-09 -9.75963193923235e-05" pbc="T T T"
Sn       2.01323152       1.42356874       3.48701863       0.00000256      -0.00000424       0.00000051
Sn       6.03969370       4.27070892      10.46105539       0.00000081       0.00000215      -0.00000209
Y        0.00000009      -0.00000046       0.00000066       0.00000225       0.00000544      -0.00000565
Se       2.24895605       1.59025256       6.97403734      -0.00179347      -0.00126965       0.00000021
Se       5.80396846       4.10402628       6.97403765       0.00178954       0.00126927       0.00000196
Se       4.91521535       1.59025163       5.43467152       0.00089537      -0.00127079      -0.00155246
Se       3.13770941       4.10402622       8.51340282      -0.00089546       0.00127076       0.00155389
Se       3.13770865       4.10402630       5.43467160      -0.00089668       0.00126764      -0.00155041
Se       4.91521499       1.59025205       8.51340311       0.00089526      -0.00127061       0.00155394
