9
Lattice="6.573501121044869 5.467322643494191e-08 3.795212532288741 2.19116707901049 6.1975560125739 3.7952125546047975 -1.431430009790766e-08 1.7209785075027178e-08 7.590425089370529" Properties=species:S:1:pos:R:3:forces:R:3 energy=-33.8798828125 free_energy=-33.8798828125 stress="3.179361374350265e-05 2.0089311547621946e-08 -4.234213424325617e-09 2.0089311547621946e-08 3.1792264053365216e-05 6.634178095765719e-09 -4.234213424325617e-09 6.634178095765719e-09 3.177539838361554e-05" pbc="T T T"
Sn       2.19116724       1.54938825       3.79521208       0.00000079      -0.00000257      -0.00000335
Sn       6.57350009       4.64816771      11.38563871      -0.00000373       0.00000214       0.00000369
Y        0.00000034       0.00000021      -0.00000050      -0.00000286      -0.00000081       0.00000401
Te       2.43924529       1.72480615       7.59042530      -0.00315029      -0.00223038       0.00000054
Te       6.32542285       4.47274956       7.59042483       0.00315318       0.00223110      -0.00000131
Te       5.35387890       1.72480706       5.90766069       0.00157677      -0.00222705      -0.00273030
Te       3.41078955       4.47274937       9.27318951      -0.00157584       0.00222765       0.00272904
Te       3.41079007       4.47274978       5.90766050      -0.00157284       0.00222851      -0.00272960
Te       5.35387846       1.72480626       9.27318961       0.00157481      -0.00222857       0.00272732
