9
Lattice="4.842284919310802 1.2256856087847307e-07 2.7956943708897986 1.6140950423188252 4.565350041460273 2.7956944511591457 1.3216595506178868e-09 9.924398526920943e-08 5.5913887394904505" Properties=species:S:1:pos:R:3:forces:R:3 energy=-48.7877082824707 free_energy=-48.7877082824707 stress="-5.216827048570849e-05 1.3873960824639653e-07 -3.172659646111242e-08 1.3873960824639653e-07 -5.2116287406533957e-05 -3.801643722045611e-10 -3.172659646111242e-08 -3.801643722045611e-10 -5.203799082664773e-05" pbc="T T T"
Sn       1.61409579       1.14133800       2.79569474       0.00000765       0.00000282       0.00000221
Sn       4.84228424       3.42401270       8.38708393      -0.00000479      -0.00000062       0.00000628
Y        0.00000028      -0.00000008       0.00000018      -0.00000588       0.00000167       0.00000328
O        1.79961638       1.27252093       5.59138869       0.00042549       0.00030088      -0.00000256
O        4.65676396       3.29282910       5.59138854      -0.00042436      -0.00030118      -0.00000260
O        3.94247657       1.27252129       4.35420698      -0.00021675       0.00030461       0.00036380
O        2.51390303       3.29282917       6.82857025       0.00021552      -0.00030509      -0.00036967
O        2.51390328       3.29282946       4.35420705       0.00021882      -0.00030372       0.00036827
O        3.94247631       1.27252052       6.82856985      -0.00021596       0.00030029      -0.00036901
