9
Lattice="5.869453717167668 6.400590883045299e-08 3.3887306563957 1.9564846550220711 5.5337741255738315 3.3887306177925782 1.4514441012056983e-08 -3.7015674163655455e-08 6.7774612876516285" Properties=species:S:1:pos:R:3:forces:R:3 energy=-38.42278289794922 free_energy=-38.42278289794922 stress="-0.0001206084416480735 3.8446717809392794e-08 2.6882782222514834e-08 3.8446717809392794e-08 -0.00012067289935657755 -3.393274639051924e-08 2.6882782222514834e-08 -3.393274639051924e-08 -0.00012063056783517823" pbc="T T T"
Sn       1.95648454       1.38344434       3.38873051      -0.00000126       0.00000244      -0.00000107
Sn       5.86945371       4.15032974      10.16619136       0.00000049      -0.00000360      -0.00000385
Y        0.00000018       0.00000018      -0.00000059      -0.00000263       0.00000066       0.00000842
S        2.15173413       1.52150614       6.77746175      -0.00197423      -0.00139378       0.00000004
S        5.67420389       4.01226803       6.77746184       0.00197645       0.00139505       0.00000214
S        4.79358668       1.52150600       5.25218705       0.00098596      -0.00139351      -0.00170948
S        3.03235148       4.01226798       8.30273567      -0.00098496       0.00139154       0.00170621
S        3.03235186       4.01226794       5.25218713      -0.00098701       0.00139446      -0.00171156
S        4.79358711       1.52150628       8.30273554       0.00098721      -0.00139336       0.00170904
