9
Lattice="5.483537159467543 -2.6463474585529667e-07 3.1659214804762597 1.827845525779449 5.16992783574105 3.1659213844219596 -1.782290517119218e-07 -2.436689901285483e-07 6.331843269654386" Properties=species:S:1:pos:R:3:forces:R:3 energy=-31.68636131286621 free_energy=-31.68636131286621 stress="-0.0002498547837603837 1.2011521555166382e-08 3.3775055641172e-08 1.2011521555166382e-08 -0.0002497602254152298 1.252599890477768e-08 3.3775055641172e-08 1.252599890477768e-08 -0.000249749980866909" pbc="T T T"
Sn       1.82784622       1.29247966       3.16592153       0.00000071      -0.00000498      -0.00000036
Sn       5.48353635       3.87744387       9.49776551       0.00000037      -0.00000419       0.00000174
Zn      -0.00000001       0.00000009      -0.00000009      -0.00000216       0.00000057       0.00000111
S        1.91307991       1.35275271       6.33184317      -0.00073726      -0.00051698      -0.00000013
S        5.39830230       3.81717581       6.33184222       0.00073811       0.00052238      -0.00000124
S        4.52699694       1.35275262       4.82269799       0.00037009      -0.00052020      -0.00063783
S        2.78438553       3.81717595       7.84098803      -0.00036944       0.00052090       0.00063798
S        2.78438640       3.81717640       4.82269814      -0.00036827       0.00052354      -0.00063975
S        4.52699637       1.35275221       7.84098815       0.00036790      -0.00052099       0.00063846
