9
Lattice="4.5518796129697465 -1.1440674539465465e-07 2.6280288699390812 1.5172930774865654 4.291553383435079 2.628028902801261 -1.1170482106809336e-07 -3.873945300431337e-08 5.256057933356595" Properties=species:S:1:pos:R:3:forces:R:3 energy=-40.47138977050781 free_energy=-40.47138977050781 stress="0.00045551403309218585 3.245077317970413e-09 -1.6725021367847148e-08 3.245077317970413e-09 0.00045558481360785663 1.0187466870092976e-08 -1.6725021367847148e-08 1.0187466870092976e-08 0.0004556655476335436" pbc="T T T"
Sn       1.51729385       1.07288995       2.62802931       0.00000281       0.00001304       0.00000364
Sn       4.55187982       3.21866563       7.88408676       0.00000389       0.00000625       0.00000177
Zn      -0.00000006       0.00000010       0.00000036       0.00000627       0.00000037      -0.00001247
O        1.60039834       1.13165262       5.25605781      -0.00810188      -0.00572932      -0.00000244
O        4.46877461       3.15989991       5.25605821       0.00810117       0.00571921       0.00000213
O        3.75167994       1.13165225       4.01401440       0.00404373      -0.00572544      -0.00701129
O        2.31749197       3.15990030       6.49810083      -0.00405452       0.00572804       0.00701797
O        2.31749220       3.15990007       4.01401414      -0.00404942       0.00572217      -0.00701559
O        3.75167959       1.13165215       6.49810085       0.00404790      -0.00573453       0.00701612
