9
Lattice="5.706563667373166 4.511325896862469e-09 3.294685902739373 1.9021877978405868 5.380200049540178 3.294686068214614 -1.7539390020911605e-07 7.864263119821788e-08 6.589372109269866" Properties=species:S:1:pos:R:3:forces:R:3 energy=-29.941205978393555 free_energy=-29.941205978393555 stress="-4.663423169404268e-05 -2.5015491900148845e-09 1.3044338054157834e-08 -2.5015491900148845e-09 -4.6643246605526656e-05 6.071553038111688e-09 1.3044338054157834e-08 6.071553038111688e-09 -4.6628276322735474e-05" pbc="T T T"
Sn       1.90218785       1.34504968       3.29468620       0.00000003      -0.00000109       0.00000062
Sn       5.70656364       4.03514998       9.88405779       0.00000027       0.00000021       0.00000020
Zn       0.00000010      -0.00000002       0.00000001       0.00000014       0.00000111       0.00000012
Se       2.09572553       1.48190230       6.58937221      -0.00042677      -0.00030161       0.00000022
Se       5.51302571       3.89829836       6.58937208       0.00042745       0.00030220      -0.00000018
Se       4.65870064       1.48190164       5.10963769       0.00021334      -0.00030237      -0.00037016
Se       2.95005078       3.89829824       8.06910606      -0.00021364       0.00030173       0.00036936
Se       2.95005032       3.89829818       5.10963806      -0.00021381       0.00030161      -0.00036910
Se       4.65870052       1.48190217       8.06910617       0.00021294      -0.00030184       0.00036889
