9
Lattice="4.569381027339121 -3.1337687668701046e-09 2.638133482564205 1.523127026430359 4.3080536774338505 2.63813344745231 1.548608132747092e-08 -3.205280275193313e-08 5.276266938305733" Properties=species:S:1:pos:R:3:forces:R:3 energy=-51.46438980102539 free_energy=-51.46438980102539 stress="0.0003871644730679691 3.761726929951692e-08 -1.427492151151455e-07 3.761726929951692e-08 0.0003871187218464911 -2.4755381744512306e-08 -1.427492151151455e-07 -2.4755381744512306e-08 0.00038696813862770796" pbc="T T T"
Sn       1.52312703       1.07701330       2.63813364       0.00000374      -0.00000147       0.00000424
Sn       4.56938119       3.23104017       7.91440003       0.00000228       0.00000112      -0.00000442
Zr       0.00000033       0.00000006       0.00000009      -0.00000288      -0.00000002      -0.00000467
N        1.80219422       1.27434404       5.27626654      -0.00508706      -0.00359571      -0.00001277
N        4.29031418       3.03371076       5.27626875       0.00509445       0.00361216       0.00003099
N        3.66828309       1.27434256       4.19887872       0.00252837      -0.00361747      -0.00441983
N        2.42422456       3.03371008       6.35365441      -0.00253200       0.00360166       0.00440738
N        2.42422323       3.03370971       4.19887864      -0.00255872       0.00359052      -0.00441179
N        3.66828447       1.27434388       6.35365463       0.00255156      -0.00359099       0.00441054
