9
Lattice="6.223681380424941 -2.1687495028121328e-08 3.5932440572888242 2.074560455892712 5.867743000961285 3.593244029232614 -1.0527078976513625e-07 -1.0879930463892617e-07 7.186488296912007" Properties=species:S:1:pos:R:3:forces:R:3 energy=-27.276039123535156 free_energy=-27.276039123535156 stress="-7.283442391781136e-05 2.061342208037331e-08 1.1910330499631527e-08 2.061342208037331e-08 -7.284907042048872e-05 -9.54882306558602e-09 1.1910330499631527e-08 -9.54882306558602e-09 -7.284509774763137e-05" pbc="T T T"
Sn       2.07455896       1.46693524       3.59324408      -0.00000513      -0.00000218       0.00000031
Sn       6.22368266       4.40080762      10.77973204       0.00000446       0.00000209      -0.00000164
Zn      -0.00000033      -0.00000006      -0.00000049       0.00000202       0.00000131       0.00000527
Te       2.21844606       1.56867864       7.18648833       0.00314127       0.00222277      -0.00000050
Te       6.07979591       4.29906438       7.18648853      -0.00314349      -0.00222347       0.00000095
Te       5.11445897       1.56867760       5.51447548      -0.00157020       0.00222040       0.00272360
Te       3.18378296       4.29906545       8.85850116       0.00157179      -0.00222269      -0.00272649
Te       3.18378290       4.29906527       5.51447544       0.00156986      -0.00222100       0.00272402
Te       5.11445886       1.56867736       8.85850092      -0.00157057       0.00222272      -0.00272553
