9
Lattice="6.396207435977275 -1.88261262547597e-07 3.692852463051192 2.1320689625877995 6.030402477236128 3.692852472133319 -6.85299055924304e-09 6.277535329768279e-09 7.385704937972122" Properties=species:S:1:pos:R:3:forces:R:3 energy=-30.887540817260742 free_energy=-30.887540817260742 stress="2.4259961719508283e-05 1.790738224372035e-08 -1.6332386110207153e-08 1.790738224372035e-08 2.4264596504508518e-05 -6.570266553040938e-09 -1.6332386110207153e-08 -6.570266553040938e-09 2.4275379473692738e-05" pbc="T T T"
Sr       2.13206913       1.50760057       3.69285326       0.00000001       0.00000008      -0.00000022
Sr       6.39620725       4.52280139      11.07855638      -0.00000012      -0.00000012       0.00000041
Ag       0.00000024       0.00000015       0.00000053       0.00000039       0.00000016      -0.00000497
Te       2.32006147       1.64053191       7.38570506       0.00081842       0.00057818      -0.00000090
Te       6.20821513       4.38987042       7.38570552      -0.00081787      -0.00057869       0.00000010
Te       5.23617681       1.64053052       5.70208451      -0.00041052       0.00057968       0.00070964
Te       3.29209963       4.38987141       9.06932465       0.00040762      -0.00057662      -0.00070669
Te       3.29209889       4.38987187       5.70208480       0.00040967      -0.00057960       0.00070922
Te       5.23617697       1.64053097       9.06932476      -0.00040769       0.00057688      -0.00070657
