9
Lattice="5.632530340995049 -1.4898069680409704e-08 3.2519429168334986 1.8775102075214662 5.310399732862397 3.2519427299409345 1.9639041147804653e-07 -9.00267685700584e-08 6.5038854935088555" Properties=species:S:1:pos:R:3:forces:R:3 energy=-34.61693572998047 free_energy=-34.61693572998047 stress="-1.9503691873978823e-05 8.781092475373953e-08 8.82234729715492e-09 8.781092475373953e-08 -1.9562254237825982e-05 -2.5349507382088632e-08 8.82234729715492e-09 -2.5349507382088632e-08 -1.9651459297165275e-05" pbc="T T T"
Sr       1.87751055       1.32759978       3.25194304      -0.00000070       0.00000013      -0.00000004
Sr       5.63253051       3.98279995       9.75582800      -0.00000070      -0.00000088       0.00000126
Ag       0.00000019       0.00000104      -0.00000164       0.00000060      -0.00002557       0.00003619
S        1.97852400       1.39902731       6.50388538       0.00077420       0.00054798      -0.00000238
S        5.53151571       3.91137232       6.50388574      -0.00076407      -0.00053978      -0.00000156
S        4.64326850       1.39902643       4.96539411      -0.00038585       0.00054610       0.00066680
S        2.86677238       3.91137291       8.04237709       0.00038892      -0.00054830      -0.00067383
S        2.86677207       3.91137253       4.96539489       0.00037968      -0.00053638       0.00065589
S        4.64326892       1.39902627       8.04237800      -0.00039202       0.00055656      -0.00068218
