9
Lattice="4.810014528869045 1.3664602473337639e-08 2.7770631420334078 1.6033381717450785 4.534925175881145 2.7770631722190258 1.361222988554601e-09 3.793229181922568e-08 5.554126281709098" Properties=species:S:1:pos:R:3:forces:R:3 energy=-43.203372955322266 free_energy=-43.203372955322266 stress="-3.450222357059829e-05 2.4624258188055137e-08 4.138137654763341e-08 2.4624258188055137e-08 -3.458962237345986e-05 -9.737087580674597e-09 4.138137654763341e-08 -9.737087580674597e-09 -3.4578733902890235e-05" pbc="T T T"
Sr       1.60333799       1.13373149       2.77706321       0.00000098      -0.00000114       0.00000014
Sr       4.81001455       3.40119372       8.33118931      -0.00000078       0.00000091       0.00000075
Ag      -0.00000005       0.00000013      -0.00000004      -0.00000131       0.00000042       0.00000668
O        1.58967871       1.12407262       5.55412636       0.00012648       0.00008973      -0.00000072
O        4.82367414       3.41085270       5.55412615      -0.00012696      -0.00009009       0.00000038
O        4.01517514       1.12407269       4.15376543      -0.00006372       0.00009030       0.00011060
O        2.39817763       3.41085229       6.95448757       0.00006554      -0.00009215      -0.00011542
O        2.39817767       3.41085243       4.15376533       0.00006285      -0.00008932       0.00010985
O        4.01517484       1.12407284       6.95448721      -0.00006294       0.00009117      -0.00011203
