9
Lattice="5.645253817683567 1.4101181164194138e-07 3.2592888835017355 1.8817513745104575 5.322396520884381 3.259288937191755 -1.9279974317709885e-08 5.212359044859318e-08 6.518577800397405" Properties=species:S:1:pos:R:3:forces:R:3 energy=-35.648014068603516 free_energy=-35.648014068603516 stress="8.909634198062122e-05 1.4666269310126268e-09 -2.2915024544545304e-08 1.4666269310126268e-09 8.900033571990207e-05 -3.4056338193977354e-08 -2.2915024544545304e-08 -3.4056338193977354e-08 8.903820707928389e-05" pbc="T T T"
Sr       1.88175116       1.33059901       3.25928881      -0.00000032       0.00000044       0.00000019
Sr       5.64525402       3.99179771       9.77786671      -0.00000010      -0.00000097      -0.00000012
Au       0.00000062       0.00000037       0.00000001      -0.00000761      -0.00000517       0.00000287
S        1.97797089       1.39863677       6.51857784      -0.00304657      -0.00215435       0.00000077
S        5.54903394       3.92375964       6.51857777       0.00305414       0.00215870      -0.00000005
S        4.65626844       1.39863666       4.97226188       0.00152546      -0.00215650      -0.00264215
S        2.87073670       3.92376010       8.06489370      -0.00152349       0.00215584       0.00263989
S        2.87073662       3.92375990       4.97226208      -0.00152498       0.00215685      -0.00264078
S        4.65626834       1.39863668       8.06489360       0.00152376      -0.00215471       0.00264019
