9
Lattice="5.923124930248933 8.822938481350845e-08 3.419717741975006 1.9743750503842683 5.584375816818439 3.419717758513901 -3.0016862743908406e-08 -9.691639372932506e-10 6.839435535940638" Properties=species:S:1:pos:R:3:forces:R:3 energy=-34.07085037231445 free_energy=-34.07085037231445 stress="8.515192894265056e-05 9.906045761454152e-09 -3.6776837131213824e-09 9.906045761454152e-09 8.512151543982327e-05 -3.484179389445785e-09 -3.6776837131213824e-09 -3.484179389445785e-09 8.513006469001994e-05" pbc="T T T"
Sr       1.97437504       1.39609408       3.41971773       0.00000029       0.00000028       0.00000047
Sr       5.92312493       4.18828188      10.25915323      -0.00000001      -0.00000014       0.00000016
Au       0.00000046      -0.00000011      -0.00000131      -0.00000182      -0.00000102       0.00000672
Se       2.11328102       1.49431531       6.83943572      -0.00127226      -0.00089991      -0.00000070
Se       5.78421872       4.09006056       6.83943582       0.00127298       0.00089991      -0.00000086
Se       4.86648479       1.49431496       5.24987263       0.00063646      -0.00089961      -0.00110286
Se       3.03101509       4.09006093       8.42899878      -0.00063567       0.00089964       0.00110009
Se       3.03101513       4.09006080       5.24987274      -0.00063610       0.00089985      -0.00110310
Se       4.86648472       1.49431508       8.42899881       0.00063612      -0.00089893       0.00110012
