9
Lattice="5.8784076209490586 1.6919680028268993e-07 3.3939001250354535 1.9594692890040848 5.54221641154788 3.393900259268017 -1.2672989700043934e-07 7.478903801729415e-08 6.78780046957366" Properties=species:S:1:pos:R:3:forces:R:3 energy=-33.240604400634766 free_energy=-33.240604400634766 stress="-0.00015605491353198886 7.874310981037524e-09 1.7335645807747824e-08 7.874310981037524e-09 -0.00015612581046298146 1.5285399612707806e-08 1.7335645807747824e-08 1.5285399612707806e-08 -0.0001561042881803587" pbc="T T T"
Sr       1.95946909       1.38555419       3.39390031      -0.00000003      -0.00000039      -0.00000019
Sr       5.87840785       4.15666260      10.18170045      -0.00000035       0.00000008      -0.00000024
Ag       0.00000008      -0.00000015       0.00000033      -0.00000003       0.00000067      -0.00000178
Se       2.13018802       1.50627081       6.78780031      -0.00383499      -0.00271222       0.00000088
Se       5.70768824       4.03594583       6.78780053       0.00383511       0.00271285      -0.00000020
Se       4.81331346       1.50627068       5.23869716       0.00191733      -0.00271136      -0.00332123
Se       3.02456359       4.03594589       8.33690344      -0.00191675       0.00271194       0.00332099
Se       3.02456358       4.03594615       5.23869762      -0.00191653       0.00271022      -0.00331923
Se       4.81331313       1.50627059       8.33690334       0.00191620      -0.00271188       0.00332111
