9
Lattice="5.593483899306635 5.710183996300598e-08 3.229399551361274 1.8644946245108354 5.273587722032551 3.2293996594889083 -1.1573860949123185e-08 1.2424489123921046e-07 6.458799122768938" Properties=species:S:1:pos:R:3:forces:R:3 energy=-35.376583099365234 free_energy=-35.376583099365234 stress="-0.00012000642163911834 1.9898299896681237e-08 4.35232250239892e-09 1.9898299896681237e-08 -0.00012000528658973053 3.8178078476391875e-09 4.35232250239892e-09 3.8178078476391875e-09 -0.00012003895972156897" pbc="T T T"
Sr       1.86449471       1.31839707       3.22939944      -0.00000037      -0.00000088       0.00000022
Sr       5.59348395       3.95519093       9.68819878      -0.00000081       0.00000038      -0.00000103
Be      -0.00000019       0.00000014       0.00000059       0.00000191      -0.00000197      -0.00000718
Se       1.82249670       1.28870017       6.45879928      -0.00123698      -0.00087595      -0.00000207
Se       5.63548200       3.98488824       6.45879944       0.00123566       0.00087258      -0.00000214
Se       4.68223585       1.28869938       4.80772740       0.00061487      -0.00086805      -0.00106627
Se       2.77574311       3.98488750       8.10987030      -0.00062057       0.00087765       0.00107461
Se       2.77574250       3.98488815       4.80772774      -0.00061420       0.00087169      -0.00106838
Se       4.68223540       1.28870006       8.10987040       0.00062044      -0.00087544       0.00107232
