9
Lattice="6.916813489503061 -8.965641291212194e-08 3.993424173746835 2.3056043740783125 6.521234252293462 3.993424239380828 -9.076145988442688e-08 1.6206867490543317e-08 7.986848504697104" Properties=species:S:1:pos:R:3:forces:R:3 energy=-31.39676856994629 free_energy=-31.39676856994629 stress="-0.00012915351544506848 -9.758290175909679e-09 -7.157388570711021e-10 -9.758290175909679e-09 -0.0001291505468543619 4.272108444780542e-09 -7.157388570711021e-10 4.272108444780542e-09 -0.000129163934616372" pbc="T T T"
Sr       2.30560454       1.63030848       3.99342399      -0.00000014      -0.00000060       0.00000058
Sr       6.91681328       4.89092558      11.98027249       0.00000021       0.00000070       0.00000064
Ba      -0.00000011      -0.00000027       0.00000059       0.00000007       0.00000274      -0.00000442
Te       2.65349230       1.87630240       7.98684876       0.00414725       0.00293215      -0.00000087
Te       6.56892584       4.64493203       7.98684880      -0.00414918      -0.00293341      -0.00000094
Te       5.59006720       1.87630231       6.29141590      -0.00207463       0.00293379       0.00359209
Te       3.63235085       4.64493152       9.68228066       0.00207265      -0.00292984      -0.00359038
Te       3.63235034       4.64493205       6.29141578       0.00207527      -0.00293511       0.00359316
Te       5.59006684       1.87630263       9.68228065      -0.00207147       0.00292952      -0.00358977
