9
Lattice="5.378198236073593 6.64474230150985e-08 3.1051039555997706 1.792732816991902 5.070614597585663 3.105103940034259 1.4516628415910253e-08 -8.79908288302622e-09 6.210207886055979" Properties=species:S:1:pos:R:3:forces:R:3 energy=-36.834659576416016 free_energy=-36.834659576416016 stress="-0.00015844865993130952 3.4874840793008843e-08 -4.3550838491057675e-09 3.4874840793008843e-08 -0.00015856415848247707 6.479497827172054e-09 -4.3550838491057675e-09 6.479497827172054e-09 -0.0001585151330800727" pbc="T T T"
Sr       1.79273219       1.26765417       3.10510369       0.00000175      -0.00000341       0.00000141
Sr       5.37819852       3.80296076       9.31531123      -0.00000071      -0.00000037       0.00000035
Be       0.00000056       0.00000045       0.00000013       0.00000132       0.00000162       0.00000009
S        1.81291421       1.28192434       6.21020810       0.00051914       0.00036609      -0.00000042
S        5.35801684       3.78869027       6.21020760      -0.00052285      -0.00036792       0.00000034
S        4.47174105       1.28192384       4.67513323      -0.00026126       0.00036934       0.00045174
S        2.69919005       3.78869087       7.74528281       0.00026187      -0.00036813      -0.00045240
S        2.69918992       3.78869051       4.67513341       0.00026105      -0.00036742       0.00045134
S        4.47174095       1.28192336       7.74528286      -0.00026023       0.00037032      -0.00045232
