9
Lattice="6.505507545740245 -2.736614846533097e-07 3.7559568242069363 2.1685022826312843 6.133451405232707 3.75595678022144 6.511651748940982e-08 -7.8266811948465e-09 7.511913535628805" Properties=species:S:1:pos:R:3:forces:R:3 energy=-33.34332275390625 free_energy=-33.34332275390625 stress="-1.885315214167349e-05 -1.375323410712781e-08 -5.2484252499596096e-09 -1.375323410712781e-08 -1.8864857338485308e-05 -2.6406419273428128e-09 -5.2484252499596096e-09 -2.6406419273428128e-09 -1.883869663288351e-05" pbc="T T T"
Sr       2.16850249       1.53336273       3.75595669      -0.00000092       0.00000050       0.00000042
Sr       6.50550753       4.60008827      11.26787029      -0.00000008       0.00000081       0.00000044
Ba      -0.00000077       0.00000156       0.00000163       0.00000416      -0.00000777      -0.00001019
Se       2.52497365       1.78542522       7.51191353       0.00063043       0.00044326       0.00000059
Se       6.14903693       4.34802511       7.51191353      -0.00062984      -0.00044528       0.00000091
Se       5.24302045       1.78542552       5.94264773      -0.00031575       0.00044782       0.00054631
Se       3.43098909       4.34802512       9.08117841       0.00031086      -0.00044040      -0.00053903
Se       3.43098934       4.34802518       5.94264799       0.00031328      -0.00044289       0.00054409
Se       5.24302089       1.78542577       9.08117877      -0.00031209       0.00044394      -0.00054345
