9
Lattice="4.726374820000143 6.1918591982912474e-09 2.7287738680688998 1.575458275600718 4.456069233893379 2.7287738742531706 5.865174959148909e-08 4.9047074053449254e-08 5.457547634550005" Properties=species:S:1:pos:R:3:forces:R:3 energy=-48.87004089355469 free_energy=-48.87004089355469 stress="-0.00021679713972844183 1.042114172733477e-09 1.4087898847492397e-08 1.042114172733477e-09 -0.00021695796749554574 -1.5046271784058263e-08 1.4087898847492397e-08 -1.5046271784058263e-08 -0.00021686533000320196" pbc="T T T"
Sr       1.57545836       1.11401722       2.72877401      -0.00000026       0.00000018      -0.00000008
Sr       4.72637497       3.34205172       8.18632111      -0.00000070       0.00000054       0.00000103
Be      -0.00000025       0.00000085       0.00000164       0.00000183      -0.00001797      -0.00002867
O        1.36712055       0.96669995       5.45754767       0.00759354       0.00537026      -0.00000115
O        4.93471258       3.48936860       5.45754766      -0.00758478      -0.00536355       0.00000056
O        4.04281475       0.96670030       3.91273503      -0.00380114       0.00537565       0.00658283
O        2.25901894       3.48936869       7.00235978       0.00378822      -0.00535747      -0.00656205
O        2.25901855       3.48936949       3.91273480       0.00379622      -0.00537089       0.00657618
O        4.04281413       0.96670033       7.00235992      -0.00379312       0.00536335      -0.00656861
