9
Lattice="6.3068206190350145 5.190381795442671e-08 3.6412444902185923 2.102273642073271 5.946127206415986 3.6412443976241056 4.2767836133159075e-08 -8.316327836377621e-08 7.282488906360981" Properties=species:S:1:pos:R:3:forces:R:3 energy=-32.182586669921875 free_energy=-32.182586669921875 stress="-0.00012747444270644337 1.8113890387638776e-09 1.0978688180784957e-08 1.8113890387638776e-09 -0.00012751073518302292 4.642539686017244e-09 1.0978688180784957e-08 4.642539686017244e-09 -0.00012745759158860892" pbc="T T T"
Sr       2.10227346       1.48653195       3.64124446       0.00000023      -0.00000051      -0.00000018
Sr       6.30682073       4.45959532      10.92373295      -0.00000013       0.00000031       0.00000075
Be      -0.00000023       0.00000030      -0.00000031       0.00000274      -0.00000186       0.00000493
Te       1.95870387       1.38501294       7.28248876       0.00108020       0.00076392       0.00000011
Te       6.45039052       4.56111427       7.28248933      -0.00108062      -0.00076494       0.00000025
Te       5.32746855       1.38501297       5.33753170      -0.00054016       0.00076404       0.00093503
Te       3.08162580       4.56111424       9.22744644       0.00054108      -0.00076552      -0.00093557
Te       3.08162561       4.56111399       5.33753159       0.00053854      -0.00076222       0.00093232
Te       5.32746887       1.38501275       9.22744627      -0.00054188       0.00076681      -0.00093767
