9
Lattice="6.309041598901128 3.841090123035843e-08 3.6425268642683344 2.1030138800884965 5.948221662674178 3.642526903111282 -4.7095117384214886e-08 1.427148931236466e-08 7.2850538101077245" Properties=species:S:1:pos:R:3:forces:R:3 energy=-34.077388763427734 free_energy=-34.077388763427734 stress="2.8746981115546077e-05 2.5037730111421297e-08 3.6605047881721475e-09 2.5037730111421297e-08 2.8703118005068973e-05 -4.693898159047194e-09 3.6605047881721475e-09 -4.693898159047194e-09 2.8718266548821703e-05" pbc="T T T"
Sr       2.10301373       1.48705544       3.64252687       0.00000006      -0.00000085       0.00000028
Sr       6.30904147       4.46116621      10.92758040      -0.00000027       0.00000099      -0.00000080
Ba       0.00000019       0.00000020       0.00000036      -0.00000158      -0.00000210      -0.00000231
S        2.45494308       1.73590676       7.28505385       0.00081927       0.00057862      -0.00000008
S        5.95711238       4.21231479       7.28505384      -0.00081728      -0.00057681      -0.00000019
S        5.08157007       1.73590665       5.76857012      -0.00040947       0.00057882       0.00070944
S        3.33048542       4.21231472       8.80153755       0.00040816      -0.00057837      -0.00070871
S        3.33048532       4.21231497       5.76856996       0.00040980      -0.00057818       0.00070954
S        5.08157006       1.73590713       8.80153738      -0.00040858       0.00057788      -0.00070719
