9
Lattice="6.529244319585601 -1.201746218068453e-07 3.769660900835542 2.1764146833284785 6.155830453935525 3.7696608602449113 2.1111371038490797e-08 -3.478520952330065e-08 7.539321765105153" Properties=species:S:1:pos:R:3:forces:R:3 energy=-29.203283309936523 free_energy=-29.203283309936523 stress="5.4434499361377675e-06 4.473287962269978e-09 1.6401030533685912e-09 4.473287962269978e-09 5.438801963464357e-06 8.381788596523165e-09 1.6401030533685912e-09 8.381788596523165e-09 5.423569746199064e-06" pbc="T T T"
Sr       2.17641478       1.53895740       3.76966092      -0.00000026      -0.00000053      -0.00000015
Sr       6.52924444       4.61687272      11.30898259       0.00000033       0.00000055      -0.00000005
Cd       0.00000055       0.00000104       0.00000124      -0.00000284      -0.00000559      -0.00000764
Te       2.38603760       1.68718305       7.53932152       0.00019708       0.00013874       0.00000000
Te       6.31962072       4.46864654       7.53932159      -0.00019041      -0.00013463       0.00000010
Te       5.33622535       1.68718293       5.83602974      -0.00009856       0.00013855       0.00017098
Te       3.36943406       4.46864671       9.24261329       0.00009419      -0.00013472      -0.00016508
Te       3.36943380       4.46864715       5.83602965       0.00009710      -0.00013775       0.00016904
Te       5.33622482       1.68718359       9.24261364      -0.00009671       0.00013538      -0.00016728
