9
Lattice="6.282396318263971 1.0369704004709942e-07 3.627143456398678 2.094132248877107 5.923099711804327 3.627143378417168 1.7418778490128965e-07 2.7662031619849466e-08 7.254286611095343" Properties=species:S:1:pos:R:3:forces:R:3 energy=-32.17906188964844 free_energy=-32.17906188964844 stress="-6.835742283328727e-07 8.049077848681918e-09 1.4757773891815873e-09 8.049077848681918e-09 -6.997759101068368e-07 -1.3004314292075492e-09 1.4757773891815873e-09 -1.3004314292075492e-09 -6.935518968020915e-07" pbc="T T T"
Sr       2.09413221       1.48077504       3.62714323      -0.00000003      -0.00000011       0.00000021
Sr       6.28239642       4.44232509      10.88143038      -0.00000016      -0.00000027      -0.00000020
Cu       0.00000029       0.00000038      -0.00000037      -0.00000079      -0.00000095       0.00000184
Te       2.22653325       1.57439615       7.25428656      -0.00567402      -0.00401157      -0.00000006
Te       6.14999603       4.34870384       7.25428673       0.00567392       0.00401264      -0.00000004
Te       5.16912988       1.57439542       5.55537761       0.00283749      -0.00401255      -0.00491428
Te       3.20739834       4.34870407       8.95319618      -0.00283653       0.00401182       0.00491296
Te       3.20739810       4.34870370       5.55537741      -0.00283715       0.00401269      -0.00491390
Te       5.16913050       1.57439565       8.95319606       0.00283731      -0.00401174       0.00491352
