9
Lattice="4.829246194004254 -3.0233312485765525e-07 2.788166613059049 1.6097484225603274 4.553056640368095 2.788166654164014 5.531780624903263e-08 8.945869357718465e-08 5.576333130304827" Properties=species:S:1:pos:R:3:forces:R:3 energy=-45.586997985839844 free_energy=-45.586997985839844 stress="6.471706728916615e-05 -1.40213671784295e-07 3.090927691573597e-08 -1.40213671784295e-07 6.483397010015324e-05 1.3942303311864634e-08 3.090927691573597e-08 1.3942303311864634e-08 6.487774953711778e-05" pbc="T T T"
Sr       1.60974968       1.13826451       2.78816683      -0.00000649      -0.00000380      -0.00000256
Sr       4.82924584       3.41479292       8.36449995      -0.00000331      -0.00000523      -0.00000186
Ca      -0.00000313      -0.00000333      -0.00000172       0.00003515       0.00003660       0.00001745
O        1.81600955       1.28411272       5.57633297       0.00078267       0.00055429       0.00000207
O        4.62298927       3.26894645       5.57633318      -0.00083247      -0.00058693       0.00000169
O        3.92124133       1.28411182       4.36087668      -0.00039202       0.00056368       0.00068730
O        2.51775189       3.26894525       6.79179139       0.00041150      -0.00057167      -0.00070244
O        2.51775232       3.26894446       4.36087598       0.00040403      -0.00056061       0.00069371
O        3.92124198       1.28411100       6.79179049      -0.00039917       0.00057387      -0.00069523
