9
Lattice="5.686943117668877 2.007992127405704e-07 3.2833584919393273 1.8956477819885686 5.36170238187281 3.283358688035822 -1.1434037843968063e-08 2.320831054320317e-07 6.566717003683056" Properties=species:S:1:pos:R:3:forces:R:3 energy=-32.15731430053711 free_energy=-32.15731430053711 stress="-3.4548513212939724e-05 -5.12486195702877e-08 7.824168868353354e-09 -5.12486195702877e-08 -3.46341184922494e-05 -2.2932642451678475e-08 7.824168868353354e-09 -2.2932642451678475e-08 -3.459766594460234e-05" pbc="T T T"
Sr       1.89564819       1.34042588       3.28335840      -0.00000116       0.00000015      -0.00000017
Sr       5.68694282       4.02127700       9.85007509       0.00000012       0.00000005      -0.00000022
Cd      -0.00000040      -0.00000010       0.00000016       0.00000174       0.00000181      -0.00000168
S        2.03863064       1.44152959       6.56671679       0.00019819       0.00014064      -0.00000069
S        5.54396009       3.92017313       6.56671733      -0.00019997      -0.00013953      -0.00000074
S        4.66762801       1.44152991       5.04886477      -0.00009909       0.00014007       0.00017211
S        2.91496405       3.92017269       8.08457011       0.00010028      -0.00013986      -0.00017083
S        2.91496252       3.92017234       5.04886460       0.00009945      -0.00014207       0.00017324
S        4.66762754       1.44153070       8.08456938      -0.00009966       0.00013897      -0.00017107
