9
Lattice="6.674971147563702 2.3865477608467576e-08 3.853796406624554 2.2249903888086697 6.293223167534869 3.8537964347064957 2.3330754851040985e-08 5.089065010278309e-08 7.707592772839026" Properties=species:S:1:pos:R:3:forces:R:3 energy=-32.08949661254883 free_energy=-32.08949661254883 stress="-1.901651376101654e-05 -1.3305266222118917e-08 4.5839181339601964e-09 -1.3305266222118917e-08 -1.899553717521485e-05 4.1988498789002904e-10 4.5839181339601964e-09 4.1988498789002904e-10 -1.897200127132237e-05" pbc="T T T"
Sr       2.22498990       1.57330619       3.85379602      -0.00000039      -0.00000060      -0.00000053
Sr       6.67497176       4.71991749      11.56138926       0.00000041       0.00000029       0.00000031
Ca      -0.00000027      -0.00000007       0.00000051       0.00000141       0.00000052      -0.00000438
Te       2.48503169       1.75718270       7.70759290      -0.00099751      -0.00070532      -0.00000079
Te       6.41493025       4.53604037       7.70759283       0.00099567       0.00070442       0.00000002
Te       5.43245562       1.75718237       6.00589711       0.00049796      -0.00070426      -0.00086290
Te       3.46750597       4.53604018       9.40928851      -0.00050012       0.00070729       0.00086498
Te       3.46750603       4.53604080       6.00589719      -0.00049738       0.00070469      -0.00086250
Te       5.43245524       1.75718298       9.40928814       0.00049996      -0.00070707       0.00086583
