9
Lattice="5.7923976313292 1.9451602842701087e-07 3.344242209069542 1.9307994043702215 5.461125041656876 3.344242190821192 -3.162197753810814e-08 -4.470973753392633e-08 6.688484472910028" Properties=species:S:1:pos:R:3:forces:R:3 energy=-42.011775970458984 free_energy=-42.011775970458984 stress="-9.30792884901166e-05 9.777278542344447e-09 9.4993053423309e-09 9.777278542344447e-09 -9.311466419603676e-05 -1.7559257159405206e-08 9.4993053423309e-09 -1.7559257159405206e-08 -9.315327770309523e-05" pbc="T T T"
Sr       1.93079943       1.36528133       3.34424236      -0.00000039       0.00000008       0.00000026
Sr       5.79239752       4.09584373      10.03272649       0.00000009      -0.00000020       0.00000004
Cr       0.00000060       0.00000038      -0.00000031      -0.00000322      -0.00000223       0.00000240
Se       2.00648790       1.41880111       6.68848447       0.00305958       0.00216401       0.00000036
Se       5.71670881       4.04232396       6.68848441      -0.00305629      -0.00216161      -0.00000016
Se       4.78915368       1.41880085       5.08191160      -0.00152873       0.00216377       0.00264896
Se       2.93404327       4.04232433       8.29505736       0.00153049      -0.00216373      -0.00265006
Se       2.93404302       4.04232421       5.08191151       0.00152840      -0.00216374       0.00264761
Se       4.78915377       1.41880085       8.29505762      -0.00152989       0.00216372      -0.00264960
