9
Lattice="5.727183625191856 -5.0875995744661856e-08 3.306591124098049 1.9090611185579356 5.399640783430311 3.3065911966242014 8.896110978837219e-08 1.5173103239777753e-07 6.613182094110912" Properties=species:S:1:pos:R:3:forces:R:3 energy=-34.88011169433594 free_energy=-34.88011169433594 stress="-6.81082674418576e-05 1.7127282703199853e-08 -1.8519861200161358e-08 1.7127282703199853e-08 -6.81273959344253e-05 -2.5032925732304534e-10 -1.8519861200161358e-08 -2.5032925732304534e-10 -6.812857463955879e-05" pbc="T T T"
Sr       1.90906098       1.34991004       3.30659120      -0.00000034       0.00000039       0.00000009
Sr       5.72718385       4.04973067       9.91977329      -0.00000005      -0.00000051       0.00000058
Cu      -0.00000009       0.00000013      -0.00000040      -0.00000046      -0.00000006       0.00000182
Se       2.00116986       1.41504082       6.61318226       0.00747487       0.00528595      -0.00000046
Se       5.63507502       3.98460009       6.61318236      -0.00747517      -0.00528620      -0.00000052
Se       4.72659879       1.41504091       5.03965502      -0.00373715       0.00528614       0.00647277
Se       2.90964594       3.98460015       8.18670950       0.00373763      -0.00528593      -0.00647372
Se       2.90964610       3.98459993       5.03965495       0.00373778      -0.00528590       0.00647295
Se       4.72659890       1.41504078       8.18670951      -0.00373708       0.00528620      -0.00647327
