9
Lattice="5.972952258573906 -3.118836361388925e-07 3.448485716348333 1.9909838938598676 5.631353091008987 3.4484855401722587 3.470257814916508e-08 -1.912323780479617e-07 6.896971372590087" Properties=species:S:1:pos:R:3:forces:R:3 energy=-31.381668090820312 free_energy=-31.381668090820312 stress="-0.00021567502699326724 1.5624559424054496e-08 -4.640286377366465e-09 1.5624559424054496e-08 -0.00021569064119830728 9.976133696909528e-09 -4.640286377366465e-09 9.976133696909528e-09 -0.00021567947987932712" pbc="T T T"
Sr       1.99098383       1.40783793       3.44848563       0.00000016       0.00000073      -0.00000004
Sr       5.97295207       4.22351452      10.34545715       0.00000033       0.00000019      -0.00000040
Cd       0.00000009      -0.00000017      -0.00000037       0.00000003       0.00000039       0.00000011
Se       2.22824708       1.57560853       6.89697120      -0.00800520      -0.00566193       0.00000072
Se       5.73568887       4.05574400       6.89697134       0.00800359       0.00565979       0.00000007
Se       4.85882851       1.57560818       5.37820442       0.00400214      -0.00566015      -0.00693247
Se       3.10510763       4.05574460       8.41573839      -0.00400226       0.00566164       0.00693303
Se       3.10510781       4.05574459       5.37820419      -0.00400203       0.00566053      -0.00693348
Se       4.85882888       1.57560811       8.41573849       0.00400321      -0.00566137       0.00693244
