9
Lattice="4.844897610120079 -6.663203855584722e-08 2.7972029636667797 1.6149659136178105 4.567812729152783 2.797202779378201 -1.688401885856241e-08 -2.3764529074680905e-07 5.594405956577474" Properties=species:S:1:pos:R:3:forces:R:3 energy=-46.60456085205078 free_energy=-46.60456085205078 stress="-0.00028107286198064685 1.668097304730054e-08 -2.196704151913309e-08 1.668097304730054e-08 -0.00028124594246037304 -2.9543720359015424e-08 -2.196704151913309e-08 -2.9543720359015424e-08 -0.0002810924779623747" pbc="T T T"
Sr       1.61496592       1.14195295       2.79720246      -0.00000010       0.00000036       0.00000168
Sr       4.84489776       3.42585953       8.39160948       0.00000079       0.00000021      -0.00000136
Cu      -0.00000017       0.00000022      -0.00000074       0.00000024      -0.00000571       0.00001476
O        1.52341182       1.07721425       5.59440570       0.00366247       0.00258975       0.00000107
O        4.93645201       3.49059797       5.59440563      -0.00366067      -0.00258774      -0.00000033
O        4.08319210       1.07721423       4.11651588      -0.00182995       0.00258841       0.00316940
O        2.37667127       3.49059831       7.07229610       0.00183237      -0.00259224      -0.00317528
O        2.37667141       3.49059821       4.11651594       0.00182878      -0.00258610       0.00316674
O        4.08319199       1.07721405       7.07229619      -0.00183393       0.00259312      -0.00317640
