9
Lattice="5.375813225380816 -2.4758481505275296e-06 3.1037287506335565 1.791935801576016 5.068359877732884 3.1037280681458355 -1.5848921150466712e-06 -1.9565613151284254e-06 6.207460246380791" Properties=species:S:1:pos:R:3:forces:R:3 energy=-39.3068962097168 free_energy=-39.3068962097168 stress="-3.0807081202510744e-05 3.242829293981231e-08 -3.2249886317003984e-08 3.242829293981231e-08 -3.0750903533771634e-05 -2.107520735705748e-08 -3.2249886317003984e-08 -2.107520735705748e-08 -3.0706883990205824e-05" pbc="T T T"
Sr       1.79193738       1.26708902       3.10373222      -0.00000558      -0.00000286      -0.00000781
Sr       5.37580937       3.80126873       9.31118763       0.00000845      -0.00000386      -0.00000270
C        0.00000157       0.00000214      -0.00000878       0.00001393       0.00008290      -0.00013310
S        1.62444184       1.14865344       6.20745972       0.00149775       0.00106689      -0.00000753
S        5.54330039       3.91970275       6.20745525      -0.00156587      -0.00109878      -0.00001420
S        4.56358945       1.14865417       4.51053939      -0.00078356       0.00111133       0.00134856
S        2.60415698       3.91969961       7.90437759       0.00074688      -0.00105375      -0.00129867
S        2.60416189       3.91970209       4.51054058       0.00081536      -0.00113246       0.00138295
S        4.56359128       1.14864995       7.90438076      -0.00072792       0.00103059      -0.00126725
