9
Lattice="6.339460042783588 -1.2058311702872153e-07 3.6600890731914 2.1131532204953856 5.976900077847649 3.660089096422188 5.521426827659104e-08 6.749412583822337e-08 7.320178050748874" Properties=species:S:1:pos:R:3:forces:R:3 energy=-38.518863677978516 free_energy=-38.518863677978516 stress="7.296569492609706e-06 3.914097934654137e-09 9.877778595068776e-09 3.914097934654137e-09 7.3046012403210625e-06 -1.6798372470816503e-08 9.877778595068776e-09 -1.6798372470816503e-08 7.297778211068362e-06" pbc="T T T"
Sr       2.11315352       1.49422525       3.66008919      -0.00000011      -0.00000015      -0.00000024
Sr       6.33946004       4.48267480      10.98026687      -0.00000008      -0.00000027       0.00000025
Cr      -0.00000025      -0.00000017       0.00000020       0.00000206       0.00000103       0.00000027
Te       2.21126363       1.56359953       7.32017795      -0.00739354      -0.00522742      -0.00000032
Te       6.24135010       4.41330059       7.32017813       0.00739048       0.00522708      -0.00000082
Te       5.23382801       1.56359910       5.57509969       0.00369599      -0.00522647      -0.00640219
Te       3.21878511       4.41330045       9.06525667      -0.00369596       0.00522775       0.00640038
Te       3.21878509       4.41330068       5.57509968      -0.00369606       0.00522773      -0.00640174
Te       5.23382805       1.56359983       9.06525652       0.00369710      -0.00522935       0.00640446
