9
Lattice="5.985301313419791 3.8807887121137183e-07 3.4556150091509603 1.995100793027517 5.642996279207969 3.455615027620248 -5.172991331121401e-08 -1.3958338886910686e-08 6.911230107900752" Properties=species:S:1:pos:R:3:forces:R:3 energy=-35.17388916015625 free_energy=-35.17388916015625 stress="-4.407420783536509e-05 3.2302811092677075e-08 1.2841123719908865e-08 3.2302811092677075e-08 -4.405636718729511e-05 4.335901415686294e-09 1.2841123719908865e-08 4.335901415686294e-09 -4.4105443521402776e-05" pbc="T T T"
Sr       1.99510088       1.41074926       3.45561487       0.00000016      -0.00000009      -0.00000073
Sr       5.98530184       4.23224727      10.36684551       0.00000034       0.00000045      -0.00000045
Ca       0.00000123       0.00000077      -0.00000219      -0.00000924      -0.00000572       0.00001660
S        2.20503748       1.55919690       6.91123060       0.00220023       0.00155513       0.00000035
S        5.77536436       4.08379993       6.91122986      -0.00219540      -0.00155085      -0.00000250
S        4.88278276       1.55919658       5.36523355      -0.00109382       0.00155352       0.00190115
S        3.09761863       4.08379982       8.45722732       0.00110251      -0.00155498      -0.00190817
S        3.09761866       4.08379933       5.36523332       0.00109742      -0.00155347       0.00190096
S        4.88278242       1.55919669       8.45722772      -0.00110216       0.00155597      -0.00190739
