9
Lattice="6.226080626490576 7.90265209330518e-08 3.5946293010043413 2.075360262549972 5.870004855654843 3.594629337008682 1.2239848464341462e-09 4.496160591951986e-08 7.1892585998885945" Properties=species:S:1:pos:R:3:forces:R:3 energy=-34.18263244628906 free_energy=-34.18263244628906 stress="-6.56747943139635e-05 -9.99742422180816e-09 2.1470514255383932e-09 -9.99742422180816e-09 -6.564657087437809e-05 1.1897807183913756e-08 2.1470514255383932e-09 1.1897807183913756e-08 -6.566442607436329e-05" pbc="T T T"
Sr       2.07536002       1.46750117       3.59462935       0.00000021      -0.00000060      -0.00000009
Sr       6.22608086       4.40250386      10.78388766       0.00000032      -0.00000026      -0.00000005
Ca       0.00000020      -0.00000005       0.00000033      -0.00000098      -0.00000078      -0.00000090
Se       2.33721566       1.65266116       7.18925847      -0.00104444      -0.00073839      -0.00000043
Se       5.96422488       4.21734385       7.18925848       0.00104618       0.00073927      -0.00000006
Se       5.05747278       1.65266146       5.61871760       0.00052178      -0.00073839      -0.00090449
Se       3.24396813       4.21734338       8.75979947      -0.00052299       0.00073879       0.00090513
Se       3.24396829       4.21734358       5.61871802      -0.00052239       0.00073858      -0.00090455
Se       5.05747275       1.65266157       8.75979959       0.00052232      -0.00073828       0.00090549
