9
Lattice="5.4868811329478495 6.879736305771026e-08 3.167852113038025 1.8289603293012004 5.17308189534622 3.1678523091250472 -2.1977166999259252e-07 8.475455455228947e-08 6.3357046067317775" Properties=species:S:1:pos:R:3:forces:R:3 energy=-45.133480072021484 free_energy=-45.133480072021484 stress="0.000260982196778059 1.8196120166180663e-08 -4.365852568355422e-09 1.8196120166180663e-08 0.0002610723895486444 -4.929591845836967e-09 -4.365852568355422e-09 -4.929591845836967e-09 0.0002609725052025169" pbc="T T T"
Sr       1.82896024       1.29327058       3.16785220       0.00000056       0.00000067      -0.00000100
Sr       5.48688086       3.87981154       9.50355682       0.00000072      -0.00000069      -0.00000103
Cr      -0.00000068       0.00000066       0.00000058       0.00000198      -0.00000208       0.00000005
S        1.84550862       1.30497149       6.33570435       0.00556898       0.00393686       0.00000043
S        5.47033304       3.86811023       6.33570419      -0.00556773      -0.00393903       0.00000010
S        4.56412701       1.30497183       4.76610900      -0.00278616       0.00393805       0.00482741
S        2.75171421       3.86811062       7.90529967       0.00278425      -0.00393891      -0.00482047
S        2.75171477       3.86810979       4.76610940       0.00278261      -0.00393546       0.00482050
S        4.56412692       1.30497141       7.90529970      -0.00278503       0.00394055      -0.00482613
