9
Lattice="6.232279084649039 -7.536307888556616e-08 3.598208042965633 2.0774262719759933 5.875848896367161 3.598208075044656 -2.3794848571393114e-08 2.246315424618311e-08 7.196416127145267" Properties=species:S:1:pos:R:3:forces:R:3 energy=-35.784610748291016 free_energy=-35.784610748291016 stress="-9.95069058262743e-05 -8.804742712698044e-09 -3.1291140789591054e-09 -8.804742712698044e-09 -9.94821239146404e-05 8.709656107441788e-09 -3.1291140789591054e-09 8.709656107441788e-09 -9.948937076842412e-05" pbc="T T T"
Sr       2.07742647       1.46896174       3.59820790      -0.00000016       0.00000034      -0.00000003
Sr       6.23227865       4.40688708      10.79462463       0.00000011      -0.00000014      -0.00000016
Co      -0.00000051      -0.00000023       0.00000129       0.00000405       0.00000270      -0.00001255
Te       2.05811817       1.45530871       7.19641612       0.00338485       0.00239245       0.00000121
Te       6.25158788       4.42054006       7.19641608      -0.00338647      -0.00239445       0.00000083
Te       5.20321950       1.45530937       5.38059056      -0.00169262       0.00239319       0.00293191
Te       3.10648597       4.42053961       9.01224080       0.00168972      -0.00239093      -0.00292601
Te       3.10648574       4.42053963       5.38059043       0.00169248      -0.00239477       0.00293269
Te       5.20321951       1.45530935       9.01224117      -0.00169197       0.00239160      -0.00292783
