9
Lattice="4.823144204337296 -8.94033129578585e-09 2.7846432990323096 1.6077148121156213 4.547303599606916 2.7846431504820064 1.8602911874310937e-07 -5.039371461641184e-08 5.569286275852747" Properties=species:S:1:pos:R:3:forces:R:3 energy=-55.23045349121094 free_energy=-55.23045349121094 stress="-4.462617653189227e-05 1.492575840700283e-08 6.500199845049792e-08 1.492575840700283e-08 -4.4534517655847594e-05 -2.118138731077579e-08 6.500199845049792e-08 -2.118138731077579e-08 -4.466766768018715e-05" pbc="T T T"
Sr       1.60771475       1.13682578       2.78464313       0.00000068       0.00000002      -0.00000058
Sr       4.82314441       3.41047756       8.35392957       0.00000010      -0.00000127      -0.00000001
Cr       0.00000035      -0.00000068       0.00000046       0.00000027       0.00000001       0.00000090
O        1.49807676       1.05930080       5.56928644       0.00000289      -0.00000001      -0.00000256
O        4.93278231       3.48800320       5.56928615      -0.00000331      -0.00000143      -0.00000210
O        4.07410636       1.05930012       4.08201513      -0.00000550       0.00000651       0.00000939
O        2.35675294       3.48800309       7.05655741       0.00000192       0.00000060      -0.00000376
O        2.35675301       3.48800347       4.08201529       0.00000264      -0.00000337       0.00000474
O        4.07410610       1.05930056       7.05655710      -0.00000009      -0.00000106      -0.00000517
