9
Lattice="5.465823964203183 1.662259208052732e-07 3.1556949791852946 1.8219415501837575 5.153228235301812 3.155694854367834 2.0098817651376575e-07 -1.0749508323098361e-08 6.311389610248828" Properties=species:S:1:pos:R:3:forces:R:3 energy=-36.715728759765625 free_energy=-36.715728759765625 stress="2.373605411776225e-06 1.4596553965517955e-09 3.4184040043072628e-09 1.4596553965517955e-09 2.3852176127547864e-06 -5.902090371989743e-09 3.4184040043072628e-09 -5.902090371989743e-09 2.3658610643906286e-06" pbc="T T T"
Sr       1.82194144       1.28830684       3.15569511      -0.00000086       0.00000108      -0.00000082
Sr       5.46582482       3.86492146       9.46708461      -0.00000066      -0.00000103      -0.00000104
Cu      -0.00000002      -0.00000031       0.00000010      -0.00000059       0.00000208      -0.00000379
S        1.87204594       1.32373628       6.31138961       0.00052291       0.00036889      -0.00000020
S        5.41571955       3.82949234       6.31138988      -0.00052333      -0.00037104      -0.00000049
S        4.52980115       1.32373609       4.77693387      -0.00026208       0.00037163       0.00045562
S        2.75796468       3.82949191       7.84584535       0.00026157      -0.00036889      -0.00045186
S        2.75796441       3.82949241       4.77693369       0.00026280      -0.00037134       0.00045466
S        4.52980100       1.32373643       7.84584559      -0.00025991       0.00036848      -0.00045222
