9
Lattice="6.307432270274882 5.437158921182853e-07 3.641597386013234 2.1024777511004684 5.946704282947257 3.6415977063469427 -1.7128637295046683e-07 2.712093061423871e-07 7.283195068703087" Properties=species:S:1:pos:R:3:forces:R:3 energy=-37.39787292480469 free_energy=-37.39787292480469 stress="-1.9001668988494202e-05 7.131893298151226e-09 -5.918811396554702e-08 7.131893298151226e-09 -1.9002358385478146e-05 7.736203144759202e-08 -5.918811396554702e-08 7.736203144759202e-08 -1.9004277419298887e-05" pbc="T T T"
Sr       2.10247719       1.48667602       3.64159772       0.00000026      -0.00000020       0.00000003
Sr       6.30743250       4.46002911      10.92479268      -0.00000011      -0.00000012       0.00000006
Fe      -0.00000008       0.00000019      -0.00000024       0.00000046      -0.00000120       0.00000782
Te       1.97454690       1.39621524       7.28319484       0.00054073       0.00038223      -0.00000034
Te       6.43536320       4.55049001       7.28319473      -0.00054057      -0.00038248      -0.00000053
Te       5.32015844       1.39621613       5.35160519      -0.00026732       0.00037867       0.00046312
Te       3.08975131       4.55048910       9.21478543       0.00026868      -0.00038012      -0.00046574
Te       3.08975110       4.55048905       5.35160461       0.00027211      -0.00038414       0.00047014
Te       5.32015876       1.39621558       9.21478580      -0.00027422       0.00038732      -0.00047449
