9
Lattice="5.796580892889686 -1.7755665852490964e-07 3.3466574977898627 1.932193483068621 5.465068733207719 3.3466574640018494 -4.732604967040513e-08 -7.484617075246275e-08 6.693315077550878" Properties=species:S:1:pos:R:3:forces:R:3 energy=-41.31538009643555 free_energy=-41.31538009643555 stress="-3.2338106393581256e-05 -2.5700675365669667e-08 2.8917761518698626e-09 -2.5700675365669667e-08 -3.230084621463902e-05 -1.5338484260496443e-08 2.8917761518698626e-09 -1.5338484260496443e-08 -3.22582054650411e-05" pbc="T T T"
Sr       1.93219329       1.36626682       3.34665740       0.00000090       0.00000044      -0.00000037
Sr       5.79658088       4.09880140      10.03997251      -0.00000009      -0.00000076       0.00000051
Fe      -0.00000002       0.00000002       0.00000023       0.00000475      -0.00000051       0.00000273
Se       1.87075260       1.32282157       6.69331493       0.00172439       0.00121957       0.00000008
Se       5.85802201       4.14224710       6.69331491      -0.00172746      -0.00122119      -0.00000025
Se       4.86120455       1.32282177       4.96677698      -0.00086181       0.00121868       0.00149241
Se       2.86756966       4.14224684       8.41985322       0.00086135      -0.00121853      -0.00149204
Se       2.86756984       4.14224682       4.96677675       0.00086060      -0.00121744       0.00149046
Se       4.86120446       1.32282154       8.41985321      -0.00086258       0.00121981      -0.00149359
