9
Lattice="6.4523681223726745 1.680987310709334e-08 3.725276423467682 2.1507893714423028 6.08335098220863 3.725276455563178 -9.165995627819254e-08 -2.5504483665089307e-08 7.45055300569505" Properties=species:S:1:pos:R:3:forces:R:3 energy=-32.840309143066406 free_energy=-32.840309143066406 stress="0.0001262582081835717 -2.20782303550493e-09 5.607047048883373e-10 -2.20782303550493e-09 0.00012625473027583212 -8.511991111959105e-09 5.607047048883373e-10 -8.511991111959105e-09 0.00012624885130207986" pbc="T T T"
Sr       2.15078929       1.52083740       3.72527668       0.00000013      -0.00000010       0.00000014
Sr       6.45236791       4.56251315      11.17582917       0.00000004       0.00000033      -0.00000014
Ge       0.00000012      -0.00000028       0.00000071       0.00000006       0.00000139      -0.00000130
Te       2.30318957       1.62860108       7.45055296      -0.00093865      -0.00066394       0.00000017
Te       6.29996771       4.45475005       7.45055293       0.00093976       0.00066401       0.00000031
Te       5.30077326       1.62860125       5.71989692       0.00046909      -0.00066429      -0.00081305
Te       3.30238418       4.45474987       9.18120869      -0.00046943       0.00066328       0.00081374
Te       3.30238419       4.45475028       5.71989708      -0.00047025       0.00066359      -0.00081299
Te       5.30077340       1.62860116       9.18120844       0.00046945      -0.00066438       0.00081319
