9
Lattice="5.698531371718883 1.4761390086175265e-08 3.290048529862974 1.8995105460115573 5.372627069792633 3.290048400210744 9.648610199169337e-08 -9.056499730908486e-08 6.580096892607176" Properties=species:S:1:pos:R:3:forces:R:3 energy=-39.29918670654297 free_energy=-39.29918670654297 stress="6.326215952867642e-05 -3.592789621365e-09 3.611423338156783e-08 -3.592789621365e-09 6.311386823654175e-05 -1.915312175526651e-08 3.611423338156783e-08 -1.915312175526651e-08 6.316849612630904e-05" pbc="T T T"
Sr       1.89951037       1.34315688       3.29004836       0.00000010       0.00000105       0.00000044
Sr       5.69853172       4.02947026       9.87014526      -0.00000059      -0.00000084      -0.00000061
Ge       0.00000006       0.00000015       0.00000041      -0.00000115      -0.00000135      -0.00000416
S        1.91064782       1.35103103       6.58009696      -0.00444829      -0.00314355      -0.00000026
S        5.68739424       4.02159563       6.58009690       0.00445056       0.00314599      -0.00000046
S        4.74320783       1.35103140       4.94471732       0.00222173      -0.00314236      -0.00384808
S        2.85483410       4.02159529       8.21547633      -0.00222263       0.00314385       0.00385123
S        2.85483407       4.02159556       4.94471743      -0.00222358       0.00314397      -0.00385189
S        4.74320808       1.35103171       8.21547637       0.00222394      -0.00314683       0.00385386
