9
Lattice="5.910061928004858 -5.05484880533433e-08 3.4121758299341605 1.9700205803675814 5.572059865534993 3.412175855296721 -7.569159571878141e-08 -2.24593385611997e-08 6.824351790970037" Properties=species:S:1:pos:R:3:forces:R:3 energy=-36.52677536010742 free_energy=-36.52677536010742 stress="-0.00021697366901207715 -1.574411534477349e-08 1.4993613017821872e-09 -1.574411534477349e-08 -0.00021696103794965893 1.2848091479611412e-08 1.4993613017821872e-09 1.2848091479611412e-08 -0.00021696211479138583" pbc="T T T"
Sr       1.97002040       1.39301450       3.41217579       0.00000014      -0.00000037       0.00000027
Sr       5.91006191       4.17904522      10.23652769      -0.00000031      -0.00000002       0.00000017
Ge       0.00000046      -0.00000016      -0.00000042      -0.00000565       0.00000199       0.00000447
Se       2.02272689       1.43028398       6.82435181       0.00550896       0.00389563       0.00000046
Se       5.85735519       4.14177557       6.82435181      -0.00550514      -0.00389220       0.00000103
Se       4.89869839       1.43028421       5.16390943      -0.00275111       0.00389084       0.00476550
Se       2.98138386       4.14177608       8.48479457       0.00275449      -0.00389569      -0.00477184
Se       2.98138411       4.14177577       5.16390893       0.00275232      -0.00389364       0.00476858
Se       4.89869852       1.43028392       8.48479427      -0.00275360       0.00389339      -0.00476907
