9
Lattice="6.528175163221315 1.2533741690293766e-07 3.769043786085672 2.1760585200510913 6.154822824722297 3.769043761592123 6.650284347450011e-08 1.7026321281032432e-08 7.53808745698502" Properties=species:S:1:pos:R:3:forces:R:3 energy=-28.035083770751953 free_energy=-28.035083770751953 stress="-0.0001398103340761736 -1.9042452059636616e-09 -8.792185646200323e-09 -1.9042452059636616e-09 -0.00013983457756694406 5.250613721585751e-09 -8.792185646200323e-09 5.250613721585751e-09 -0.00013982898963149637" pbc="T T T"
Sr       2.17605875       1.53870551       3.76904368       0.00000044      -0.00000038      -0.00000017
Sr       6.52817510       4.61611728      11.30713106      -0.00000023       0.00000015       0.00000046
Hg       0.00000012       0.00000022      -0.00000008       0.00000007      -0.00000053      -0.00000022
Te       2.39482968       1.69339976       7.53808751       0.00514019       0.00363472      -0.00000052
Te       6.30940431       4.46142327       7.53808764      -0.00514206      -0.00363600      -0.00000050
Te       5.33076022       1.69339991       5.84302636      -0.00257100       0.00363649       0.00445354
Te       3.37347355       4.46142253       9.23314865       0.00257038      -0.00363392      -0.00445232
Te       3.37347316       4.46142297       5.84302664       0.00257152      -0.00363599       0.00445276
Te       5.33076008       1.69340040       9.23314857      -0.00256933       0.00363541      -0.00445300
