9
Lattice="5.012588848602887 1.7150021592207502e-07 2.894019287258202 1.6708630441847934 4.725914483765373 2.894019403377457 -1.4559264360480559e-07 3.9266910109275874e-08 5.788038826690244" Properties=species:S:1:pos:R:3:forces:R:3 energy=-40.47510528564453 free_energy=-40.47510528564453 stress="0.00022008134692441672 5.588104556863982e-08 1.0666580507745493e-08 5.588104556863982e-08 0.00021997978910803795 -1.4507793189011409e-08 1.0666580507745493e-08 -1.4507793189011409e-08 0.00021997254225425422" pbc="T T T"
Sr       1.67086301       1.18147849       2.89401902      -0.00000053      -0.00000035       0.00000059
Sr       5.01258872       3.54443629       8.68205839       0.00000106      -0.00000127      -0.00000230
Hg       0.00000064      -0.00000077      -0.00000112      -0.00001712       0.00001576       0.00002331
O        1.68900713       1.19430916       5.78803872      -0.00529987      -0.00374892       0.00000045
O        4.99444434       3.53160555       5.78803899       0.00530374       0.00375101      -0.00000120
O        4.16808491       1.19430866       4.35674289       0.00265518      -0.00375551      -0.00459930
O        2.51536657       3.53160648       7.21933518      -0.00264373       0.00373903       0.00457937
O        2.51536632       3.53160613       4.35674269      -0.00264814       0.00374797      -0.00459057
O        4.16808513       1.19430886       7.21933500       0.00264925      -0.00374770       0.00458917
