9
Lattice="5.997728053586727 1.2251496915729553e-07 3.4627900611625435 1.9992427298040412 5.6547122728455355 3.462790182809799 1.081221566585725e-08 1.566322863091231e-07 6.92558010359773" Properties=species:S:1:pos:R:3:forces:R:3 energy=-30.45124053955078 free_energy=-30.45124053955078 stress="1.8238473558085389e-06 -1.3010262138457573e-11 8.836697484859712e-10 -1.3010262138457573e-11 1.835480816225754e-06 -2.7834571980633882e-08 8.836697484859712e-10 -2.7834571980633882e-08 1.8154336203224375e-06" pbc="T T T"
Sr       1.99924264       1.41367819       3.46279034      -0.00000031      -0.00000042      -0.00000032
Sr       5.99772804       4.24103431      10.38836969      -0.00000013       0.00000011       0.00000020
Hg       0.00000049       0.00000022      -0.00000010      -0.00000252       0.00000032      -0.00000231
Se       2.24251241       1.58569577       6.92558027       0.00263467       0.00186235      -0.00000057
Se       5.75445827       4.06901636       6.92558056      -0.00263306      -0.00186235      -0.00000010
Se       4.87647230       1.58569524       5.40486253      -0.00131719       0.00186220       0.00228113
Se       3.12049913       4.06901675       8.44629780       0.00131676      -0.00186130      -0.00227967
Se       3.12049835       4.06901677       5.40486283       0.00131759      -0.00186294       0.00228152
Se       4.87647150       1.58569654       8.44629751      -0.00131580       0.00186196      -0.00227982
