9
Lattice="5.734797072518211 -1.5862954475929714e-08 3.3109868193110876 1.911598969859817 5.406818712827041 3.310986887479677 -8.558221395247538e-08 2.2973393376497767e-08 6.621973786854945" Properties=species:S:1:pos:R:3:forces:R:3 energy=-31.655973434448242 free_energy=-31.655973434448242 stress="-1.962216083484236e-05 -2.7162993632146026e-08 -1.6243548728311907e-09 -2.7162993632146026e-08 -1.9649291061796248e-05 -2.6995829571774266e-08 -1.6243548728311907e-09 -2.6995829571774266e-08 -1.9595558114815503e-05" pbc="T T T"
Sr       1.91159857       1.35170509       3.31098657       0.00000089      -0.00000093       0.00000028
Sr       5.73479714       4.05511381       9.93296026       0.00000047       0.00000022      -0.00000018
Hg      -0.00000015      -0.00000031       0.00000038       0.00000266       0.00000127      -0.00000185
S        2.03602214       1.43968539       6.62197393       0.00004494       0.00003183       0.00000050
S        5.61037401       3.96713371       6.62197403      -0.00004727      -0.00003359       0.00000008
S        4.71678586       1.43968512       5.07423408      -0.00002283       0.00003359       0.00004053
S        2.92961008       3.96713354       8.16971341       0.00002214      -0.00003141      -0.00003940
S        2.92961030       3.96713325       5.07423431       0.00002253      -0.00003251       0.00003964
S        4.71678585       1.43968532       8.16971313      -0.00002328       0.00003177      -0.00003970
