9
Lattice="5.831025679439087 -9.341370987370228e-08 3.3665441140566275 1.9436751627269049 5.4975437408926515 3.3665440719357784 -5.6754665472203474e-08 -9.171897861711969e-08 6.733088326415362" Properties=species:S:1:pos:R:3:forces:R:3 energy=-35.81943130493164 free_energy=-35.81943130493164 stress="0.0001691163779469207 -1.683739014879393e-08 5.6924482905174045e-09 -1.683739014879393e-08 0.0001691009383648634 -3.1272506362256536e-08 5.6924482905174045e-09 -3.1272506362256536e-08 0.00016909891564864665" pbc="T T T"
Sr       1.94367544       1.37438564       3.36654396      -0.00000064       0.00000109       0.00000027
Sr       5.83102529       4.12315737      10.09963221       0.00000089       0.00000052      -0.00000012
In      -0.00000031       0.00000013       0.00000020       0.00000449      -0.00000039       0.00000026
S        2.08504434       1.47434923       6.73308838       0.00267214       0.00188917       0.00000004
S        5.68965694       4.02319483       6.73308796      -0.00267571      -0.00189406      -0.00000069
S        4.78850323       1.47434902       5.17224522      -0.00133723       0.00189105       0.00231665
S        2.98619754       4.02319472       8.29393107       0.00133747      -0.00189054      -0.00231481
S        2.98619753       4.02319464       5.17224580       0.00133660      -0.00188819       0.00231528
S        4.78850311       1.47434863       8.29393142      -0.00133818       0.00189149      -0.00231665
