9
Lattice="4.796011171503821 7.048772153326793e-07 2.768979609166444 1.5986710082646287 4.521723668202775 2.7689796902288495 5.694910352615952e-07 5.019715217602696e-07 5.537958231945591" Properties=species:S:1:pos:R:3:forces:R:3 energy=-45.125 free_energy=-45.125 stress="0.0004028199764434248 -6.094501259212848e-08 6.92835584459317e-08 -6.094501259212848e-08 0.0004030653217341751 -3.892088784596126e-08 6.92835584459317e-08 -3.892088784596126e-08 0.00040326983435079455" pbc="T T T"
Sr       1.59867241       1.13043260       2.76898025      -0.00001006      -0.00000633      -0.00000861
Sr       4.79601190       3.39129234       8.30693830       0.00000112       0.00000380      -0.00000446
In      -0.00000193      -0.00000126      -0.00000548       0.00001460       0.00000869       0.00003543
O        1.77778311       1.25708506       5.53795884      -0.00267011      -0.00189090       0.00000200
O        4.61690170       3.26464112       5.53795819       0.00265449       0.00188023       0.00000353
O        3.90711921       1.25708402       4.30858686       0.00133765      -0.00189173      -0.00231707
O        2.48756183       3.26464207       6.76733375      -0.00132295       0.00187945       0.00230056
O        2.48756239       3.26463879       4.30858745      -0.00133422       0.00189352      -0.00231546
O        3.90712003       1.25708353       6.76733246       0.00132939      -0.00187677       0.00230366
