9
Lattice="6.568319518579262 7.618163012546936e-08 3.7922208821128742 2.1894398934041455 6.192670792712728 3.7922209131980265 -6.744068049806666e-09 3.330257284807862e-08 7.584441775906819" Properties=species:S:1:pos:R:3:forces:R:3 energy=-31.506980895996094 free_energy=-31.506980895996094 stress="9.241048974217847e-05 8.491203296046024e-10 -1.1990225701197232e-08 8.491203296046024e-10 9.240743383998051e-05 -3.2729825516497613e-09 -1.1990225701197232e-08 -3.2729825516497613e-09 9.242339729098603e-05" pbc="T T T"
Sr       2.18943987       1.54816764       3.79222113       0.00000007       0.00000023       0.00000014
Sr       6.56831971       4.64450333      11.37666240       0.00000012      -0.00000009       0.00000005
In       0.00000013       0.00000019      -0.00000006      -0.00000041       0.00000078      -0.00000032
Te       2.37179950       1.67711554       7.58444170      -0.00629979      -0.00445448       0.00000028
Te       6.38595968       4.51555527       7.58444201       0.00629976       0.00445455       0.00000019
Te       5.38241976       1.67711534       5.84625948       0.00314993      -0.00445469      -0.00545573
Te       3.37533951       4.51555544       9.32262398      -0.00314939       0.00445381       0.00545487
Te       3.37533947       4.51555532       5.84625947      -0.00315017       0.00445445      -0.00545487
Te       5.38242001       1.67711553       9.32262418       0.00314996      -0.00445439       0.00545540
