9
Lattice="6.096634698283763 -5.1742430144047024e-08 3.5198937490708184 2.0322115261595326 5.7479621238582315 3.519893733745312 1.2758160817492295e-08 -9.748481894778368e-09 7.039787476043919" Properties=species:S:1:pos:R:3:forces:R:3 energy=-34.189186096191406 free_energy=-34.189186096191406 stress="-0.00027187418891116977 3.754293764757222e-09 2.282751904170155e-10 3.754293764757222e-09 -0.00027187264640815556 -3.701462247818199e-09 2.282751904170155e-10 -3.701462247818199e-09 -0.0002718866744544357" pbc="T T T"
Sr       2.03221174       1.43699040       3.51989383       0.00000057      -0.00000075       0.00000013
Sr       6.09663460       4.31097181      10.55968113      -0.00000034       0.00000031      -0.00000027
In      -0.00000012      -0.00000043       0.00000016       0.00000140       0.00000398       0.00000062
Se       2.22303174       1.57192073       7.03978736      -0.00687131      -0.00485793       0.00000000
Se       5.90581469       4.17604147       7.03978742       0.00686777       0.00485596      -0.00000018
Se       4.98511872       1.57192064       5.44509572       0.00343549      -0.00485781      -0.00594941
Se       3.14372746       4.17604154       8.63447936      -0.00343411       0.00485644       0.00594768
Se       3.14372735       4.17604151       5.44509570      -0.00343467       0.00485721      -0.00594795
Se       4.98511871       1.57192062       8.63447924       0.00343513      -0.00485751       0.00594914
