9
Lattice="6.250012910338493 4.941139595559475e-07 3.6084466013074277 2.0833377275317693 5.89257004797834 3.608447251004552 -3.9988376584200004e-07 5.129527385933016e-07 7.21689389523388" Properties=species:S:1:pos:R:3:forces:R:3 energy=-37.99199676513672 free_energy=-37.99199676513672 stress="0.00016224567661993206 5.204156749982758e-08 -7.250434030936503e-09 5.204156749982758e-08 0.0001622141571715474 1.709184083154014e-08 -7.250434030936503e-09 1.709184083154014e-08 0.00016218856035266072" pbc="T T T"
Sr       2.08333657       1.47314308       3.60844621       0.00000120      -0.00000072       0.00000067
Sr       6.25001382       4.41942783      10.82534088      -0.00000150       0.00000034      -0.00000034
Mn       0.00000041       0.00000027      -0.00000123      -0.00000385      -0.00000120       0.00001160
Te       2.12099660       1.49977462       7.21689373       0.00154431       0.00109056      -0.00000079
Te       6.21235412       4.39279586       7.21689341      -0.00154284      -0.00108881       0.00000028
Te       5.18951528       1.49977149       5.44528523      -0.00077270       0.00109136       0.00133476
Te       3.14383490       4.39280024       8.98850357       0.00077623      -0.00109589      -0.00134151
Te       3.14383433       4.39279984       5.44528601       0.00077517      -0.00109325       0.00133720
Te       5.18951475       1.49977111       8.98850310      -0.00077602       0.00109762      -0.00134191
