9
Lattice="4.887268096040945 -3.404586176174256e-08 2.8216656829235114 1.6290893943300364 4.607760899252707 2.8216655771267836 -1.0491841205854591e-07 -2.037626126476164e-07 5.643331547571139" Properties=species:S:1:pos:R:3:forces:R:3 energy=-53.712646484375 free_energy=-53.712646484375 stress="-0.00011650403030216694 6.5036473984037e-09 6.414820674649491e-09 6.5036473984037e-09 -0.0001158862651209347 -1.637812232502256e-07 6.414820674649491e-09 -1.637812232502256e-07 -0.00011605041072471067" pbc="T T T"
Sr       1.62908942       1.15194054       2.82166468      -0.00000089      -0.00000116       0.00000354
Sr       4.88726790       3.45582037       8.46499792       0.00000041      -0.00000029      -0.00000411
Mn      -0.00000096      -0.00000002       0.00000060       0.00000276      -0.00000346      -0.00000154
O        1.51566455       1.07173775       5.64333084       0.00269526       0.00189856       0.00000083
O        5.00069253       3.53602262       5.64333115      -0.00268784      -0.00189851      -0.00000165
O        4.12943608       1.07173703       4.13427065      -0.00134888       0.00190341       0.00233230
O        2.38692218       3.53602299       7.15239230       0.00134185      -0.00189681      -0.00232223
O        2.38692194       3.53602326       4.13427095       0.00134268      -0.00189479       0.00231797
O        4.12943613       1.07173809       7.15239215      -0.00134493       0.00189257      -0.00232527
