9
Lattice="5.555227476965337 -3.946125792619546e-09 3.2073113986862825 1.8517425895556299 5.237517777659563 3.2073112238283845 1.414771086933077e-07 -1.1411703339678928e-07 6.4146225523271045" Properties=species:S:1:pos:R:3:forces:R:3 energy=-45.34653091430664 free_energy=-45.34653091430664 stress="-5.23534654348623e-05 5.5077038041417836e-08 -5.812345449385248e-08 5.5077038041417836e-08 -5.239557140157558e-05 5.905545563678061e-08 -5.812345449385248e-08 5.905545563678061e-08 -5.2375089580891654e-05" pbc="T T T"
Sr       1.85174321       1.30937967       3.20731151      -0.00000059      -0.00000019      -0.00000010
Sr       5.55522707       3.92813773       9.62193443       0.00000129       0.00000115      -0.00000119
Mn      -0.00000114       0.00000141      -0.00000228       0.00001610      -0.00002109       0.00002833
S        1.82208143       1.28840603       6.41462170       0.00248152       0.00175241       0.00000231
S        5.58488868       3.94911194       6.41462269      -0.00248027      -0.00175583       0.00000108
S        4.64418637       1.28840560       4.78528022      -0.00123951       0.00175348       0.00215024
S        2.76278385       3.94911158       8.04396490       0.00124115      -0.00175571      -0.00214773
S        2.76278355       3.94911187       4.78528044       0.00123405      -0.00174603       0.00213778
S        4.64418801       1.28840482       8.04396708      -0.00125363       0.00177217      -0.00217056
