9
Lattice="4.608556674856984 -3.413540179879618e-07 2.660750697049363 1.5361853533775434 4.344988897257255 2.6607504945313485 3.727389360886299e-07 1.553343265673904e-08 5.3215007484961" Properties=species:S:1:pos:R:3:forces:R:3 energy=-45.47377395629883 free_energy=-45.47377395629883 stress="-0.0003382835420779884 1.1775603070418583e-07 -1.5028470556899265e-07 1.1775603070418583e-07 -0.00033844885183498263 1.0799095839786332e-08 -1.5028470556899265e-07 1.0799095839786332e-08 -0.0003386584867257625" pbc="T T T"
Sr       1.53618575       1.08624813       2.66074861      -0.00000315      -0.00000653       0.00000977
Sr       4.60855779       3.25874141       7.98225370      -0.00000431       0.00000109      -0.00001430
Mg       0.00000076      -0.00000029      -0.00000032      -0.00000473      -0.00000022       0.00000564
O        1.63876155       1.15877897       5.32149961       0.00443241       0.00313228       0.00000034
O        4.50598004       3.18620923       5.32150068      -0.00442672      -0.00313160       0.00000303
O        3.78917487       1.15877807       4.07995681      -0.00221165       0.00313249       0.00384229
O        2.35556696       3.18620987       6.56304456       0.00221668      -0.00313190      -0.00384173
O        2.35556470       3.18621016       4.07995699       0.00221673      -0.00313239       0.00384021
O        3.78917737       1.15877781       6.56304598      -0.00221533       0.00313680      -0.00384527
