9
Lattice="5.93995993414107 -4.3943444243662106e-07 3.429437312551394 1.9799861764664957 5.600247504855892 3.429437405986087 -3.7709717783590236e-08 8.776861222500093e-08 6.858874690418034" Properties=species:S:1:pos:R:3:forces:R:3 energy=-32.57466506958008 free_energy=-32.57466506958008 stress="-2.3712449547019787e-05 5.343578024508133e-08 2.4362442729852773e-08 5.343578024508133e-08 -2.367621345911175e-05 -4.1334768496881225e-08 2.4362442729852773e-08 -4.1334768496881225e-08 -2.369110006839037e-05" pbc="T T T"
Sr       1.97998650       1.40006212       3.42943777      -0.00000047      -0.00000008       0.00000008
Sr       5.93995998       4.20018547      10.28831214       0.00000011      -0.00000023      -0.00000008
Mg       0.00000125      -0.00000032       0.00000021      -0.00000417       0.00000229       0.00000204
Se       2.14928921       1.51977711       6.85887452      -0.00122983      -0.00086798      -0.00000013
Se       5.77065635       4.08047000       6.85887408       0.00123250       0.00086920      -0.00000031
Se       4.86531496       1.51977620       5.29077541       0.00061518      -0.00087329      -0.00106779
Se       3.05462972       4.08047141       8.42697312      -0.00061494       0.00086910       0.00106645
Se       3.05463055       4.08047034       5.29077728      -0.00061611       0.00087077      -0.00106590
Se       4.86531578       1.51977619       8.42697312       0.00061772      -0.00086986       0.00106572
