9
Lattice="5.585437386013206 -1.5085760166449152e-07 3.2247538715504978 1.8618123917785487 5.265999419675066 3.2247537468357805 -4.1404299453743636e-08 -1.8202094939777762e-07 6.449507814815411" Properties=species:S:1:pos:R:3:forces:R:3 energy=-34.30595397949219 free_energy=-34.30595397949219 stress="-1.3659838259627577e-05 -4.2390627896793376e-08 -7.599552098724871e-09 -4.2390627896793376e-08 -1.3568002032116055e-05 1.1932532739677981e-09 -7.599552098724871e-09 1.1932532739677981e-09 -1.3720421520702075e-05" pbc="T T T"
Sr       1.86181271       1.31649996       3.22475373       0.00000014      -0.00000107       0.00000031
Sr       5.58543623       3.94949958       9.67426173       0.00000119       0.00000024      -0.00000058
Mg       0.00000013      -0.00000015      -0.00000025       0.00000131       0.00000171       0.00000459
S        1.95938914       1.38549704       6.44950903       0.00062333       0.00044031       0.00000122
S        5.48786088       3.88050239       6.44950823      -0.00062452      -0.00044163       0.00000156
S        4.60574241       1.38549772       4.92163402      -0.00031159       0.00043947       0.00053709
S        2.84150754       3.88050165       7.97738060       0.00031180      -0.00044141      -0.00054118
S        2.84150742       3.88050159       4.92163427       0.00031111      -0.00043881       0.00053798
S        4.60574253       1.38549666       7.97738059      -0.00031277       0.00044129      -0.00054104
