9
Lattice="4.857169969811478 -6.208755649020947e-09 2.804288401003077 1.619056660197632 4.5793837087373985 2.804288384639549 3.864147632673615e-08 7.282522446716256e-09 5.6085767350771585" Properties=species:S:1:pos:R:3:forces:R:3 energy=-45.85393142700195 free_energy=-45.85393142700195 stress="0.0001842638448579237 1.7037653066154235e-08 2.3795873715926064e-08 1.7037653066154235e-08 0.00018425968301016837 6.876865299432211e-09 2.3795873715926064e-08 6.876865299432211e-09 0.00018430886848364025" pbc="T T T"
Sr       1.61905669       1.14484593       2.80428841       0.00000014       0.00000017      -0.00000019
Sr       4.85717002       3.43453779       8.41286512      -0.00000015      -0.00000032       0.00000146
Ni       0.00000002       0.00000007      -0.00000005      -0.00000187      -0.00000151       0.00000191
O        1.48852982       1.05254947       5.60857675      -0.00189831      -0.00134242      -0.00000008
O        4.98769687       3.52683420       5.60857676       0.00190014       0.00134408       0.00000006
O        4.11290506       1.05254944       4.09339300       0.00094935      -0.00134297      -0.00164489
O        2.36332158       3.52683427       7.12376054      -0.00094873       0.00134207       0.00164274
O        2.36332156       3.52683424       4.09339299      -0.00094982       0.00134316      -0.00164470
O        4.11290509       1.05254943       7.12376057       0.00094910      -0.00134218       0.00164343
