9
Lattice="6.236021459999633 1.5735855229433256e-07 3.6003687946410157 2.078673983528212 5.879377537262246 3.6003687683670207 -4.263421067174285e-08 -6.232585215008068e-08 7.2007376631265645" Properties=species:S:1:pos:R:3:forces:R:3 energy=-34.4392204284668 free_energy=-34.4392204284668 stress="-0.0003256298659835011 -4.6447368173829773e-10 7.2978734166895265e-09 -4.6447368173829773e-10 -0.0003256175259593874 -7.8362942801391e-09 7.2978734166895265e-09 -7.8362942801391e-09 -0.00032563135027885437" pbc="T T T"
Sr       2.07867352       1.46984443       3.60036894       0.00000018      -0.00000009       0.00000002
Sr       6.23602170       4.40953318      10.80110625      -0.00000021       0.00000031      -0.00000008
Ni      -0.00000029       0.00000032      -0.00000030       0.00000440      -0.00000092       0.00000080
Te       2.14624377       1.51762375       7.20073795      -0.00234210      -0.00165669      -0.00000033
Te       6.16845209       4.36175411       7.20073793       0.00233993       0.00165475      -0.00000040
Te       5.16290019       1.51762272       5.45906984       0.00116952      -0.00165406      -0.00202615
Te       3.15179534       4.36175449       8.94240513      -0.00117044       0.00165535       0.00202760
Te       3.15179541       4.36175422       5.45907005      -0.00117088       0.00165543      -0.00202786
Te       5.16289982       1.51762338       8.94240507       0.00116964      -0.00165412       0.00202649
