9
Lattice="5.740148810116502 -1.491587750513205e-07 3.314076511727899 1.9133828566313078 5.411863786462493 3.314076406845242 1.3034108289248833e-07 -3.628952383069234e-08 6.628152797698425" Properties=species:S:1:pos:R:3:forces:R:3 energy=-37.616554260253906 free_energy=-37.616554260253906 stress="-7.343398465309292e-05 -4.016643462279035e-09 -4.307756373833627e-09 -4.016643462279035e-09 -7.34025306883268e-05 2.067710269670897e-08 -4.307756373833627e-09 2.067710269670897e-08 -7.342965545831248e-05" pbc="T T T"
Sr       1.91338313       1.35296592       3.31407655      -0.00000065      -0.00000039      -0.00000027
Sr       5.74014853       4.05889760       9.94222903       0.00000046       0.00000089      -0.00000005
Ni      -0.00000021      -0.00000019      -0.00000012       0.00000103      -0.00000081       0.00000139
Se       1.94221487       1.37335317       6.62815272       0.00030339       0.00021376       0.00000026
Se       5.71131707       4.03851072       6.62815279      -0.00030410      -0.00021492       0.00000058
Se       4.76904135       1.37335331       4.99608402      -0.00015111       0.00021349       0.00026217
Se       2.88449031       4.03851046       8.26022194       0.00015208      -0.00021368      -0.00026152
Se       2.88449052       4.03851023       4.99608374       0.00015143      -0.00021335       0.00026205
Se       4.76904157       1.37335323       8.26022223      -0.00015254       0.00021498      -0.00026453
