9
Lattice="4.924754919080083 8.801184505962027e-08 2.8433082821222833 1.6415850202589628 4.6431036655780975 2.843308344036401 -9.923117667403234e-08 5.661865274017717e-09 5.686616736118062" Properties=species:S:1:pos:R:3:forces:R:3 energy=-60.411746978759766 free_energy=-60.411746978759766 stress="-0.0002772352600004524 -1.3773752804979722e-08 -2.4230438100403262e-08 -1.3773752804979722e-08 -0.00027719695935957134 -2.6295916555341137e-08 -2.4230438100403262e-08 -2.6295916555341137e-08 -0.0002772858424577862" pbc="T T T"
Sr       1.64158484       1.16077573       2.84330828       0.00000006       0.00000024      -0.00000051
Sr       4.92475489       3.48232803       8.52992491      -0.00000015      -0.00000113      -0.00000067
Nb      -0.00000019      -0.00000035      -0.00000023      -0.00000062      -0.00000111       0.00000161
O        1.61676555       1.14322654       5.68661673       0.00442123       0.00312626       0.00000040
O        4.94957392       3.49987763       5.68661667      -0.00441873      -0.00312626      -0.00000139
O        4.11637204       1.14322618       4.24346833      -0.00221121       0.00312757       0.00383139
O        2.44996825       3.49987778       7.12976482       0.00220937      -0.00312567      -0.00382912
O        2.44996816       3.49987747       4.24346864       0.00220919      -0.00312316       0.00382686
O        4.11637200       1.14322614       7.12976475      -0.00220889       0.00312281      -0.00382745
