9
Lattice="6.477218347130308 -8.51728333576437e-08 3.739623732520407 2.1590726712289467 6.106779989270915 3.739623785947533 -4.981644964653811e-08 3.02090729243296e-08 7.479247551325488" Properties=species:S:1:pos:R:3:forces:R:3 energy=-39.954288482666016 free_energy=-39.954288482666016 stress="-7.445465143973706e-06 -4.4067441251627315e-08 1.6207625463948716e-08 -4.4067441251627315e-08 -7.411724254779983e-06 -1.5410336118293344e-08 1.6207625463948716e-08 -1.5410336118293344e-08 -7.390257906081388e-06" pbc="T T T"
Sr       2.15907292       1.52669457       3.73962337      -0.00000017       0.00000014      -0.00000011
Sr       6.47721835       4.58008489      11.21887190       0.00000050      -0.00000000      -0.00000003
Nb      -0.00000020      -0.00000001       0.00000056       0.00000185       0.00000063      -0.00000312
Te       2.27152494       1.60621048       7.47924742       0.00164550       0.00116383      -0.00000075
Te       6.36476608       4.50056963       7.47924742      -0.00164676      -0.00116471       0.00000046
Te       5.34145571       1.60621089       5.70682197      -0.00082252       0.00116215       0.00142537
Te       3.29483523       4.50056889       9.25167271       0.00082057      -0.00115962      -0.00142262
Te       3.29483571       4.50056903       5.70682222       0.00082062      -0.00116122       0.00142215
Te       5.34145512       1.60621133       9.25167275      -0.00081960       0.00115882      -0.00142134
