9
Lattice="5.661436296837327 4.390306396526918e-08 3.2686315479513794 1.887145486114917 5.337653175925558 3.2686315263984995 2.3789240634670815e-08 -9.575320716853626e-09 6.537263054698579" Properties=species:S:1:pos:R:3:forces:R:3 energy=-48.49261474609375 free_energy=-48.49261474609375 stress="-0.00010566952551016584 3.8281203984524836e-08 -1.3805111720444074e-08 3.8281203984524836e-08 -0.00010571457096375525 -1.1269788657841673e-08 -1.3805111720444074e-08 -1.1269788657841673e-08 -0.00010571719758445397" pbc="T T T"
Sr       1.88714529       1.33441362       3.26863180      -0.00000031      -0.00000021      -0.00000092
Sr       5.66143645       4.00323951       9.80589436       0.00000011       0.00000038       0.00000076
Nb      -0.00000011      -0.00000041       0.00000033       0.00000029       0.00000536      -0.00000597
S        1.94079437       1.37234900       6.53726316       0.00166801       0.00117880      -0.00000091
S        5.60778712       3.96530395       6.53726308      -0.00166908      -0.00117934       0.00000003
S        4.69103931       1.37234873       4.94940834      -0.00083707       0.00118217       0.00144807
S        2.85754256       3.96530466       8.12511745       0.00083560      -0.00118127      -0.00144693
S        2.85754268       3.96530463       4.94940869       0.00083740      -0.00118482       0.00145087
S        4.69103942       1.37234916       8.12511730      -0.00083476       0.00117865      -0.00144473
