9
Lattice="5.447193096757355 1.306729356331577e-08 3.144938637597188 1.815731031296454 5.135663326123336 3.1449386605918312 5.259569444036365e-08 6.535335723956716e-08 6.289877184095873" Properties=species:S:1:pos:R:3:forces:R:3 energy=-40.13572692871094 free_energy=-40.13572692871094 stress="-0.00017338077304884791 -2.4879687643419857e-08 1.0147791940084971e-08 -2.4879687643419857e-08 -0.0001733637909637764 -2.9584386496139814e-08 1.0147791940084971e-08 -2.9584386496139814e-08 -0.00017334551375824958" pbc="T T T"
Sr       1.81573128       1.28391572       3.14493849      -0.00000032       0.00000052      -0.00000031
Sr       5.44719292       3.85174756       9.43481582       0.00000055       0.00000076       0.00000045
Ni      -0.00000026      -0.00000016       0.00000046       0.00000463       0.00000410      -0.00001343
S        1.81314056       1.28208413       6.28987749       0.00125760       0.00088894      -0.00000061
S        5.44978384       3.85357935       6.28987715      -0.00126255      -0.00089276      -0.00000054
S        4.54062279       1.28208445       4.71516451      -0.00063020       0.00089097       0.00109151
S        2.72230140       3.85357897       7.86458962       0.00062609      -0.00088561      -0.00108573
S        2.72230150       3.85357894       4.71516489       0.00063038      -0.00089103       0.00109178
S        4.54062263       1.28208465       7.86458935      -0.00062612       0.00088426      -0.00108305
