9
Lattice="6.677892722624748 -8.256025854201246e-09 3.8554832548303253 2.2259642069797954 6.295977785752344 3.8554833000564757 2.8287582300858136e-08 7.539274819009099e-08 7.710966460665207" Properties=species:S:1:pos:R:3:forces:R:3 energy=-31.65793228149414 free_energy=-31.65793228149414 stress="1.949443139892537e-05 -6.830559229342725e-09 -1.2685338113271882e-08 -6.830559229342725e-09 1.9474851796985604e-05 7.128364565289758e-09 -1.2685338113271882e-08 7.128364565289758e-09 1.950304431375116e-05" pbc="T T T"
Sr       2.22596401       1.57399456       3.85548342      -0.00000077       0.00000061      -0.00000040
Sr       6.67789305       4.72198330      11.56644981       0.00000096      -0.00000056      -0.00000007
Pb      -0.00000012      -0.00000020      -0.00000004      -0.00000188       0.00000206      -0.00000128
Te       2.49384473       1.76341488       7.71096649      -0.00076912      -0.00054452       0.00000057
Te       6.41001223       4.53256295       7.71096643       0.00077002       0.00054379       0.00000050
Te       5.43097038       1.76341497       6.01521664       0.00038511      -0.00054535      -0.00066726
Te       3.47288655       4.53256304       9.40671651      -0.00038503       0.00054474       0.00066777
Te       3.47288652       4.53256310       6.01521638      -0.00038411       0.00054432      -0.00066593
Te       5.43097052       1.76341483       9.40671642       0.00038480      -0.00054516       0.00066611
