9
Lattice="6.152472750446972 -6.130325654191948e-08 3.55213192843162 2.050824234031045 5.800607013188795 3.552131856240873 6.035678043357548e-08 -4.5736575183144274e-08 7.10426375232224" Properties=species:S:1:pos:R:3:forces:R:3 energy=-34.117881774902344 free_energy=-34.117881774902344 stress="1.713490200927481e-05 -1.739187638349904e-08 -6.873393409989603e-09 -1.739187638349904e-08 1.7119120457209647e-05 9.531546218966014e-09 -6.873393409989603e-09 9.531546218966014e-09 1.7141013813670725e-05" pbc="T T T"
Sr       2.05082433       1.45015109       3.55213162       0.00000052       0.00000035       0.00000018
Sr       6.15247272       4.35045550      10.65639584       0.00000054       0.00000025      -0.00000009
Pb      -0.00000006       0.00000025      -0.00000001       0.00000001      -0.00000266       0.00000124
Se       2.27495839       1.60863845       7.10426377       0.00795501       0.00562529       0.00000032
Se       5.92833845       4.19196850       7.10426346      -0.00795433      -0.00562380      -0.00000003
Se       5.01499337       1.60863848       5.52230391      -0.00397671       0.00562336       0.00688702
Se       3.18830357       4.19196853       8.68622384       0.00397716      -0.00562392      -0.00688785
Se       3.18830375       4.19196856       5.52230394       0.00397590      -0.00562330       0.00688767
Se       5.01499355       1.60863826       8.68622373      -0.00397811       0.00562453      -0.00688857
