9
Lattice="5.577772605063184 1.646381610130573e-07 3.220328684778523 1.859257734390968 5.258774313756088 3.220328608312605 5.0879220049464506e-08 -5.7674075211033976e-08 6.440657281431593" Properties=species:S:1:pos:R:3:forces:R:3 energy=-41.387271881103516 free_energy=-41.387271881103516 stress="5.488152601174079e-05 5.014063475528019e-08 1.853444175914376e-09 5.014063475528019e-08 5.483761560753919e-05 -4.20387458177629e-09 1.853444175914376e-09 -4.20387458177629e-09 5.483267887029797e-05" pbc="T T T"
Sr       1.85925776       1.31469358       3.22032856      -0.00000093      -0.00000013       0.00000075
Sr       5.57777262       3.94408047       9.66098603       0.00000001       0.00000062      -0.00000017
Pt       0.00000009       0.00000009       0.00000016       0.00000041      -0.00000011       0.00000108
S        1.89630972       1.34089338       6.44065745      -0.00050598      -0.00035813      -0.00000105
S        5.54072029       3.91788119       6.44065728       0.00050712       0.00035736       0.00000021
S        4.62961809       1.34089309       4.86258058       0.00025100      -0.00035417      -0.00043464
S        2.80741257       3.91788123       8.01873398      -0.00025174       0.00035545       0.00043511
S        2.80741245       3.91788150       4.86258066      -0.00025076       0.00035381      -0.00043517
S        4.62961801       1.34089320       8.01873374       0.00025102      -0.00035462       0.00043404
