9
Lattice="5.804145372589835 4.0688498370099525e-08 3.3510251064677417 1.934715154282303 5.472200759284046 3.351025120801855 8.833258265425849e-08 8.001621715750067e-08 6.702050059938933" Properties=species:S:1:pos:R:3:forces:R:3 energy=-36.451900482177734 free_energy=-36.451900482177734 stress="0.0003223502717446536 6.796792906271776e-09 -2.1572128972024984e-08 6.796792906271776e-09 0.00032233199453912675 5.566679117663398e-09 -2.1572128972024984e-08 5.566679117663398e-09 0.00032229084172286093" pbc="T T T"
Sr       1.93471509       1.36804977       3.35102507       0.00000047       0.00000080       0.00000011
Sr       5.80414526       4.10415092      10.05307521      -0.00000027       0.00000033       0.00000002
Pb       0.00000012       0.00000008      -0.00000016       0.00000100      -0.00000108      -0.00000135
S        2.06646272       1.46120970       6.70204984      -0.00325143      -0.00230008       0.00000133
S        5.67239799       4.01099110       6.70205029       0.00325158       0.00229952      -0.00000057
S        4.77091408       1.46120969       5.14063411       0.00162511      -0.00229943      -0.00281566
S        2.96794661       4.01099153       8.26346625      -0.00162709       0.00229952       0.00281811
S        2.96794628       4.01099104       5.14063412      -0.00162520       0.00229922      -0.00281590
S        4.77091427       1.46120968       8.26346644       0.00162587      -0.00229868       0.00281408
