9
Lattice="4.9596085416979445 -1.6788600098668994e-09 2.863431325914583 1.6532028465668545 4.675963763950526 2.863431324326208 7.907046351410397e-10 -1.3862463483359534e-09 5.7268626504596245" Properties=species:S:1:pos:R:3:forces:R:3 energy=-50.66264343261719 free_energy=-50.66264343261719 stress="0.00030185579089447856 2.0150685564601645e-09 3.964407913059631e-09 2.0150685564601645e-09 0.0003018728457391262 -1.3962689671132011e-08 3.964407913059631e-09 -1.3962689671132011e-08 0.0003017893177457154" pbc="T T T"
Sr       1.65320284       1.16899095       2.86343134      -0.00000018       0.00000013      -0.00000015
Sr       4.95960852       3.50697282       8.59029394       0.00000035       0.00000011      -0.00000042
Pt       0.00000000       0.00000008      -0.00000006      -0.00000020      -0.00000476       0.00000379
O        1.57485620       1.11359152       5.72686267      -0.00046444      -0.00032848       0.00000024
O        5.03795518       3.56237220       5.72686264       0.00046659       0.00033015       0.00000023
O        4.17218043       1.11359155       4.22729683       0.00023240      -0.00032905      -0.00040278
O        2.44063097       3.56237222       7.22642848      -0.00023255       0.00032857       0.00040257
O        2.44063098       3.56237220       4.22729687      -0.00023353       0.00033066      -0.00040457
O        4.17218045       1.11359152       7.22642851       0.00023127      -0.00032732       0.00040141
