9
Lattice="5.011009204973318 5.585426240461479e-08 2.8931078146284026 1.6703364206872748 4.7244248358854035 2.893107872878128 1.0071307520845974e-07 1.4255577460392835e-07 5.7862154548168405" Properties=species:S:1:pos:R:3:forces:R:3 energy=-46.25648498535156 free_energy=-46.25648498535156 stress="-0.0001295984402531758 -2.527949227726367e-08 3.719701879845161e-08 -2.527949227726367e-08 -0.00012955180136486888 4.364835248793497e-08 3.719701879845161e-08 4.364835248793497e-08 -0.00012955264537595212" pbc="T T T"
Sr       1.67033652       1.18110640       2.89310830       0.00000003      -0.00000039      -0.00000093
Sr       5.01100903       3.54331865       8.67932263      -0.00000000       0.00000137       0.00000171
Pb      -0.00000002       0.00000062      -0.00000032      -0.00000186      -0.00000836       0.00000752
O        1.71730720       1.21431965       5.78621497       0.00287312       0.00203192      -0.00000099
O        4.96403779       3.51010514       5.78621545      -0.00286746      -0.00202805       0.00000092
O        4.15235543       1.21431937       4.38033995      -0.00143474       0.00202781       0.00248533
O        2.52899012       3.51010560       7.19209150       0.00143620      -0.00203109      -0.00248617
O        2.52899035       3.51010516       4.38034030       0.00143242      -0.00202680       0.00248128
O        4.15235630       1.21431960       7.19209218      -0.00143752       0.00203335      -0.00248909
