9
Lattice="4.936434023690115 7.57587281218024e-09 2.8500514588232586 1.6454780185670848 4.654114577875491 2.850051452712968 2.9800720843220218e-09 -5.376320901594662e-09 5.700102912484876" Properties=species:S:1:pos:R:3:forces:R:3 energy=-48.49291229248047 free_energy=-48.49291229248047 stress="-0.00013875120203010738 4.903337469386315e-08 9.543851930970959e-09 4.903337469386315e-08 -0.0001387895899824798 3.585600794053789e-08 9.543851930970959e-09 3.585600794053789e-08 -0.0001389625103911385" pbc="T T T"
Sr       1.64547799       1.16352864       2.85005149       0.00000019       0.00000130       0.00000045
Sr       4.93643402       3.49058595       8.55015438       0.00000027      -0.00000035      -0.00000107
Pd       0.00000009       0.00000008      -0.00000016       0.00000256      -0.00000323       0.00000520
O        1.58649215       1.12181933       5.70010292      -0.00436988      -0.00309101       0.00000024
O        4.99541980       3.53229517       5.70010290       0.00436950       0.00309023       0.00000047
O        4.14318799       1.12181932       4.22399387       0.00218415      -0.00308946      -0.00378364
O        2.43872402       3.53229532       7.17621202      -0.00218441       0.00308946       0.00378343
O        2.43872409       3.53229525       4.22399389      -0.00218467       0.00309068      -0.00378454
O        4.14318804       1.12181929       7.17621199       0.00218223      -0.00308788       0.00378022
