9
Lattice="5.882197976920507 -3.4034940437062675e-08 3.396088551744699 1.9607326449002829 5.54578933039389 3.396088520541585 2.6517939577189572e-08 -1.946499249579189e-08 6.79217705755917" Properties=species:S:1:pos:R:3:forces:R:3 energy=-37.37592315673828 free_energy=-37.37592315673828 stress="1.8112934867531294e-06 -8.005603291394436e-09 -3.2871627642094836e-09 -8.005603291394436e-09 1.8038537064057891e-06 1.2321597964159992e-08 -3.2871627642094836e-09 1.2321597964159992e-08 1.8147737819163012e-06" pbc="T T T"
Sr       1.96073291       1.38644741       3.39608849      -0.00000044      -0.00000009       0.00000023
Sr       5.88219783       4.15934184      10.18826572       0.00000011       0.00000082       0.00000012
Pd      -0.00000040      -0.00000054       0.00000025       0.00000531       0.00000562      -0.00000456
Se       2.04437076       1.44558847       6.79217706       0.00456810       0.00322932      -0.00000035
Se       5.79856032       4.10020109       6.79217701      -0.00457412      -0.00323436      -0.00000022
Se       4.86001269       1.44558843       5.16656527      -0.00228587       0.00323229       0.00395870
Se       2.98291792       4.10020088       8.41778887       0.00228491      -0.00323062      -0.00395718
Se       2.98291800       4.10020098       5.16656520       0.00228675      -0.00323401       0.00396049
Se       4.86001257       1.44558843       8.41778869      -0.00228484       0.00323091      -0.00395733
