9
Lattice="5.851370154232263 7.985825675788245e-08 3.378290216249451 1.9504567298620998 5.51672497476003 3.378290326245784 -5.6542103035895265e-08 9.473614819976125e-08 6.756580530432611" Properties=species:S:1:pos:R:3:forces:R:3 energy=-38.85957717895508 free_energy=-38.85957717895508 stress="-2.4071392545010895e-05 2.1268739658353297e-08 -9.434691250476135e-09 2.1268739658353297e-08 -2.4103070245473646e-05 2.563441370284636e-08 -9.434691250476135e-09 2.563441370284636e-08 -2.4112236133078113e-05" pbc="T T T"
Sr       1.95045670       1.37918094       3.37829027      -0.00000005       0.00000010      -0.00000035
Sr       5.85137019       4.13754410      10.13487061      -0.00000010      -0.00000043       0.00000007
Pt       0.00000029       0.00000019       0.00000111      -0.00000486       0.00000108      -0.00001224
Se       2.01607232       1.42557858       6.75658043       0.00042298       0.00029965       0.00000016
Se       5.78575449       4.09114659       6.75658066      -0.00042222      -0.00029853      -0.00000085
Se       4.84333383       1.42557825       5.12425999      -0.00021207       0.00030219       0.00036891
Se       2.95849311       4.09114652       8.38890084       0.00021005      -0.00029723      -0.00036462
Se       2.95849244       4.09114694       5.12425941       0.00021575      -0.00030413       0.00037290
Se       4.84333388       1.42557850       8.38890099      -0.00020956       0.00029728      -0.00036396
