9
Lattice="5.794139870526624 -6.222954474431732e-08 3.345248195171612 1.9313798997182714 5.46276740248456 3.3452481924928184 5.7430016322461814e-08 3.7328249488579336e-08 6.690496290871517" Properties=species:S:1:pos:R:3:forces:R:3 energy=-38.67671203613281 free_energy=-38.67671203613281 stress="-0.000137796436320059 -3.300329609601249e-08 -1.100536284326381e-08 -3.300329609601249e-08 -0.00013776286505162716 -1.922909476093082e-08 -1.100536284326381e-08 -1.922909476093082e-08 -0.00013779732398688793" pbc="T T T"
Sr       1.93138002       1.36569160       3.34524834       0.00000023       0.00000143       0.00000033
Sr       5.79414032       4.09707567      10.03574413      -0.00000040      -0.00000118       0.00000125
Sn      -0.00000024       0.00000016      -0.00000035       0.00000397      -0.00000114       0.00000133
S        2.01221618       1.42285146       6.69049633       0.00144386       0.00101975      -0.00000128
S        5.71330382       4.03991579       6.69049671      -0.00144678      -0.00102228      -0.00000126
S        4.78803145       1.42285166       5.08787826      -0.00072122       0.00102091       0.00125173
S        2.93748789       4.03991555       8.29311456       0.00072238      -0.00101933      -0.00125071
S        2.93748800       4.03991541       5.08787833       0.00072083      -0.00101894       0.00125080
S        4.78803182       1.42285214       8.29311438      -0.00072286       0.00102052      -0.00125229
