9
Lattice="5.714334619747069 -3.4081258771263694e-07 3.299172944759775 1.9047778342566961 5.387525856578705 3.2991730331020466 -1.952044312532804e-07 -2.9833518364664664e-08 6.5983462276234475" Properties=species:S:1:pos:R:3:forces:R:3 energy=-42.56241989135742 free_energy=-42.56241989135742 stress="2.9165270461817272e-05 -3.509429191694835e-08 -3.3240848296145487e-08 -3.509429191694835e-08 2.9336046281969175e-05 2.4313600022196624e-08 -3.3240848296145487e-08 2.4313600022196624e-08 2.9397631806205027e-05" pbc="T T T"
Sr       1.90477774       1.34688082       3.29917294       0.00000005       0.00000118       0.00000041
Sr       5.71433408       4.04064428       9.89751802      -0.00000032       0.00000004       0.00000041
Sc      -0.00000032       0.00000039       0.00000196       0.00000369      -0.00000312      -0.00002055
S        2.00774343       1.41968857       6.59834614      -0.00083199      -0.00058615       0.00000048
S        5.61136944       3.96783663       6.59834607       0.00082803       0.00058666       0.00000331
S        4.71046267       1.41968873       5.03792982       0.00041460      -0.00058424      -0.00072069
S        2.90864975       3.96783630       8.15876192      -0.00041823       0.00059178       0.00072803
S        2.90864960       3.96783712       5.03792974      -0.00041312       0.00058408      -0.00071682
S        4.71046268       1.41968915       8.15876231       0.00041741      -0.00059021       0.00072533
