9
Lattice="5.037290711178884 1.7133759479903003e-08 2.9082809371111384 1.6790969813479124 4.749202687168638 2.908280830645817 6.132004639915969e-08 -8.703299311742571e-08 5.816561768012821" Properties=species:S:1:pos:R:3:forces:R:3 energy=-48.77601623535156 free_energy=-48.77601623535156 stress="0.00036458310205489397 5.751929421649038e-08 -4.545164600244789e-08 5.751929421649038e-08 0.0003645863034762442 -2.940242360693901e-08 -4.545164600244789e-08 -2.940242360693901e-08 0.0003645490505732596" pbc="T T T"
Sr       1.67909719       1.18730107       2.90828092      -0.00000086      -0.00000027       0.00000111
Sr       5.03729028       3.56190194       8.72484280       0.00000132       0.00000104      -0.00000044
Sn      -0.00000016      -0.00000003       0.00000046      -0.00000084       0.00000272      -0.00000234
O        1.65197694       1.16812398       5.81656179      -0.00267386      -0.00189131       0.00000023
O        5.06441098       3.58107863       5.81656161       0.00267386       0.00188982      -0.00000020
O        4.21130248       1.16812381       4.33893479       0.00133526      -0.00188899      -0.00231296
O        2.50508557       3.58107865       7.29418886      -0.00133538       0.00188875       0.00231433
O        2.50508545       3.58107865       4.33893433      -0.00133449       0.00188816      -0.00231355
O        4.21130230       1.16812380       7.29418865       0.00133586      -0.00188953       0.00231439
