9
Lattice="6.5103019355414995 1.0698174225559983e-07 3.758724528848579 2.170100723764191 6.137971690719232 3.7587245674382816 1.4752319540319036e-08 5.7693961605423474e-08 7.51744903214543" Properties=species:S:1:pos:R:3:forces:R:3 energy=-37.60841369628906 free_energy=-37.60841369628906 stress="-2.690623432499706e-06 2.8495255044447276e-09 3.2341548883429994e-10 2.8495255044447276e-09 -2.6871389309235383e-06 3.6802867420249186e-09 3.2341548883429994e-10 3.6802867420249186e-09 -2.699515107451589e-06" pbc="T T T"
Sr       2.17010056       1.53449322       3.75872465      -0.00000000      -0.00000120      -0.00000003
Sr       6.51030192       4.60347857      11.27617358       0.00000025       0.00000113      -0.00000020
Sc       0.00000013      -0.00000060       0.00000044      -0.00000009       0.00000461      -0.00000126
Te       2.33099760       1.64826460       7.51744894      -0.00019835      -0.00014204       0.00000042
Te       6.34940573       4.48970751       7.51744896       0.00019388       0.00013929       0.00000037
Te       5.34480343       1.64826449       5.77742718       0.00009913      -0.00014084      -0.00017010
Te       3.33559911       4.48970765       9.25747095      -0.00009688       0.00013991       0.00016874
Te       3.33559891       4.48970759       5.77742711      -0.00009712       0.00013990      -0.00016840
Te       5.34480330       1.64826443       9.25747071       0.00009916      -0.00014077       0.00017041
