9
Lattice="5.723153742677865 8.432159028844045e-08 3.3042643387170227 1.9077179881189181 5.395840997467922 3.304264348427222 3.251438505350154e-08 3.4883604823309926e-08 6.60852862111751" Properties=species:S:1:pos:R:3:forces:R:3 energy=-37.91454315185547 free_energy=-37.91454315185547 stress="-4.0197341149905697e-05 4.2493912388863464e-08 1.360454771059949e-08 4.2493912388863464e-08 -4.0191975131165236e-05 5.4041495722856325e-09 1.360454771059949e-08 5.4041495722856325e-09 -4.028978946735151e-05" pbc="T T T"
Sr       1.90771789       1.34896019       3.30426442       0.00000001       0.00000054       0.00000018
Sr       5.72315385       4.04688107       9.91279293       0.00000018      -0.00000053      -0.00000095
Se      -0.00000014       0.00000017      -0.00000062       0.00000895      -0.00000435       0.00001747
S        1.85307628       1.31032287       6.60852856       0.00285530       0.00201955       0.00000089
S        5.77779572       4.08551824       6.60852874      -0.00286019      -0.00202185      -0.00000026
S        4.79661581       1.31032265       4.90907485      -0.00142872       0.00202000       0.00247639
S        2.83425586       4.08551864       8.30798262       0.00143239      -0.00202489      -0.00247946
S        2.83425591       4.08551812       4.90907511       0.00142609      -0.00201628       0.00246927
S        4.79661588       1.31032252       8.30798277      -0.00143400       0.00202778      -0.00248370
