9
Lattice="4.850005495323533 2.4500069707631064e-08 2.800151934546101 1.6166683399104467 4.572629853193911 2.8001522491378097 -2.4693434592872143e-07 2.1068562416770712e-07 5.600304296795031" Properties=species:S:1:pos:R:3:forces:R:3 energy=-49.81002426147461 free_energy=-49.81002426147461 stress="-0.00010101754014613107 -1.323212650561345e-08 -1.098771296170753e-08 -1.323212650561345e-08 -0.00010091334115713835 3.9917349425877546e-08 -1.098771296170753e-08 3.9917349425877546e-08 -0.00010091154399560764" pbc="T T T"
Sr       1.61666821       1.14315744       2.80015219       0.00000198       0.00000157       0.00000001
Sr       4.85000547       3.42947257       8.40045628      -0.00000238      -0.00000024       0.00000011
Se      -0.00000063       0.00000134       0.00000018      -0.00000137       0.00000910      -0.00000041
O        1.50068305       1.06114325       5.60030429       0.00022864       0.00015891       0.00000007
O        4.96599075       3.51148632       5.60030395      -0.00022495      -0.00016367       0.00000055
O        4.09966364       1.06114347       4.09978164      -0.00011373       0.00015903       0.00020182
O        2.36701022       3.51148616       7.10082697       0.00011212      -0.00016296      -0.00019765
O        2.36701019       3.51148647       4.09978191       0.00011259      -0.00016046       0.00019634
O        4.09966332       1.06114341       7.10082658      -0.00011289       0.00015879      -0.00020099
