9
Lattice="4.968100571268899 1.5164495226194373e-08 2.8683342156232396 1.6560335351174167 4.683970216068973 2.8683342207087237 -1.6160224285457157e-10 6.1141506745524074e-09 5.73666843152638" Properties=species:S:1:pos:R:3:forces:R:3 energy=-53.721153259277344 free_energy=-53.721153259277344 stress="0.0003557833842933178 -7.551025760221819e-08 4.4941153021227365e-08 -7.551025760221819e-08 0.0003557201416697353 -5.30021431188743e-08 4.4941153021227365e-08 -5.30021431188743e-08 0.0003559072210919112" pbc="T T T"
Sr       1.65603353       1.17099257       2.86833421      -0.00000016      -0.00000019      -0.00000065
Sr       4.96810053       3.51297769       8.60500269       0.00000078       0.00000035       0.00000071
Sc       0.00000001      -0.00000000       0.00000007       0.00000100      -0.00000294      -0.00000353
O        1.64416543       1.16260053       5.73666844       0.00411940       0.00291261       0.00000004
O        4.97996864       3.52136965       5.73666845      -0.00411832      -0.00291196       0.00000011
O        4.14601791       1.16260047       4.29222320      -0.00206029       0.00291294       0.00356743
O        2.47811622       3.52136968       7.18111360       0.00205830      -0.00291064      -0.00356436
O        2.47811623       3.52136975       4.29222322       0.00205716      -0.00290993       0.00356373
O        4.14601790       1.16260059       7.18111360      -0.00205758       0.00290939      -0.00356361
