9
Lattice="6.078661127455578 1.024926449080124e-08 3.509516629004993 2.026220381295689 5.731016642571963 3.5095166362552574 -1.972440891128078e-08 -5.0675140261491835e-09 7.019033292173655" Properties=species:S:1:pos:R:3:forces:R:3 energy=-36.098941802978516 free_energy=-36.098941802978516 stress="-1.490901740908157e-05 -3.5351213067968956e-09 -1.4324514019392609e-08 -3.5351213067968956e-09 -1.4900476344337221e-05 1.4178685781018885e-08 -1.4324514019392609e-08 1.4178685781018885e-08 -1.48783556142007e-05" pbc="T T T"
Sr       2.02622047       1.43275401       3.50951661       0.00000068      -0.00000079      -0.00000036
Sr       6.07866105       4.29826254      10.52855004       0.00000021       0.00000013      -0.00000013
Sn      -0.00000018       0.00000016       0.00000009       0.00000276      -0.00000395      -0.00000108
Se       2.15880735       1.52650741       7.01903346       0.00083575       0.00059021      -0.00000036
Se       5.94607387       4.20450916       7.01903325      -0.00083497      -0.00059125      -0.00000050
Se       4.99925738       1.52650765       5.37909879      -0.00041854       0.00059119       0.00072482
Se       3.10562433       4.20450911       8.65896738       0.00041580      -0.00058722      -0.00071876
Se       3.10562422       4.20450923       5.37909895       0.00041708      -0.00059026       0.00072148
Se       4.99925750       1.52650738       8.65896764      -0.00041869       0.00059195      -0.00072519
