9
Lattice="5.997587972653865 -1.2035103241862647e-07 3.4627090406553918 1.9991958719742735 5.6545798792062225 3.462709050081639 8.527636941552041e-08 7.184425708192071e-08 6.925417933607705" Properties=species:S:1:pos:R:3:forces:R:3 energy=-40.27065658569336 free_energy=-40.27065658569336 stress="-0.00022309548512566835 2.6683355969225886e-08 -1.0201907096885066e-09 2.6683355969225886e-08 -0.00022307370090857148 -9.194357275532639e-09 -1.0201907096885066e-09 -9.194357275532639e-09 -0.00022309568885248154" pbc="T T T"
Sr       1.99919609       1.41364478       3.46270912      -0.00000015       0.00000007      -0.00000024
Sr       5.99758794       4.24093485      10.38812678       0.00000011       0.00000022      -0.00000016
Sc      -0.00000014       0.00000061       0.00000009      -0.00000057      -0.00000345       0.00000229
Se       2.14872870       1.51938087       6.92541776       0.00141548       0.00100057       0.00000075
Se       5.84805471       4.13519872       6.92541812      -0.00141263      -0.00099811       0.00000023
Se       4.92322365       1.51938077       5.32356268      -0.00070744       0.00099982       0.00122583
Se       3.07356047       4.13519934       8.52727327       0.00070768      -0.00100105      -0.00122651
Se       3.07356059       4.13519874       5.32356281       0.00070633      -0.00099902       0.00122473
Se       4.92322374       1.51938066       8.52727357      -0.00070885       0.00100103      -0.00122693
