9
Lattice="4.772331837708438 -1.3101783872858286e-07 2.7553073336024325 1.5907772011968295 4.499397029899518 2.755307254819238 1.8861669488228043e-07 3.6882805058556805e-08 5.510614340511135" Properties=species:S:1:pos:R:3:forces:R:3 energy=-52.525367736816406 free_energy=-52.525367736816406 stress="-5.363802301872056e-06 5.012854131791755e-09 -1.0698634866912471e-07 5.012854131791755e-09 -5.172717010282213e-06 4.472504144814593e-08 -1.0698634866912471e-07 4.472504144814593e-08 -5.477982995216735e-06" pbc="T T T"
Sr       1.59077725       1.12484914       2.75530735      -0.00000016       0.00000007      -0.00000001
Sr       4.77233209       3.37454790       8.26592152      -0.00000054      -0.00000169       0.00000099
S       -0.00000006       0.00000009      -0.00000069      -0.00000451      -0.00000244       0.00000095
O        1.39422778       0.98586739       5.51061453      -0.00205827      -0.00145543       0.00000156
O        4.96888132       3.51352870       5.51061431       0.00207043       0.00146365       0.00000231
O        4.07521811       0.98586805       3.96274389       0.00103319      -0.00146472      -0.00178409
O        2.28789112       3.51352892       7.05848562      -0.00103188       0.00145626       0.00178480
O        2.28789124       3.51352912       3.96274328      -0.00103414       0.00145924      -0.00178146
O        4.07521823       0.98586807       7.05848643       0.00102544      -0.00145507       0.00177622
