9
Lattice="5.611855151448522 6.926670130786328e-08 3.2400061569578678 1.870618430614102 5.290907130877271 3.240006189013578 -1.1125489788334662e-07 -3.9409068464669524e-08 6.480012506614827" Properties=species:S:1:pos:R:3:forces:R:3 energy=-45.86146926879883 free_energy=-45.86146926879883 stress="0.00013432637206278741 8.21969905473452e-08 -5.075947129284941e-08 8.21969905473452e-08 0.000134358269860968 6.57076171250992e-08 -5.075947129284941e-08 6.57076171250992e-08 0.00013419413880910724" pbc="T T T"
Sr       1.87061831       1.32272677       3.24000611       0.00000033       0.00000010      -0.00000011
Sr       5.61185536       3.96818029       9.72001862      -0.00000032       0.00000042       0.00000102
Ti       0.00000047       0.00000027      -0.00000059      -0.00000318      -0.00000314       0.00000783
S        1.90071326       1.34400720       6.48001252      -0.00104740      -0.00074154      -0.00000019
S        5.58176010       3.94689977       6.48001276       0.00105137       0.00074267      -0.00000103
S        4.66149836       1.34400751       4.88607236       0.00052413      -0.00074223      -0.00090691
S        2.82097477       3.94689975       8.07395270      -0.00052285       0.00073937       0.00090548
S        2.82097453       3.94690034       4.88607194      -0.00052235       0.00073978      -0.00090510
S        4.66149875       1.34400668       8.07395319       0.00052017      -0.00073528       0.00089934
