9
Lattice="6.417018236459671 -1.248124101622392e-07 3.7048672715278945 2.139005959148821 6.050022808011715 3.7048672749863796 3.734569456385592e-08 3.0643220071263366e-08 7.409734478371031" Properties=species:S:1:pos:R:3:forces:R:3 energy=-38.49810028076172 free_energy=-38.49810028076172 stress="-6.633569137193263e-05 1.057438847595904e-08 -1.0728889776601136e-08 1.057438847595904e-08 -6.635610770899802e-05 -2.4577273549653e-09 -1.0728889776601136e-08 -2.4577273549653e-09 -6.635977479163557e-05" pbc="T T T"
Sr       2.13900590       1.51250565       3.70486834      -0.00000027      -0.00000005      -0.00000042
Sr       6.41701825       4.53751753      11.11460081       0.00000039      -0.00000013       0.00000079
Ti      -0.00000008      -0.00000029       0.00000044       0.00000040       0.00000191       0.00000067
Te       2.24391124       1.58668407       7.40973434      -0.00112369      -0.00079300       0.00000044
Te       6.31211330       4.46333852       7.40973455       0.00112188       0.00079232      -0.00000073
Te       5.29506237       1.58668434       5.64815118       0.00056252      -0.00079313      -0.00097230
Te       3.26096190       4.46333835       9.17131769      -0.00056189       0.00079244       0.00097088
Te       3.26096130       4.46333823       5.64815118      -0.00056042       0.00079228      -0.00097026
Te       5.29506278       1.58668448       9.17131759       0.00056106      -0.00079257       0.00097091
