9
Lattice="5.905342343183729 1.6183935842821976e-08 3.4094509581708885 1.9684475584172598 5.567609915517567 3.40945079287964 4.3098119339008574e-08 -1.71964610846961e-07 6.818901841693656" Properties=species:S:1:pos:R:3:forces:R:3 energy=-42.46417999267578 free_energy=-42.46417999267578 stress="4.519594585872255e-05 3.032085160725728e-08 1.8795022427298136e-08 3.032085160725728e-08 4.517902561929077e-05 -6.005396357977588e-08 1.8795022427298136e-08 -6.005396357977588e-08 4.520246875472367e-05" pbc="T T T"
Sr       1.96844775       1.39190239       3.40945094      -0.00000042       0.00000004       0.00000027
Sr       5.90534214       4.17570745      10.22835264       0.00000061       0.00000016       0.00000000
Ti      -0.00000040       0.00000038      -0.00000016       0.00000215      -0.00000169       0.00000127
Se       2.03472204       1.43876546       6.81890182      -0.00134611      -0.00095145      -0.00000026
Se       5.83906783       4.12884408       6.81890137       0.00134527       0.00095145       0.00000154
Se       4.88798181       1.43876533       5.17157190       0.00066945      -0.00095031      -0.00116320
Se       2.98580845       4.12884463       8.46623208      -0.00067053       0.00094796       0.00116228
Se       2.98580852       4.12884383       5.17157168      -0.00067457       0.00095433      -0.00116607
Se       4.88798152       1.43876554       8.46623198       0.00067411      -0.00095040       0.00116423
