9
Lattice="4.883129958427877 -5.9002765454093725e-08 2.8192763180918026 1.6277099627363578 4.603859209605937 2.819276262281511 2.3943366695541593e-08 -5.14227746010953e-08 5.638552594712469" Properties=species:S:1:pos:R:3:forces:R:3 energy=-58.31708526611328 free_energy=-58.31708526611328 stress="-5.112311555421911e-05 7.140189950405329e-08 -4.218932758703886e-08 7.140189950405329e-08 -5.100842099636793e-05 -1.0992120991204501e-07 -4.218932758703886e-08 -1.0992120991204501e-07 -5.126702308189124e-05" pbc="T T T"
Sr       1.62770983       1.15096470       2.81927611       0.00000084       0.00000027       0.00000112
Sr       4.88313010       3.45289424       8.45782938      -0.00000186       0.00000022      -0.00000237
Ti      -0.00000057       0.00000021      -0.00000046       0.00000424      -0.00000054       0.00000453
O        1.55897697       1.10236302       5.63855243       0.00034189       0.00024194      -0.00000002
O        4.95186300       3.50149592       5.63855294      -0.00034136      -0.00024363      -0.00000187
O        4.10364155       1.10236278       4.16938938      -0.00017390       0.00024787       0.00030494
O        2.40719846       3.50149624       7.10771565       0.00017336      -0.00024807      -0.00030333
O        2.40719860       3.50149617       4.16938965       0.00017074      -0.00024247       0.00029951
O        4.10364162       1.10236303       7.10771576      -0.00017390       0.00024477      -0.00030178
