9
Lattice="5.565982451718216 1.1946875179740247e-07 3.213521481443454 1.8553274518027403 5.2476593046822515 3.213521732139701 -1.5183321897284485e-07 1.996767007635821e-07 6.427043225869803" Properties=species:S:1:pos:R:3:forces:R:3 energy=-46.07790756225586 free_energy=-46.07790756225586 stress="-6.91281911713304e-06 -2.212034644344385e-08 9.773083675668204e-09 -2.212034644344385e-08 -6.872269295854494e-06 -1.7671695218268724e-08 9.773083675668204e-09 -1.7671695218268724e-08 -6.829183803347405e-06" pbc="T T T"
Sr       1.85532756       1.31191504       3.21352162      -0.00000079       0.00000057      -0.00000097
Sr       5.56598254       3.93574489       9.64056503       0.00000013      -0.00000120      -0.00000028
V        0.00000028       0.00000006       0.00000021      -0.00000212      -0.00000049      -0.00000176
S        1.84619352       1.30545616       6.42704328       0.00017148       0.00012106      -0.00000014
S        5.57511601       3.94220297       6.42704312      -0.00016940      -0.00012052       0.00000024
S        4.64288535       1.30545648       4.81237190      -0.00008434       0.00011975       0.00014621
S        2.77842410       3.94220331       8.04171393       0.00008440      -0.00011840      -0.00014448
S        2.77842438       3.94220303       4.81237262       0.00008389      -0.00011837       0.00014460
S        4.64288532       1.30545661       8.04171393      -0.00008303       0.00011772      -0.00014341
