9
Lattice="6.341326106722872 -1.2374688268985603e-07 3.661166346071939 2.1137753841201934 5.978659521093769 3.661166117645159 1.0917085127548413e-07 -2.0256905320128163e-07 7.322332503054349" Properties=species:S:1:pos:R:3:forces:R:3 energy=-38.243350982666016 free_energy=-38.243350982666016 stress="-3.2587860914645717e-05 -1.4476237986116303e-08 2.1835825592120273e-08 -1.4476237986116303e-08 -3.258635479141958e-05 -1.535949145647919e-08 2.1835825592120273e-08 -1.535949145647919e-08 -3.25841574522201e-05" pbc="T T T"
Sr       2.11377540       1.49466485       3.66116549       0.00000015      -0.00000019       0.00000036
Sr       6.34132622       4.48399465      10.98349955       0.00000031       0.00000031      -0.00000061
V       -0.00000006      -0.00000050       0.00000062      -0.00000079       0.00000099      -0.00000058
Te       2.22010812       1.56985328       7.32233232      -0.00167825      -0.00118626      -0.00000064
Te       6.23499330       4.40880604       7.32233212       0.00167850       0.00118819       0.00000033
Te       5.23127243       1.56985345       5.58383606       0.00083801      -0.00118701      -0.00145389
Te       3.22382970       4.40880562       9.06082902      -0.00083838       0.00118624       0.00145172
Te       3.22382958       4.40880568       5.58383611      -0.00083998       0.00118676      -0.00145315
Te       5.23127177       1.56985373       9.06082858       0.00084051      -0.00118898       0.00145642
