9
Lattice="5.852734708274897 -6.284978264461751e-08 3.379078132695305 1.950911564819059 5.518011266382749 3.3790780380398813 1.1559013127227598e-07 -3.419411434780041e-08 6.758156065182534" Properties=species:S:1:pos:R:3:forces:R:3 energy=-42.192352294921875 free_energy=-42.192352294921875 stress="-0.00011257682490395382 -3.907625867327624e-08 1.9038910892277272e-08 -3.907625867327624e-08 -0.00011256953439442441 -2.088333772576334e-08 1.9038910892277272e-08 -2.088333772576334e-08 -0.00011255156277911738" pbc="T T T"
Sr       1.95091159       1.37950279       3.37907826       0.00000019      -0.00000012      -0.00000023
Sr       5.85273463       4.13850841      10.13723392       0.00000008       0.00000033       0.00000050
V       -0.00000040      -0.00000076       0.00000045       0.00000150       0.00000243      -0.00000073
Se       1.98767396       1.40549769       6.75815590      -0.00181080      -0.00127867      -0.00000027
Se       5.81597263       4.11251404       6.75815631       0.00180572       0.00127742      -0.00000058
Se       4.85889766       1.40549777       5.10045425       0.00090538      -0.00127925      -0.00156805
Se       2.94474901       4.11251339       8.41585792      -0.00090514       0.00127943       0.00156672
Se       2.94474883       4.11251334       5.10045434      -0.00090411       0.00127991      -0.00156710
Se       4.85889764       1.40549805       8.41585764       0.00090706      -0.00128148       0.00156984
