9
Lattice="4.92677594697871 8.007018097085118e-08 2.8444753724828065 1.6422586832369397 4.645009257844016 2.844475443924472 -7.336047652133377e-08 3.562409887830617e-08 5.688950872029751" Properties=species:S:1:pos:R:3:forces:R:3 energy=-56.50803756713867 free_energy=-56.50803756713867 stress="-0.00012627022806555033 3.7580058176445164e-08 3.8420207459921585e-08 3.7580058176445164e-08 -0.00012616095773410052 1.915241121253075e-08 3.8420207459921585e-08 1.915241121253075e-08 -0.00012619871995411813" pbc="T T T"
Sr       1.64225883       1.16125255       2.84447542      -0.00000129      -0.00000018      -0.00000060
Sr       4.92677547       3.48375682       8.53342628       0.00000143      -0.00000013      -0.00000058
V        0.00000024      -0.00000028       0.00000022      -0.00000193       0.00000144       0.00000123
O        1.51542419       1.07156709       5.68895077       0.00805759       0.00569785       0.00000058
O        5.05361043       3.57344232       5.68895078      -0.00805724      -0.00569624      -0.00000014
O        4.16906409       1.07156712       4.15687119      -0.00402856       0.00569689       0.00697529
O        2.39997057       3.57344252       7.22103033       0.00402951      -0.00569850      -0.00697881
O        2.39997065       3.57344222       4.15687146       0.00402921      -0.00569749       0.00697899
O        4.16906378       1.07156704       7.22103015      -0.00402868       0.00569648      -0.00697517
