9
Lattice="4.853907365037489 -1.1939789264534415e-08 2.802404525763342 1.6179691755523833 4.5763074427526185 2.802404412954662 -4.2768440491934684e-08 -1.6840379826744047e-07 5.6048091256037855" Properties=species:S:1:pos:R:3:forces:R:3 energy=-53.122711181640625 free_energy=-53.122711181640625 stress="1.950150544871576e-05 3.81532423432418e-08 2.914110552865168e-08 3.81532423432418e-08 1.950617297552526e-05 -4.167683798073085e-08 2.914110552865168e-08 -4.167683798073085e-08 1.952715865627397e-05" pbc="T T T"
Sr       1.61796944       1.14407729       2.80240443      -0.00000018      -0.00000326      -0.00000205
Sr       4.85390717       3.43223059       8.40721337       0.00000143      -0.00000068      -0.00000095
Y        0.00000029      -0.00000058      -0.00000109      -0.00000358       0.00000589       0.00000862
O        1.78787258       1.26421665       5.60480928       0.00195396       0.00138208       0.00000034
O        4.68400391       3.31209060       5.60480867      -0.00195336      -0.00138208       0.00000028
O        3.95997079       1.26421638       4.35074759      -0.00097713       0.00138250       0.00169277
O        2.51190539       3.31209085       6.85887105       0.00098035      -0.00138617      -0.00169677
O        2.51190543       3.31209073       4.35074820       0.00097623      -0.00138173       0.00169170
O        3.95997100       1.26421660       6.85887088      -0.00097764       0.00138402      -0.00169379
