9
Lattice="6.225253663313514 -1.5488714087801852e-08 3.5941516977818964 2.0750844853437553 5.869225501550064 3.5941517921634203 -1.1057936356443676e-07 3.7401821341679603e-08 7.188303587092817" Properties=species:S:1:pos:R:3:forces:R:3 energy=-40.02596664428711 free_energy=-40.02596664428711 stress="-4.88775476696901e-05 -6.638249061552415e-09 3.0412855567263364e-10 -6.638249061552415e-09 -4.884935697191395e-05 -1.5968376843034093e-08 3.0412855567263364e-10 -1.5968376843034093e-08 -4.886299939244054e-05" pbc="T T T"
Sr       2.07508430       1.46730609       3.59415164       0.00000035       0.00000001       0.00000009
Sr       6.22525392       4.40191938      10.78245521      -0.00000043      -0.00000015       0.00000029
Y        0.00000011       0.00000021       0.00000072       0.00000011       0.00000033      -0.00000677
Se       2.28538529       1.61601175       7.18830334       0.00251381       0.00177657       0.00000091
Se       6.01495255       4.25321363       7.18830375      -0.00251411      -0.00177728       0.00000076
Se       5.08256067       1.61601158       5.57335351      -0.00125670       0.00177794       0.00217787
Se       3.21777730       4.25321382       8.80325332       0.00125639      -0.00177624      -0.00217593
Se       3.21777735       4.25321389       5.57335364       0.00125718      -0.00177662       0.00217796
Se       5.08256062       1.61601177       8.80325313      -0.00125651       0.00177536      -0.00217499
