9
Lattice="5.972727583098444 -2.4881976971357865e-07 3.448356299487081 1.9909091769242029 5.631141587944107 3.448355923376448 3.952056182778996e-07 -1.8118698904394932e-07 6.896711914457931" Properties=species:S:1:pos:R:3:forces:R:3 energy=-42.02304458618164 free_energy=-42.02304458618164 stress="-6.591000783373602e-06 -5.575711892191748e-09 -5.878067810272114e-08 -5.575711892191748e-09 -6.588180895050755e-06 5.24273646718143e-09 -5.878067810272114e-08 5.24273646718143e-09 -6.447906798712211e-06" pbc="T T T"
Sr       1.99090900       1.40778501       3.44835559      -0.00000165      -0.00000056       0.00000048
Sr       5.97272829       4.22335572      10.34506890       0.00000102       0.00000022       0.00000085
Y        0.00000002       0.00000063       0.00000137      -0.00000218      -0.00000470      -0.00001562
S        2.16675669       1.53212749       6.89671196      -0.00091134      -0.00064364      -0.00000027
S        5.79688024       4.09901289       6.89671219       0.00091359       0.00064845       0.00000144
S        4.88934981       1.53212807       5.32482341       0.00045694      -0.00064550      -0.00078762
S        3.07428794       4.09901229       8.46860047      -0.00045947       0.00064990       0.00079657
S        3.07428722       4.09901347       5.32482209      -0.00045736       0.00064611      -0.00079076
S        4.88934944       1.53212910       8.46860069       0.00046058      -0.00065039       0.00079475
