9
Lattice="5.815010243799744 -1.8361868539161914e-07 3.3572980720106957 1.9383365961808972 5.482444382368521 3.3572980350055124 9.645780672880586e-08 2.2883980867302266e-08 6.714595976951603" Properties=species:S:1:pos:R:3:forces:R:3 energy=-32.359683990478516 free_energy=-32.359683990478516 stress="-8.432222966803238e-05 -4.2078152517888157e-08 -1.5681871801120906e-08 -4.2078152517888157e-08 -8.430200250586495e-05 -3.809299897739038e-08 -1.5681871801120906e-08 -3.809299897739038e-08 -8.435077324975282e-05" pbc="T T T"
Sr       1.93833645       1.37061110       3.35729811       0.00000093      -0.00000032      -0.00000050
Sr       5.81501025       4.11183316      10.07189394      -0.00000041      -0.00000064      -0.00000049
Zn       0.00000003      -0.00000020       0.00000080       0.00000024       0.00000155      -0.00000638
Se       2.05027846       1.44976582       6.71459560       0.00067583       0.00047685      -0.00000042
Se       5.70306827       4.03267793       6.71459633      -0.00067572      -0.00047855       0.00000040
Se       4.78987120       1.44976610       5.13289154      -0.00033849       0.00047942       0.00058705
Se       2.96347621       4.03267807       8.29630027       0.00033509      -0.00047493      -0.00058427
Se       2.96347601       4.03267818       5.13289146       0.00033821      -0.00047928       0.00058688
Se       4.78987086       1.44976675       8.29630028      -0.00033566       0.00047579      -0.00058208
