9
Lattice="6.37732687581132 -2.0056203395202248e-07 3.6819514815261085 2.1257754635576753 6.012601374795186 3.681951434104396 6.294559352561914e-08 -1.357044459698759e-08 7.363902854027472" Properties=species:S:1:pos:R:3:forces:R:3 energy=-29.775808334350586 free_energy=-29.775808334350586 stress="-9.665369361755438e-06 -1.6671689806457834e-08 1.2065712873265966e-09 -1.6671689806457834e-08 -9.663355740485713e-06 9.769839381945644e-10 1.2065712873265966e-09 9.769839381945644e-10 -9.65018080023583e-06" pbc="T T T"
Sr       2.12577573       1.50314987       3.68195124      -0.00000002      -0.00000035      -0.00000012
Sr       6.37732676       4.50945112      11.04585434      -0.00000016       0.00000020      -0.00000019
Zn       0.00000016       0.00000010       0.00000010      -0.00000140      -0.00000005      -0.00000124
Te       2.26315039       1.60028895       7.36390268       0.00076881       0.00054407       0.00000114
Te       6.23995220       4.41231219       7.36390271      -0.00076926      -0.00054374       0.00000066
Te       5.24575143       1.60028877       5.64189732      -0.00038300       0.00054348       0.00066601
Te       3.25735062       4.41231251       9.08590871       0.00038469      -0.00054412      -0.00066634
Te       3.25735077       4.41231242       5.64189713       0.00038408      -0.00054356       0.00066651
Te       5.24575156       1.60028874       9.08590877      -0.00038361       0.00054410      -0.00066626
