9
Lattice="4.633265771002208 2.9448335210797246e-07 2.6750173285994046 1.5444220907227588 4.368285082893484 2.6750175201403725 -9.529933378690564e-08 1.6720195905718185e-07 5.350034822262119" Properties=species:S:1:pos:R:3:forces:R:3 energy=-43.6923828125 free_energy=-43.6923828125 stress="8.182435703929514e-05 1.8969642212596227e-07 -1.4220290722732898e-08 1.8969642212596227e-07 8.166923362296075e-05 -4.060699509977894e-08 -1.4220290722732898e-08 -4.060699509977894e-08 8.142940350808203e-05" pbc="T T T"
Sr       1.54442230       1.09207131       2.67501739      -0.00000257       0.00000210      -0.00000078
Sr       4.63326594       3.27621423       8.02505186       0.00000173       0.00000098      -0.00000061
Zn       0.00000125       0.00000091      -0.00000106      -0.00003083      -0.00002686       0.00003402
O        1.59754867       1.12963752       5.35003503      -0.00004615      -0.00003286      -0.00000078
O        4.58013840       3.23864747       5.35003483       0.00007799       0.00005379       0.00000031
O        3.83449117       1.12963730       4.05853424       0.00003120      -0.00004382      -0.00005084
O        2.34319523       3.23864861       6.64153590      -0.00002159       0.00003187       0.00003836
O        2.34319614       3.23864775       4.05853509      -0.00003227       0.00004600      -0.00005583
O        3.83449203       1.12963703       6.64153563       0.00002263      -0.00003122       0.00003593
