9
Lattice="4.2207611324930125 -3.240074997239209e-08 2.4368575241255566 1.4069203731127171 3.9793716215219366 2.4368574788103112 1.9169443296110463e-08 -4.1944768536338954e-08 4.873715015048662" Properties=species:S:1:pos:R:3:forces:R:3 energy=-79.10320281982422 free_energy=-79.10320281982422 stress="-8.236600842792541e-05 2.4460215186650203e-08 -4.433434952488824e-09 2.4460215186650203e-08 -8.224109478760511e-05 5.326516472337062e-08 -4.433434952488824e-09 5.326516472337062e-08 -8.256489672930911e-05" pbc="T T T"
Ta       1.40692016       0.99484283       2.43685780       0.00000166      -0.00000063      -0.00000213
Ta       4.22076121       2.98452855       7.31057193      -0.00000047      -0.00000114       0.00000152
Cr      -0.00000012      -0.00000000      -0.00000004      -0.00000394      -0.00000072      -0.00000459
N        1.49010485       1.05366317       4.87371519       0.00040221       0.00028527       0.00000209
N        4.13757659       2.92570843       4.87371539      -0.00039899      -0.00028098       0.00000110
N        3.47570862       1.05366328       3.72732612      -0.00020045       0.00028443       0.00034964
N        2.15197282       2.92570836       6.02010372       0.00019962      -0.00028306      -0.00034845
N        2.15197285       2.92570827       3.72732611       0.00019926      -0.00028467       0.00034875
N        3.47570903       1.05366336       6.02010375      -0.00019819       0.00028157      -0.00034720
