9
Lattice="4.187698018334772 2.0979814257074784e-08 2.417768504040907 1.3958993391070846 3.948199599893438 2.417768538885958 -6.001554960195654e-08 2.388934375330802e-10 4.835537112031794" Properties=species:S:1:pos:R:3:forces:R:3 energy=-75.59906768798828 free_energy=-75.59906768798828 stress="-0.0007015196024440229 1.3112368435486133e-07 -1.56216426461242e-08 1.3112368435486133e-07 -0.0007018680917099118 7.634871224126982e-08 -1.56216426461242e-08 7.634871224126982e-08 -0.0007016472518444061" pbc="T T T"
Ta       1.39589935       0.98704970       2.41776873       0.00000054       0.00000442       0.00000205
Ta       4.18769779       2.96114981       7.25330560      -0.00000144      -0.00000515       0.00000019
Co      -0.00000009       0.00000013       0.00000018       0.00000188      -0.00000447       0.00000001
N        1.45979384       1.03223042       4.83553672      -0.00173384      -0.00122452      -0.00000033
N        4.12380321       2.91596947       4.83553663       0.00173557       0.00122803      -0.00000321
N        3.45780098       1.03222997       3.68198735       0.00086349      -0.00122699      -0.00149727
N        2.12579647       2.91596928       5.98908711      -0.00086427       0.00122389       0.00149986
N        2.12579633       2.91596945       3.68198716      -0.00086629       0.00122511      -0.00149962
N        3.45780122       1.03223035       5.98908700       0.00086382      -0.00122115       0.00149706
