9
Lattice="4.102859834883871 -3.540274211235574e-08 2.3687872773106413 1.3676199312450426 3.8682132412651367 2.3687872432554506 6.1330430024982e-08 1.6582424395020275e-09 4.737574448393861" Properties=species:S:1:pos:R:3:forces:R:3 energy=-74.3613510131836 free_energy=-74.3613510131836 stress="8.375875768251717e-05 -8.568801668218384e-09 -3.239899726281692e-08 -8.568801668218384e-09 8.403511310461909e-05 2.807736620979995e-07 -3.239899726281692e-08 2.807736620979995e-07 8.381050429306924e-05" pbc="T T T"
Ta       1.36762054       0.96705287       2.36878710      -0.00000058      -0.00000018       0.00001984
Ta       4.10285994       2.90116038       7.10636295       0.00000323      -0.00000236       0.00000589
C       -0.00000166      -0.00000007      -0.00000489      -0.00002890       0.00000236      -0.00012451
N        1.30299719       0.92135859       4.73757373       0.00249195       0.00176656      -0.00001631
N        4.16748377       2.94685593       4.73757330      -0.00246215      -0.00173897      -0.00001484
N        3.45136005       0.92135903       3.49721654      -0.00126636       0.00178146       0.00216603
N        2.01911691       2.94685709       5.97793455       0.00120962      -0.00171709      -0.00211918
N        2.01911991       2.94685347       3.49721751       0.00126368      -0.00179529       0.00218379
N        3.45136269       0.92135546       5.97793513      -0.00120986       0.00170338      -0.00210333
