9
Lattice="4.164982754815412 1.8386490117066763e-08 2.404653872032942 1.3883276051112305 3.9267834002991444 2.4046538671177236 1.9493515347787162e-08 7.764097601133676e-09 4.809307710302119" Properties=species:S:1:pos:R:3:forces:R:3 energy=-77.60635375976562 free_energy=-77.60635375976562 stress="0.00010174105409532785 -3.372369761223126e-08 1.7452306266818596e-08 -3.372369761223126e-08 0.00010155754716834053 5.35298845250054e-08 1.7452306266818596e-08 5.35298845250054e-08 0.0001015216184896417" pbc="T T T"
Ta       1.38832758       0.98169599       2.40465404      -0.00000028      -0.00000080       0.00000180
Ta       4.16498257       2.94508761       7.21396157       0.00000004      -0.00000043      -0.00000001
Fe      -0.00000002      -0.00000028      -0.00000025      -0.00000155       0.00000044      -0.00000052
N        1.49907332       1.06000469       4.80930754      -0.00192681      -0.00136033      -0.00000096
N        4.05423707       2.86677872       4.80930773       0.00193122       0.00136623       0.00000127
N        3.41544627       1.06000506       3.70288949       0.00096449      -0.00136387      -0.00167266
N        2.13786423       2.86677834       5.91572632      -0.00096455       0.00135994       0.00166792
N        2.13786430       2.86677863       3.70288940      -0.00096704       0.00136283      -0.00166926
N        3.41544617       1.06000495       5.91572594       0.00096469      -0.00136462       0.00167209
