9
Lattice="4.195385872174874 2.836374188874504e-08 2.4222071731796055 1.3984619952852742 3.955447654418135 2.422207153863672 -1.609888011400383e-08 -3.5040715483886e-08 4.844414374243301" Properties=species:S:1:pos:R:3:forces:R:3 energy=-70.65117645263672 free_energy=-70.65117645263672 stress="-0.00010575903434073552 -7.117432687664405e-08 -4.7275840131533187e-08 -7.117432687664405e-08 -0.0001062582668964751 -9.980681170418393e-08 -4.7275840131533187e-08 -9.980681170418393e-08 -0.00010628219024511054" pbc="T T T"
Ta       1.39846208       0.98886164       2.42220730       0.00000177      -0.00000101       0.00000011
Ta       4.19538584       2.96658509       7.26662148      -0.00000129      -0.00000607      -0.00000125
Ge      -0.00000005       0.00000001       0.00000009       0.00000123      -0.00000197      -0.00000159
N        1.51394935       1.07052394       4.84441434       0.00174397       0.00123364      -0.00000075
N        4.07989804       2.88492416       4.84441450      -0.00174528      -0.00122935      -0.00000014
N        3.43841155       1.07052425       3.73332579      -0.00086874       0.00123596       0.00151098
N        2.15543682       2.88492381       5.95550264       0.00086686      -0.00122899      -0.00150800
N        2.15543647       2.88492339       3.73332582       0.00087088      -0.00123477       0.00151020
N        3.43841137       1.07052422       5.95550289      -0.00087008       0.00123239      -0.00150901
