9
Lattice="4.330841211675348 2.269400345104387e-08 2.5004123501210507 1.4436137653537078 4.083156370717034 2.5004123384600563 -8.698111700056507e-09 -2.0432241292247097e-08 5.000824715307681" Properties=species:S:1:pos:R:3:forces:R:3 energy=-74.6579818725586 free_energy=-74.6579818725586 stress="5.256883014226332e-05 -5.22739540542716e-08 1.682193015994926e-07 -5.22739540542716e-08 5.273945862427354e-05 -1.2660170511935576e-07 1.682193015994926e-07 -1.2660170511935576e-07 5.248861270956695e-05" pbc="T T T"
Ta       1.44361382       1.02078892       2.50041225      -0.00000039       0.00000159       0.00000079
Ta       4.33084156       3.06236693       7.50123669       0.00000425      -0.00000439      -0.00000391
Ir       0.00000004       0.00000007       0.00000007      -0.00000102       0.00000032      -0.00000064
N        1.55937410       1.10264435       5.00082479       0.00081992       0.00058317       0.00000158
N        4.21508051       2.98051261       5.00082493      -0.00082469      -0.00058031       0.00000104
N        3.55115422       1.10264411       3.85087000      -0.00041187       0.00058496       0.00071549
N        2.22330083       2.98051219       6.15077955       0.00041306      -0.00058442      -0.00071347
N        2.22330054       2.98051202       3.85087002       0.00040597      -0.00058085       0.00070953
N        3.55115424       1.10264429       6.15077935      -0.00040603       0.00058001      -0.00071025
