9
Lattice="4.377246073095229 -4.614003595325381e-08 2.5272042224910423 1.4590819581042913 4.126907233975338 2.5272042619117205 -3.6817612488935754e-08 2.224629197642838e-08 5.05440850875205" Properties=species:S:1:pos:R:3:forces:R:3 energy=-78.35749816894531 free_energy=-78.35749816894531 stress="5.273809074424207e-05 7.047516703551082e-08 3.4082994204709394e-08 7.047516703551082e-08 5.310419146553613e-05 6.23550349132529e-08 3.4082994204709394e-08 6.23550349132529e-08 5.2706101996591315e-05" pbc="T T T"
Ta       1.45908254       1.03172641       2.52720419       0.00000412      -0.00000305       0.00000002
Ta       4.37724609       3.09518027       7.58161261       0.00000022      -0.00000096      -0.00000184
Mo      -0.00000010      -0.00000003       0.00000012       0.00000207      -0.00000205      -0.00000066
N        1.58560676       1.12119318       5.05440843      -0.00607431      -0.00429648       0.00000194
N        4.25072121       3.00571462       5.05440859       0.00606966       0.00429994      -0.00000032
N        3.58444249       1.12119333       3.90038023       0.00303757      -0.00429434      -0.00526059
N        2.25188519       3.00571393       6.20843676      -0.00303859       0.00429511       0.00525987
N        2.25188512       3.00571377       3.90038017      -0.00303882       0.00429440      -0.00526166
N        3.58444257       1.12119347       6.20843683       0.00303799      -0.00429279       0.00526392
