9
Lattice="4.185157948398668 -1.091137246328368e-07 2.4163020788491893 1.395052591605257 3.9458044991144905 2.41630200088534 -5.241731312473081e-10 -9.585646834558199e-08 4.832604158606259" Properties=species:S:1:pos:R:3:forces:R:3 energy=-79.40623474121094 free_energy=-79.40623474121094 stress="0.0007431997801177204 -6.72448052796426e-08 7.835930659894075e-08 -6.72448052796426e-08 0.0007428824901580811 -1.0703286790203492e-07 7.835930659894075e-08 -1.0703286790203492e-07 0.0007429893012158573" pbc="T T T"
Ta       1.39505255       0.98645093       2.41630182       0.00000070       0.00000196       0.00000272
Ta       4.18515779       2.95935326       7.24890616       0.00000045      -0.00000004      -0.00000264
Mn      -0.00000006      -0.00000006      -0.00000005       0.00000133       0.00000176       0.00000062
N        1.49676511       1.05837239       4.83260420       0.00000161       0.00000256       0.00000124
N        4.08344544       2.88743211       4.83260431      -0.00000530      -0.00000247      -0.00000023
N        3.43677548       1.05837252       3.71253842      -0.00000080       0.00000191       0.00000161
N        2.14343498       2.88743179       5.95266991       0.00000134      -0.00000441      -0.00000644
N        2.14343518       2.88743179       3.71253853      -0.00000069      -0.00000092       0.00000489
N        3.43677564       1.05837244       5.95266979       0.00000161       0.00000009      -0.00000131
