9
Lattice="4.384677121021158 2.253730846965043e-08 2.5314944333968534 1.4615590625438606 4.133913156459301 2.5314944317425745 4.3744901115217244e-08 2.890624327568736e-08 5.062988791025317" Properties=species:S:1:pos:R:3:forces:R:3 energy=-76.72666931152344 free_energy=-76.72666931152344 stress="9.441726433578879e-05 3.6889261423311837e-08 -5.0209987279004054e-08 3.6889261423311837e-08 9.472531382925808e-05 7.307373550702323e-08 -5.0209987279004054e-08 7.307373550702323e-08 9.433615196030587e-05" pbc="T T T"
Ta       1.46155945       1.03347865       2.53149452      -0.00000124       0.00000384      -0.00000047
Ta       4.38467654       3.10043529       7.59448283      -0.00000413       0.00000340      -0.00000170
Nb      -0.00000005      -0.00000005      -0.00000023      -0.00000280       0.00000159       0.00000002
N        1.60789813       1.13695525       5.06298885      -0.00097263      -0.00069052      -0.00000040
N        4.23833841       2.99695731       5.06298892       0.00097799       0.00068665      -0.00000045
N        3.58072777       1.13695534       3.92397492       0.00048369      -0.00069338      -0.00084603
N        2.26550860       2.99695762       6.20200321      -0.00048256       0.00068861       0.00084591
N        2.26550815       2.99695765       3.92397462      -0.00048566       0.00068617      -0.00084293
N        3.58072801       1.13695573       6.20200309       0.00048620      -0.00068718       0.00084531
