9
Lattice="4.1829275429368735 -8.24964426440203e-09 2.4150143672947655 1.3943091673435872 3.9437018815556466 2.415014377440325 -6.635770019827824e-09 7.733532635392034e-09 4.830028746083023" Properties=species:S:1:pos:R:3:forces:R:3 energy=-73.12030029296875 free_energy=-73.12030029296875 stress="-8.939183317124844e-05 7.525385825601916e-08 6.701217802884685e-09 7.525385825601916e-08 -8.931115735322237e-05 4.5117591440657634e-08 6.701217802884685e-09 4.5117591440657634e-08 -8.937326492741704e-05" pbc="T T T"
Ta       1.39430940       0.98592543       2.41501432       0.00000107       0.00000080      -0.00000107
Ta       4.18292747       2.95777666       7.24504310       0.00000043       0.00000052       0.00000102
Ni      -0.00000005       0.00000008      -0.00000007      -0.00000233       0.00000016       0.00000469
N        1.47774775       1.04492515       4.83002885      -0.00118661      -0.00084037       0.00000273
N        4.09948904       2.89877655       4.83002873       0.00118566       0.00084105      -0.00000317
N        3.44405366       1.04492522       3.69478128       0.00059536      -0.00084120      -0.00103074
N        2.13318292       2.89877655       5.96527611      -0.00059292       0.00083888       0.00102520
N        2.13318285       2.89877652       3.69478136      -0.00059551       0.00083953      -0.00102681
N        3.44405376       1.04492533       5.96527632       0.00059450      -0.00083956       0.00102854
