9
Lattice="4.296195598960174 1.0546459878979486e-08 2.4804096707226186 1.4320651920049976 4.0504920720168105 2.4804097011923054 -3.084541552853272e-08 1.550659713893555e-08 4.960819394871047" Properties=species:S:1:pos:R:3:forces:R:3 energy=-79.091796875 free_energy=-79.091796875 stress="-8.976223034551367e-05 1.427810190079981e-07 1.2098593238363264e-09 1.427810190079981e-07 -8.990646165329963e-05 -7.486752195973168e-08 1.2098593238363264e-09 -7.486752195973168e-08 -8.973533840617165e-05" pbc="T T T"
Ta       1.43206497       1.01262307       2.48040973      -0.00000210       0.00000224       0.00000059
Ta       4.29619567       3.03786925       7.44122920      -0.00000071      -0.00000081       0.00000275
Os      -0.00000008      -0.00000009      -0.00000018      -0.00000346      -0.00001222       0.00001279
N        1.50727029       1.06580094       4.96081936       0.00087094       0.00060964       0.00000096
N        4.22099039       2.98469107       4.96081932      -0.00085688      -0.00060165      -0.00000013
N        3.54256050       1.06580105       3.78574385      -0.00043207       0.00061202       0.00075364
N        2.18570020       2.98469119       6.13589499       0.00043398      -0.00062060      -0.00075626
N        2.18570039       2.98469090       3.78574392       0.00042903      -0.00060874       0.00074387
N        3.54256072       1.06580107       6.13589494      -0.00043869       0.00062007      -0.00076008
