9
Lattice="4.289281146468853 2.2473918412850536e-08 2.476417599890359 1.4297603989688332 4.043973055137897 2.476417607469922 2.0969162883617256e-08 2.411047560244005e-08 4.952835163461063" Properties=species:S:1:pos:R:3:forces:R:3 energy=-70.8206787109375 free_energy=-70.8206787109375 stress="4.972679744241759e-05 1.3111433361245872e-07 -6.03946261890087e-08 1.3111433361245872e-07 4.947880006511696e-05 7.871282292626347e-09 -6.03946261890087e-08 7.871282292626347e-09 4.9456772103440017e-05" pbc="T T T"
Ta       1.42976045       1.01099325       2.47641754       0.00000125      -0.00000057      -0.00000036
Ta       4.28928119       3.03297990       7.42925285      -0.00000086      -0.00000072       0.00000008
Pd      -0.00000002      -0.00000007      -0.00000001      -0.00000498       0.00000075       0.00001022
N        1.55654959       1.10064685       4.95283523       0.00115043       0.00081348      -0.00000049
N        4.16249201       2.94332634       4.95283509      -0.00114644      -0.00081080      -0.00000022
N        3.51100631       1.10064682       3.82442903      -0.00057429       0.00081122       0.00099552
N        2.20803517       2.94332636       6.08124126       0.00057694      -0.00081635      -0.00100160
N        2.20803509       2.94332631       3.82442905       0.00057533      -0.00081468       0.00099671
N        3.51100643       1.10064668       6.08124142      -0.00057751       0.00081742      -0.00099993
