9
Lattice="4.050295645192274 4.1117760528104536e-08 2.3384389332065143 1.350098424310802 3.81865570759584 2.338439215275833 -1.0740000007124902e-07 2.695196400962862e-07 4.676878052435299" Properties=species:S:1:pos:R:3:forces:R:3 energy=-76.79747009277344 free_energy=-76.79747009277344 stress="0.00027922907611355186 -3.7577006395395074e-08 -1.0289557650366987e-07 -3.7577006395395074e-08 0.00027903576847165823 -8.606931345411795e-08 -1.0289557650366987e-07 -8.606931345411795e-08 0.00027928981580771506" pbc="T T T"
Ta       1.35009676       0.95466281       2.33843937       0.00000316       0.00000235       0.00000168
Ta       4.05029666       2.86399198       7.01531735      -0.00000627      -0.00000342       0.00000052
P        0.00000008       0.00000038      -0.00000013      -0.00000498      -0.00000476       0.00000096
N        1.36289791       0.96371454       4.67687714      -0.00060248      -0.00042760      -0.00000130
N        4.03749525       2.85494199       4.67687824       0.00060749       0.00043303       0.00000135
N        3.36884685       0.96371475       3.51874342       0.00030559      -0.00042653      -0.00052369
N        2.03154625       2.85494162       5.83501266      -0.00030750       0.00042331       0.00052255
N        2.03154812       2.85494160       3.51874344      -0.00030077       0.00042868      -0.00052422
N        3.36884775       0.96371511       5.83501245       0.00030494      -0.00042391       0.00052249
