9
Lattice="4.319349294452819 -2.8751239393571954e-08 2.4937774232372685 1.4397830605559316 4.072321491531506 2.493777441403144 -4.4900166868958744e-08 -9.500640472286046e-09 4.987554924243909" Properties=species:S:1:pos:R:3:forces:R:3 energy=-70.89096069335938 free_energy=-70.89096069335938 stress="6.999522156547755e-06 8.756383351737895e-08 6.710526889719404e-08 8.756383351737895e-08 6.793199190724408e-06 1.6638340127883566e-07 6.710526889719404e-08 1.6638340127883566e-07 6.945875611563679e-06" pbc="T T T"
Ta       1.43978302       1.01808085       2.49377691       0.00000009       0.00000405      -0.00000692
Ta       4.31934936       3.05424113       7.48133141      -0.00000248       0.00000116      -0.00001095
Pt      -0.00000013      -0.00000009       0.00000024      -0.00000048       0.00000008      -0.00002545
N        1.56167744       1.10427250       4.98755531      -0.00142652      -0.00101262       0.00000629
N        4.19745487       2.96804879       4.98755534       0.00142807       0.00100940       0.00000581
N        3.53851056       1.10427267       3.84622987       0.00071281      -0.00100434      -0.00123137
N        2.22062197       2.96804822       6.12888042      -0.00071394       0.00101131       0.00124758
N        2.22062121       2.96804886       3.84622989      -0.00071505       0.00100207      -0.00122637
N        3.53851083       1.10427280       6.12887985       0.00071731      -0.00101084       0.00124079
