9
Lattice="4.255601162717942 -1.5094532668568313e-08 2.4569724850687016 1.4185336983619692 4.012219405394881 2.4569724994668034 -5.9240580178431826e-09 1.3445067677572153e-08 4.913944980398159" Properties=species:S:1:pos:R:3:forces:R:3 energy=-74.60767364501953 free_energy=-74.60767364501953 stress="0.0003579507174436003 -8.316441579836464e-08 -8.210772506345165e-08 -8.316441579836464e-08 0.00035818226751871407 6.5058529230555e-08 -8.210772506345165e-08 6.5058529230555e-08 0.0003582494391594082" pbc="T T T"
Ta       1.41853375       1.00305510       2.45697245      -0.00000284       0.00000218      -0.00000062
Ta       4.25560105       3.00916473       7.37091779       0.00000263       0.00000139       0.00000212
Rh      -0.00000001       0.00000002       0.00000004       0.00000825      -0.00000561      -0.00001357
N        1.55679728       1.10082181       4.91394498       0.00012350       0.00008422       0.00000072
N        4.11733770       2.91139749       4.91394489      -0.00012463      -0.00008893      -0.00000107
N        3.47720267       1.10082186       3.80519848      -0.00006360       0.00008988       0.00011098
N        2.19693214       2.91139723       6.02269140       0.00005513      -0.00008160      -0.00009900
N        2.19693237       2.91139738       3.80519829       0.00006333      -0.00008923       0.00010651
N        3.47720254       1.10082200       6.02269150      -0.00006127       0.00008774      -0.00010508
