9
Lattice="4.290660243407269 1.6516076176947858e-08 2.477213857137791 1.4302201107580308 4.045273184633207 2.4772138328011337 6.292810867766891e-08 1.4690698109759433e-08 4.954427605280905" Properties=species:S:1:pos:R:3:forces:R:3 energy=-76.31383514404297 free_energy=-76.31383514404297 stress="9.888539352687076e-05 5.809693703895391e-08 -1.3101445262009292e-08 5.809693703895391e-08 9.866553591564298e-05 -2.2143074929203976e-08 -1.3101445262009292e-08 -2.2143074929203976e-08 9.870307258097455e-05" pbc="T T T"
Ta       1.43021983       1.01131851       2.47721378      -0.00000242       0.00000368       0.00000019
Ta       4.29066022       3.03395506       7.43164188      -0.00000207       0.00000096       0.00000440
Ru      -0.00000006      -0.00000016      -0.00000015      -0.00000300       0.00000141       0.00000179
N        1.51954939       1.07448329       4.95442762      -0.00775492      -0.00548649       0.00000090
N        4.20133136       2.97078943       4.95442742       0.00776088       0.00548571      -0.00000324
N        3.53088562       1.07448352       3.79318188       0.00387788      -0.00548506      -0.00671601
N        2.18999470       2.97078979       6.11567348      -0.00387442       0.00548124       0.00671053
N        2.18999468       2.97078978       3.79318198      -0.00387949       0.00548202      -0.00671303
N        3.53088595       1.07448363       6.11567343       0.00387770      -0.00548321       0.00671422
