9
Lattice="4.406079424695143 -1.7690308042612905e-08 2.5438511932333387 1.4686931126771223 4.154091617943914 2.543851214380532 -4.018021645244444e-08 -2.5117827871096767e-09 5.087702456060854" Properties=species:S:1:pos:R:3:forces:R:3 energy=-80.28263854980469 free_energy=-80.28263854980469 stress="-2.435116039123386e-05 6.559564980079813e-08 1.811947925034474e-08 6.559564980079813e-08 -2.4397168090217747e-05 -6.080189507429168e-08 1.811947925034474e-08 -6.080189507429168e-08 -2.4267077606054954e-05" pbc="T T T"
Ta       1.46869326       1.03852291       2.54385083       0.00000132       0.00000202      -0.00000473
Ta       4.40607958       3.11556883       7.63155318       0.00000399      -0.00000038      -0.00000460
Re       0.00000005       0.00000009       0.00000008       0.00000163      -0.00000097       0.00000033
N        1.53868682       1.08801568       5.08770256      -0.00056338      -0.00039744       0.00000255
N        4.33608568       3.06607576       5.08770265       0.00056267       0.00039911      -0.00000026
N        3.63673604       1.08801553       3.87639319       0.00028121      -0.00039554      -0.00048184
N        2.23803642       3.06607587       6.29901195      -0.00028229       0.00039637       0.00048423
N        2.23803624       3.06607569       3.87639306      -0.00028419       0.00039589      -0.00048363
N        3.63673586       1.08801593       6.29901214       0.00027907      -0.00039852       0.00048864
