9
Lattice="4.295705594251183 -3.770401362127912e-08 2.480126769049851 1.4319018438092845 4.050029941537049 2.4801267437505214 2.1233567033984935e-08 -1.5970821469649396e-08 4.960253501322085" Properties=species:S:1:pos:R:3:forces:R:3 energy=-70.1452407836914 free_energy=-70.1452407836914 stress="-0.00036900208215229213 2.491036354967946e-07 -5.3994703819171264e-08 2.491036354967946e-07 -0.0003690921585075557 1.0532017569175878e-07 -5.3994703819171264e-08 1.0532017569175878e-07 -0.0003688463766593486" pbc="T T T"
Ta       1.43190197       1.01250727       2.48012694      -0.00000026      -0.00000152       0.00000165
Ta       4.29570537       3.03752251       7.44038059      -0.00000837       0.00000499       0.00000012
Se       0.00000017      -0.00000001      -0.00000006      -0.00000592       0.00000384      -0.00000096
N        1.46278113       1.03434230       4.96025346       0.00164932       0.00117099       0.00000065
N        4.26482610       3.01568748       4.96025330      -0.00164169      -0.00116515      -0.00000157
N        3.56431509       1.03434246       3.74693213      -0.00082329       0.00116622       0.00142699
N        2.16329244       3.01568786       6.17357476       0.00082809      -0.00117552      -0.00143427
N        2.16329252       3.01568760       3.74693213       0.00082833      -0.00116992       0.00143427
N        3.56431502       1.03434216       6.17357471      -0.00082648       0.00116605      -0.00142705
