9
Lattice="4.084971085845215 -1.3199210528455662e-08 2.3584591820675134 1.361657065942115 3.85134736761502 2.3584590958609453 1.2245700021060029e-07 -1.8990866060161046e-08 4.71691815203329" Properties=species:S:1:pos:R:3:forces:R:3 energy=-76.07353973388672 free_energy=-76.07353973388672 stress="-0.00031592571758665144 2.0729135030705947e-07 1.0776113867905224e-07 2.0729135030705947e-07 -0.0003160161431878805 3.884437660417461e-08 1.0776113867905224e-07 3.884437660417461e-08 -0.0003161874192301184" pbc="T T T"
Ta       1.36165718       0.96283667       2.35845926       0.00000087      -0.00000194      -0.00000053
Ta       4.08497110       2.88851017       7.07537712       0.00000077      -0.00000325       0.00000084
Si      -0.00000005       0.00000006      -0.00000006       0.00000115       0.00000089       0.00000229
N        1.44558387       1.02218200       4.71691830      -0.00698936      -0.00494462       0.00000163
N        4.00104442       2.82916597       4.71691795       0.00699115       0.00494611      -0.00000169
N        3.36217918       1.02218188       3.61037100       0.00349116      -0.00493902      -0.00605339
N        2.08444907       2.82916520       5.82346536      -0.00349236       0.00493824       0.00605470
N        2.08444839       2.82916559       3.61037151      -0.00349671       0.00494105      -0.00605381
N        3.36218014       1.02218181       5.82346518       0.00349343      -0.00493777       0.00604874
