9
Lattice="4.318988149757552 -9.992916267006952e-10 2.4935689303892734 1.439662707122183 4.071981070330697 2.493568945148989 -1.7937528904322808e-08 5.393142034197707e-09 4.987137891847259" Properties=species:S:1:pos:R:3:forces:R:3 energy=-76.29899597167969 free_energy=-76.29899597167969 stress="0.0003931867831852287 1.379253777855638e-08 7.267498602914202e-08 1.379253777855638e-08 0.00039289353298954666 -2.8963800247083782e-08 7.267498602914202e-08 -2.8963800247083782e-08 0.0003932081745006144" pbc="T T T"
Ta       1.43966228       1.01799587       2.49356904      -0.00000187       0.00000500       0.00000244
Ta       4.31898822       3.05398557       7.48070683      -0.00000155      -0.00000196      -0.00000255
Ti       0.00000009      -0.00000002      -0.00000002      -0.00000412       0.00000372       0.00000324
N        1.55771005       1.10146762       4.98713791       0.00751269       0.00531608       0.00000004
N        4.20094081       2.97051323       4.98713812      -0.00750923      -0.00531477       0.00000360
N        3.54013303       1.10146770       3.84258546      -0.00375468       0.00531363       0.00650477
N        2.21851771       2.97051350       6.13169037       0.00375509      -0.00531816      -0.00650835
N        2.21851792       2.97051333       3.84258528       0.00375575      -0.00531614       0.00650465
N        3.54013326       1.10146757       6.13169012      -0.00375295       0.00531214      -0.00650990
