9
Lattice="4.2525945338855085 -4.2386683170742753e-08 2.455236500440418 1.417531514118876 4.009384311391885 2.455236426332441 5.97957742059687e-08 -4.848135468336289e-08 4.910472897311509" Properties=species:S:1:pos:R:3:forces:R:3 energy=-78.7158203125 free_energy=-78.7158203125 stress="-0.00023440654331352562 -3.2355114143456376e-08 1.0182750997955736e-07 -3.2355114143456376e-08 -0.00023458550276700407 -5.569605932009836e-08 1.0182750997955736e-07 -5.569605932009836e-08 -0.00023417847114615142" pbc="T T T"
Ta       1.41753208       1.00234593       2.45523653       0.00000263       0.00000009       0.00000034
Ta       4.25259457       3.00703822       7.36570953       0.00000150      -0.00000095       0.00000059
V       -0.00000039      -0.00000017      -0.00000010      -0.00000215      -0.00000003       0.00000083
N        1.51970771       1.07459563       4.91047290       0.00498140       0.00352299       0.00000138
N        4.15041821       2.93478899       4.91047282      -0.00498486      -0.00352150       0.00000079
N        3.49274052       1.07459575       3.77134181      -0.00248855       0.00352204       0.00431216
N        2.17738540       2.93478850       6.04960408       0.00249106      -0.00352579      -0.00431424
N        2.17738561       2.93478854       3.77134182       0.00249034      -0.00352055       0.00431275
N        3.49274078       1.07459546       6.04960382      -0.00249171       0.00352365      -0.00431526
