9
Lattice="1.788082060540581 -1.0454446187705537 0.8264885688343035 -0.3264258274228148 3.122736743606813 3.2706822602222276 -0.7434916833599223 0.5902890875769506 4.343087240534967" Properties=species:S:1:pos:R:3:forces:R:3 energy=-197855056.0 free_energy=-197855056.0 stress="72251264.0 -24148374.0 26092290.0 -24148374.0 41562592.0 -6969120.5 26092290.0 -6969120.5 43668356.0" pbc="T T T"
Ta      -0.47162814       1.55654999       1.15046760 -463046592.00000000 -462371584.00000000 -559014528.00000000
Ta      -1.21920871       1.95151159       5.36897887 415168192.00000000 567235200.00000000 629951040.00000000
W       -1.03443937      -1.06871517      -2.57233643 -71818488.00000000 -142316192.00000000 -48229772.00000000
N       -1.62974161       0.01644940       5.00972170 67273728.00000000 21135102.00000000 -9756300.00000000
N        0.19004948       1.28262575       3.55490314 -6401372.00000000 8348663.00000000 20088836.00000000
N       -0.74788208       0.99696173       3.59534344 14166020.00000000 -62733016.00000000 -65538900.00000000
N       -0.96129903       1.47185407       4.68933711 -42112232.00000000 131340992.00000000 138255632.00000000
N       -1.16430174       1.44114504       1.72537552 141672304.00000000 50780684.00000000 -116866856.00000000
N        0.23848731      -0.53292790       2.69056615 -54901488.00000000 -111419536.00000000 11110732.00000000
