9
Lattice="4.511511880912266 -1.9489846108897886e-07 2.6047227400452675 1.5038372038565282 4.253493991848877 2.604722577282536 3.545244592082334e-08 -1.7427418967901135e-07 5.209445418685113" Properties=species:S:1:pos:R:3:forces:R:3 energy=-45.173248291015625 free_energy=-45.173248291015625 stress="-8.938539394875988e-05 1.3929782327615214e-10 -1.2475604194150947e-07 1.3929782327615214e-10 -8.925459405872971e-05 -1.5683147225331595e-08 -1.2475604194150947e-07 -1.5683147225331595e-08 -8.949540642788634e-05" pbc="T T T"
Te       1.50383618       1.06337743       2.60472298      -0.00001139       0.00004955       0.00000430
Te       4.51151186       3.19012320       7.81416760      -0.00000427       0.00003899      -0.00000803
C       -0.00000121       0.00000152       0.00000110      -0.00001326       0.00000866       0.00001479
N        1.36112177       0.96245693       5.20944556      -0.00169718      -0.00121069       0.00000553
N        4.65422905       3.29103468       5.20944553       0.00171220       0.00119400       0.00000112
N        3.83095140       0.96245563       3.78348825       0.00085992      -0.00123078      -0.00148112
N        2.18439839       3.29103384       6.63540177      -0.00084484       0.00117916       0.00146419
N        2.18439746       3.29103404       3.78348766      -0.00085485       0.00118583      -0.00147396
N        3.83095160       0.96245719       6.63540222       0.00085372      -0.00121486       0.00147474
