9
Lattice="4.60309186698411 2.598883211246145e-07 2.6575962892651024 1.5343641639228303 4.339836950516642 2.657596352941544 -6.589232060554037e-08 3.1394456182101254e-08 5.315192692659085" Properties=species:S:1:pos:R:3:forces:R:3 energy=-43.92462158203125 free_energy=-43.92462158203125 stress="-6.63328028167598e-05 -1.1770938357358318e-07 5.2250268112175036e-08 -1.1770938357358318e-07 -6.639202183578163e-05 -4.074667359077466e-08 5.2250268112175036e-08 -4.074667359077466e-08 -6.635882891714573e-05" pbc="T T T"
Te       1.53436917       1.08496412       2.65759790       0.00008106       0.00007302       0.00003141
Te       4.60308836       3.25487254       7.97279014      -0.00005655      -0.00008162       0.00002582
Co      -0.00000044      -0.00000001       0.00000083       0.00000882      -0.00000054      -0.00001488
N        1.51205634       1.06918704       5.31519137       0.00043643       0.00033379      -0.00001907
N        4.62539930       3.27065142       5.31519195      -0.00045007      -0.00032651      -0.00001194
N        3.84706213       1.06918892       3.96707337      -0.00024873       0.00036520       0.00034377
N        2.29039369       3.27064861       6.66331108       0.00023144      -0.00034687      -0.00035006
N        2.29039351       3.27064841       3.96707395       0.00023696      -0.00035971       0.00034562
N        3.84706186       1.06918795       6.66331069      -0.00023928       0.00034276      -0.00035048
