9
Lattice="4.579269300826799 3.2995567671284514e-08 2.6438423769546846 1.5264231364062024 4.3173764053045325 2.6438423682562022 1.608541609255674e-08 7.206826901655661e-10 5.287684726048612" Properties=species:S:1:pos:R:3:forces:R:3 energy=-48.308799743652344 free_energy=-48.308799743652344 stress="-7.931224536150694e-05 -5.9099715343791104e-08 -2.9802231793496503e-08 -5.9099715343791104e-08 -7.920912321424112e-05 2.9307722471116904e-08 -2.9802231793496503e-08 2.9307722471116904e-08 -7.931870641186833e-05" pbc="T T T"
Te       1.52642222       1.07934337       2.64384238      -0.00001563      -0.00001333       0.00000182
Te       4.57926925       3.23803463       7.93152690       0.00000117       0.00004276      -0.00001034
Cr       0.00000012      -0.00000012       0.00000009      -0.00000120       0.00000165       0.00000013
N        1.52817739       1.08058324       5.28768451       0.00018179       0.00010425      -0.00000233
N        4.57751560       3.23679229       5.28768451      -0.00017172      -0.00011855       0.00000197
N        3.81518111       1.08058325       3.96728301      -0.00008485       0.00010043       0.00016040
N        2.29051153       3.23679259       6.60808686       0.00009042      -0.00011265      -0.00015336
N        2.29051138       3.23679281       3.96728275       0.00008383      -0.00011390       0.00015742
N        3.81518113       1.08058373       6.60808689      -0.00008327       0.00010890      -0.00015581
