9
Lattice="4.642878745941914 6.0279484887684966e-09 2.680567297681838 1.547626264470437 4.3773480582358815 2.6805672801189777 1.421094418319797e-08 -1.1461373617426996e-08 5.361134570749595" Properties=species:S:1:pos:R:3:forces:R:3 energy=-45.51194381713867 free_energy=-45.51194381713867 stress="-0.0005707048112526536 -2.687594857775366e-08 3.660337810629244e-08 -2.687594857775366e-08 -0.0005707975942641497 -6.576917854772546e-08 3.660337810629244e-08 -6.576917854772546e-08 -0.0005707266973331571" pbc="T T T"
Te       1.54762617       1.09433748       2.68056707      -0.00000375       0.00000855      -0.00000437
Te       4.64287815       3.28301058       8.04170160      -0.00000760      -0.00000856      -0.00000693
Fe      -0.00000001       0.00000004      -0.00000001       0.00000073       0.00000054       0.00000048
N        1.52192991       1.07616704       5.36113458      -0.00590211      -0.00417110       0.00000097
N        4.66857533       3.30118072       5.36113467       0.00590485       0.00416738       0.00000326
N        3.88191385       1.07616712       3.99859724       0.00295123      -0.00417081      -0.00511214
N        2.30859161       3.30118088       6.72367210      -0.00294465       0.00417033       0.00511688
N        2.30859147       3.30118111       3.99859730      -0.00294963       0.00417390      -0.00511226
N        3.88191364       1.07616723       6.72367204       0.00295055      -0.00416979       0.00511417
