9
Lattice="4.599651291980013 -7.389130228066018e-10 2.655609927858155 1.5332170542956958 4.336592868586657 2.655610001183349 -7.996505668860661e-08 3.326082297419875e-08 5.311219994219861" Properties=species:S:1:pos:R:3:forces:R:3 energy=-40.93977355957031 free_energy=-40.93977355957031 stress="-5.160784348845482e-05 3.9812917407289206e-08 4.716576640362291e-08 3.9812917407289206e-08 -5.134606180945411e-05 5.323544627344745e-08 4.716576640362291e-08 5.323544627344745e-08 -5.115936801303178e-05" pbc="T T T"
Te       1.53321909       1.08414673       2.65561109       0.00003420      -0.00002501       0.00002038
Te       4.59965100       3.25244529       7.96683026      -0.00000290       0.00000537       0.00000816
Ge       0.00000012      -0.00000010      -0.00000019       0.00000066       0.00000139       0.00000038
N        1.59654372       1.12892667       5.31122018      -0.00020862      -0.00014997      -0.00000304
N        4.53632444       3.20766626       5.31121914       0.00020254       0.00015700      -0.00000923
N        3.80137784       1.12892665       4.03825659       0.00008249      -0.00015277      -0.00019348
N        2.33148967       3.20766738       6.58418243      -0.00009680       0.00016552       0.00017464
N        2.33148876       3.20766613       4.03825727      -0.00010282       0.00014788      -0.00018501
N        3.80137844       1.12892667       6.58418314       0.00009269      -0.00014943       0.00018716
