9
Lattice="4.587530371357509 -3.332697040158442e-08 2.6486117387845165 1.5291767391996753 4.325165364962222 2.6486117731343217 -3.846571979408761e-08 1.4870360163709634e-08 5.297223544193634" Properties=species:S:1:pos:R:3:forces:R:3 energy=-48.065399169921875 free_energy=-48.065399169921875 stress="-4.896371319773607e-05 -8.866308576216397e-08 1.7674189223271242e-07 -8.866308576216397e-08 -4.897282997262664e-05 2.567754506799247e-07 1.7674189223271242e-07 2.567754506799247e-07 -4.8554335080552846e-05" pbc="T T T"
Te       1.52917530       1.08129153       2.64861198      -0.00001520      -0.00000049       0.00000866
Te       4.58753106       3.24387337       7.94583925       0.00000376      -0.00000779       0.00004058
Hf      -0.00000036      -0.00000009       0.00000026       0.00000745      -0.00000246      -0.00000362
N        1.73010945       1.22337256       5.29722379       0.00265654       0.00188613       0.00000349
N        4.38659737       3.10179173       5.29722041      -0.00267019      -0.00190096      -0.00004589
N        3.72247712       1.22337396       4.14693123      -0.00130853       0.00190789       0.00231591
N        2.39423037       3.10179291       6.44751480       0.00130938      -0.00187958      -0.00232038
N        2.39423275       3.10179380       4.14693108       0.00134832      -0.00187466       0.00231850
N        3.72247521       1.22337167       6.44751535      -0.00133148       0.00187187      -0.00231702
