9
Lattice="4.653304522402691 -3.6716226093460095e-08 2.6865867032768893 1.551101455775824 4.387177573668113 2.686586732852252 -3.7997226529266325e-08 9.354172288206745e-09 5.373173472366892" Properties=species:S:1:pos:R:3:forces:R:3 energy=-45.73439025878906 free_energy=-45.73439025878906 stress="-3.4889697417384014e-05 2.3638232704570328e-08 -1.4732604025624596e-09 2.3638232704570328e-08 -3.488622678560205e-05 3.781595481200384e-08 -1.4732604025624596e-09 3.781595481200384e-08 -3.4889970265794545e-05" pbc="T T T"
Te       1.55110349       1.09679675       2.68658837       0.00003267       0.00003947       0.00002524
Te       4.65330463       3.29038104       8.05976123      -0.00000100      -0.00003645       0.00001723
Ir      -0.00000014      -0.00000012      -0.00000018      -0.00000021      -0.00000015      -0.00000169
N        1.62781909       1.15104396       5.37317328      -0.00298870      -0.00208676      -0.00000771
N        4.57658625       3.23613465       5.37317336       0.00297904       0.00209707      -0.00000536
N        3.83939341       1.15104331       4.09631903       0.00147456      -0.00208944      -0.00259835
N        2.36501110       3.23613435       6.65002687      -0.00149548       0.00209332       0.00258350
N        2.36501162       3.23613328       4.09631894      -0.00148776       0.00207859      -0.00259835
N        3.83939423       1.15104289       6.65002679       0.00148663      -0.00209588       0.00258613
