9
Lattice="4.616422925714936 -5.214131945219918e-08 2.6652929909569467 1.5388076192934905 4.352405201356728 2.665292944974825 -1.7656554927357777e-08 -6.880145683801043e-08 5.330586012495954" Properties=species:S:1:pos:R:3:forces:R:3 energy=-48.615928649902344 free_energy=-48.615928649902344 stress="-0.0004298149433452636 -8.173541488076808e-08 -1.515157244114107e-08 -8.173541488076808e-08 -0.0004296859260648489 1.4387580016261836e-08 -1.515157244114107e-08 1.4387580016261836e-08 -0.00042966188630089164" pbc="T T T"
Te       1.53880698       1.08810075       2.66529157      -0.00000997      -0.00000491      -0.00002274
Te       4.61642278       3.26430214       7.99587506      -0.00000291      -0.00002605      -0.00005741
Mn       0.00000027       0.00000015       0.00000011      -0.00000587      -0.00000051       0.00000224
N        1.51216059       1.06926010       5.33058611       0.00630349       0.00446826       0.00000629
N        4.64306965       3.28314549       5.33058753      -0.00630069      -0.00445858       0.00002558
N        3.86034277       1.06925958       3.97486379      -0.00314224       0.00445187       0.00546017
N        2.29488948       3.28314555       6.68630980       0.00316495      -0.00445598      -0.00544339
N        2.29488717       3.28314579       3.97486419       0.00313881      -0.00444812       0.00547132
N        3.86034251       1.06926081       6.68630982      -0.00314516       0.00447392      -0.00544187
