9
Lattice="4.628401823044204 -2.557500690964993e-08 2.672209059813633 1.5428006039634103 4.363698975800517 2.672209024489578 3.4587092554405464e-08 -1.880621226208641e-08 5.3444180597206765" Properties=species:S:1:pos:R:3:forces:R:3 energy=-49.92222213745117 free_energy=-49.92222213745117 stress="-0.00020575561211444438 -1.0318751009208427e-07 1.2254749037765578e-07 -1.0318751009208427e-07 -0.00020574015798047185 -7.209968089227914e-08 1.2254749037765578e-07 -7.209968089227914e-08 -0.00020568774198181927" pbc="T T T"
Te       1.54280045       1.09092537       2.67220913      -0.00000491       0.00001058      -0.00000233
Te       4.62840189       3.27277395       8.01662492      -0.00000008      -0.00000295      -0.00004283
Mo       0.00000013       0.00000006      -0.00000021      -0.00000095       0.00000053      -0.00000142
N        1.63023248       1.15274878       5.34441810      -0.00361836      -0.00255293       0.00000104
N        4.54096984       3.21095001       5.34441882       0.00362015       0.00255251       0.00001838
N        3.81328510       1.15274788       4.08403226       0.00180161      -0.00256521      -0.00312459
N        2.35791741       3.21095056       6.60480479      -0.00179738       0.00255316       0.00313938
N        2.35791657       3.21095027       4.08403216      -0.00181401       0.00255436      -0.00312608
N        3.81328603       1.15274879       6.60480463       0.00181383      -0.00255007       0.00313771
