9
Lattice="4.620380671545052 1.4499725705746944e-08 2.6675780667401883 1.5401269206726527 4.356136852867455 2.6675780381835836 1.9214663811563203e-08 -2.1387726847948376e-08 5.335156100199588" Properties=species:S:1:pos:R:3:forces:R:3 energy=-49.03190612792969 free_energy=-49.03190612792969 stress="-0.0002208700607297942 1.1238682873226935e-08 2.4167847723077784e-09 1.1238682873226935e-08 -0.000220979010919109 1.8026360848466538e-08 2.4167847723077784e-09 1.8026360848466538e-08 -0.00022068787075113505" pbc="T T T"
Te       1.54012776       1.08903613       2.66757808       0.00001574       0.00002656       0.00000039
Te       4.62038085       3.26710152       8.00273318       0.00000185      -0.00001370      -0.00001569
Nb      -0.00000011      -0.00000011       0.00000004       0.00000036       0.00000147      -0.00000078
N        1.68562750       1.19191945       5.33515617      -0.00150150      -0.00104988      -0.00000067
N        4.47488009       3.16421733       5.33515637       0.00149906       0.00104547       0.00000458
N        3.77756618       1.19191877       4.12737419       0.00073817      -0.00105476      -0.00129807
N        2.38294123       3.16421755       6.54293823      -0.00074351       0.00104707       0.00130302
N        2.38294041       3.16421737       4.12737429      -0.00075251       0.00104564      -0.00129646
N        3.77756649       1.19191937       6.54293832       0.00074250      -0.00104839       0.00130296
