9
Lattice="4.6405215313169155 2.9515101191417636e-08 2.679206225641139 1.5468405364317055 4.375125734988285 2.6792062288183627 -1.44855141099259e-08 -6.351505939264064e-09 5.35841247637191" Properties=species:S:1:pos:R:3:forces:R:3 energy=-49.227500915527344 free_energy=-49.227500915527344 stress="4.023997826152481e-05 1.2877120525445207e-07 1.0200276534533259e-07 1.2877120525445207e-07 4.019053449155763e-05 -6.766134674762725e-08 1.0200276534533259e-07 -6.766134674762725e-08 4.0280967368744314e-05" pbc="T T T"
Te       1.54684300       1.09378234       2.67920454       0.00004752       0.00001646      -0.00003116
Te       4.64052154       3.28134414       8.03761518       0.00000006      -0.00000643      -0.00007005
Os       0.00000003       0.00000024       0.00000005      -0.00000432      -0.00000844       0.00000598
N        1.59455037       1.12751756       5.35841286      -0.00713480      -0.00504661       0.00001049
N        4.59281079       3.24760899       5.35841396       0.00713277       0.00506073       0.00003378
N        3.84324566       1.12751629       4.06012772       0.00354999      -0.00505674      -0.00616837
N        2.34411558       3.24760707       6.65669859      -0.00356263       0.00502282       0.00619698
N        2.34411538       3.24760778       4.06012768      -0.00358164       0.00504112      -0.00618029
N        3.84324575       1.12751887       6.65669903       0.00355256      -0.00502270       0.00620222
