9
Lattice="7.941535285426121 3.5547238290828864 6.109775707369714 5.399541083628692 7.310747243584099 6.946031064524218 1.8816103153484338 2.317688612310458 8.684774871921713" Properties=species:S:1:pos:R:3:forces:R:3 energy=-55.88906478881836 free_energy=-55.88906478881836 stress="0.000455142610007897 5.102920113131404e-05 6.808862235629931e-05 5.102920113131404e-05 -0.0003849975182674825 4.956762495567091e-05 6.808862235629931e-05 4.956762495567091e-05 -0.0001908130361698568" pbc="T T T"
Te       1.47269549       1.35544630       3.82104868       0.00058347      -0.00220111       0.00253916
Te      11.22182826      10.01352689      18.67672366       0.00005704      -0.01448376       0.00793073
Pb       1.35860115       0.76788086       0.47279156       0.00839318       0.00415435      -0.00653970
N        5.41438168       3.93549213       8.23228590       0.00872409      -0.00683434      -0.00325383
N        9.41514368       8.85904690      13.59683346      -0.01946789       0.02113776       0.00462655
N        6.18573147       4.66175625       7.74155494      -0.00740382       0.00536869       0.00215583
N        8.37555526       9.41120575      13.73823356       0.02108271      -0.00857121      -0.00602409
N        6.97990584       5.39391510       7.22692370       0.00462586      -0.00480309      -0.00153022
N       10.46690904       8.33434394      13.45562045      -0.01659477       0.00623274       0.00009581
