9
Lattice="4.6036879683813225 3.913775028197677e-08 2.657940507482544 1.5345626535426646 4.340398783161039 2.6579405758706067 -3.04671215965488e-08 6.221441642298044e-08 5.315881067735708" Properties=species:S:1:pos:R:3:forces:R:3 energy=-41.4831428527832 free_energy=-41.4831428527832 stress="-8.22831061668694e-05 -7.658433531787523e-08 8.611137758407494e-08 -7.658433531787523e-08 -8.242935291491449e-05 -8.781864835327724e-08 8.611137758407494e-08 -8.781864835327724e-08 -8.227137732319534e-05" pbc="T T T"
Te       1.53456181       1.08510049       2.65794094      -0.00002146       0.00001477       0.00000524
Te       4.60368748       3.25529988       7.97382188      -0.00000966       0.00001593       0.00000535
Pt      -0.00000003      -0.00000009      -0.00000003       0.00000617       0.00000046      -0.00000011
N        1.61886054       1.14470621       5.31588110      -0.00071391      -0.00052047      -0.00000060
N        4.51939064       3.19569188       5.31588099       0.00072026       0.00050193      -0.00000607
N        3.79425806       1.14470686       4.05991456       0.00036496      -0.00050765      -0.00061846
N        2.34399244       3.19569157       6.57184772      -0.00035992       0.00050324       0.00062644
N        2.34399276       3.19569164       4.05991439      -0.00036085       0.00050619      -0.00062984
N        3.79425860       1.14470707       6.57184716       0.00037450      -0.00051370       0.00061724
