9
Lattice="4.561871736483765 -4.107921957145733e-08 2.633797936374481 1.520623916547068 4.300973785279917 2.63379786169594 1.7978297438971916e-08 -7.874959546716903e-08 5.26759584160964" Properties=species:S:1:pos:R:3:forces:R:3 energy=-40.24481964111328 free_energy=-40.24481964111328 stress="-2.5978044504881836e-05 -5.828358595749705e-08 1.834312257642523e-07 -5.828358595749705e-08 -2.6020894438261166e-05 1.4586436947183756e-08 1.834312257642523e-07 1.4586436947183756e-08 -2.6341072953073308e-05" pbc="T T T"
Te       1.52061677       1.07524225       2.63380216      -0.00013161      -0.00001920       0.00007994
Te       4.56186902       3.22573031       7.90139045      -0.00004809       0.00000135      -0.00005633
Pd       0.00000027      -0.00000002       0.00000003       0.00000057      -0.00000253       0.00000228
N        1.62511420       1.14912782       5.26759405      -0.00024593      -0.00019199      -0.00004036
N        4.45738298       3.15184370       5.26759776       0.00027776       0.00015950       0.00003313
N        3.74931680       1.14912884       4.04118848       0.00015959      -0.00018698      -0.00020093
N        2.33318369       3.15184791       6.49400357      -0.00007868       0.00022563       0.00021240
N        2.33318013       3.15184457       4.04118768      -0.00013444       0.00018254      -0.00022128
N        3.74931888       1.14912918       6.49400240       0.00020126      -0.00016800       0.00019181
