9
Lattice="4.632373874683567 1.4933982553346882e-08 2.6745024088364966 1.5441245616201813 4.367444187484852 2.6745025428179505 -9.176215240646732e-08 9.920745650486111e-08 5.349004976609698" Properties=species:S:1:pos:R:3:forces:R:3 energy=-45.99820327758789 free_energy=-45.99820327758789 stress="-4.828625969821587e-05 -4.4119481401594385e-08 1.083548468727713e-07 -4.4119481401594385e-08 -4.7993380576372147e-05 7.153548864380355e-08 1.083548468727713e-07 7.153548864380355e-08 -4.806990546057932e-05" pbc="T T T"
Te       1.54412501       1.09185302       2.67450329       0.00000876      -0.00015735       0.00002049
Te       4.63237144       3.27558706       8.02349855      -0.00004615       0.00007829      -0.00016677
Ru       0.00000002      -0.00000006       0.00000038      -0.00000087       0.00000061      -0.00000041
N        1.58526968       1.12095219       5.34900441      -0.00051719      -0.00042629      -0.00001444
N        4.59122792       3.24649358       5.34900908       0.00050300       0.00044876       0.00008184
N        3.83973757       1.12095055       4.04738701       0.00023723      -0.00044936      -0.00044030
N        2.33676266       3.24649318       6.65062463      -0.00019783       0.00044900       0.00047088
N        2.33675868       3.24649269       4.04738724      -0.00027475       0.00043172      -0.00043136
N        3.83974045       1.12095519       6.65062487       0.00028765      -0.00037557       0.00047952
