9
Lattice="4.576907588967721 -3.8824315874357656e-08 2.642478867095852 1.5256358339393787 4.31514981335221 2.6424788540118516 -4.7577048940099235e-08 -4.966661730417268e-08 5.28495781659758" Properties=species:S:1:pos:R:3:forces:R:3 energy=-43.750465393066406 free_energy=-43.750465393066406 stress="-0.00037764088483527303 6.099072913379189e-10 -7.461701478916893e-09 6.099072913379189e-10 -0.00037777674151584506 -2.55296517259751e-09 -7.461701478916893e-09 -2.55296517259751e-09 -0.00037773052463307977" pbc="T T T"
Te       1.52563620       1.07878877       2.64247928       0.00000997       0.00002573       0.00000814
Te       4.57690590       3.23636074       7.92744279      -0.00003587      -0.00002821       0.00011524
Rh      -0.00000007      -0.00000002      -0.00000102       0.00000394       0.00000202       0.00001239
N        1.61968724       1.14529161       5.28495809       0.00343293       0.00242561       0.00000408
N        4.48285653       3.16985789       5.28495402      -0.00342929      -0.00243369      -0.00006481
N        3.76706445       1.14529399       4.04516738      -0.00170454       0.00246355       0.00294042
N        2.33547857       3.16985746       6.52474726       0.00170681      -0.00244763      -0.00297600
N        2.33548064       3.16985726       4.04516778       0.00174302      -0.00243345       0.00294203
N        3.76706412       1.14529111       6.52474669      -0.00172678       0.00242612      -0.00298178
