9
Lattice="4.648513113852097 3.400979303738394e-08 2.683820309482112 1.5495043911721487 4.382660000409487 2.6838203305726456 -8.607444219025736e-09 1.974414095842445e-08 5.36764063387274" Properties=species:S:1:pos:R:3:forces:R:3 energy=-52.31837844848633 free_energy=-52.31837844848633 stress="-4.84218580822926e-05 4.8158117493812824e-08 3.4164621354193514e-08 4.8158117493812824e-08 -4.831299156649038e-05 2.1822637918944565e-08 3.4164621354193514e-08 2.1822637918944565e-08 -4.834637002204545e-05" pbc="T T T"
Te       1.54950299       1.09566511       2.68381942      -0.00002558       0.00000347      -0.00001409
Te       4.64851209       3.28699565       8.05146027      -0.00002601       0.00001183      -0.00001094
Re      -0.00000024      -0.00000017       0.00000021       0.00000029       0.00000074       0.00000225
N        1.61170214       1.13964434       5.36764104      -0.00160074      -0.00114608       0.00000785
N        4.58631626       3.24301462       5.36764107       0.00161397       0.00113112       0.00000583
N        3.84266271       1.13964515       4.07959550       0.00081646      -0.00114208      -0.00138378
N        2.35535551       3.24301511       6.65568626      -0.00079501       0.00113541       0.00139493
N        2.35535569       3.24301484       4.07959482      -0.00079358       0.00113857      -0.00139326
N        3.84266273       1.13964540       6.65568661       0.00080943      -0.00113279       0.00139105
