9
Lattice="4.690511656593197 -9.682524524153969e-08 2.708068095741073 1.5635038084765929 4.422256528229827 2.7080680710883995 -7.75699382178116e-08 -8.50434736545858e-08 5.416136325837241" Properties=species:S:1:pos:R:3:forces:R:3 energy=-37.50189208984375 free_energy=-37.50189208984375 stress="-0.000512985629029572 2.9291038927681257e-08 -6.796895046790041e-09 2.9291038927681257e-08 -0.0005127511103637516 1.116948453727673e-07 -6.796895046790041e-09 1.116948453727673e-07 -0.0005129625205881894" pbc="T T T"
Te       1.56350443       1.10556260       2.70806826       0.00000835      -0.00002480       0.00000044
Te       4.69051134       3.31669222       8.12420157      -0.00000422      -0.00000490      -0.00004312
Sn      -0.00000033      -0.00000039      -0.00000099       0.00001518       0.00001598       0.00002790
N        1.70772572       1.20754431       5.41613629      -0.00055313      -0.00039139       0.00000004
N        4.54628934       3.21471310       5.41613835       0.00052989       0.00039068       0.00002362
N        3.83664822       1.20754397       4.18700205       0.00027043      -0.00039554      -0.00047827
N        2.41736733       3.21471283       6.64527090      -0.00025842       0.00038856       0.00046813
N        2.41736629       3.21471242       4.18700241      -0.00027904       0.00039449      -0.00047135
N        3.83664915       1.20754432       6.64527117       0.00027063      -0.00037298       0.00047272
