9
Lattice="4.482833107131586 3.4530535703622453e-07 2.5881650091224833 1.4942778392037936 4.226456621312726 2.5881653360131187 -2.1397473829211777e-07 2.4905467308189684e-07 5.176330388860101" Properties=species:S:1:pos:R:3:forces:R:3 energy=-44.280731201171875 free_energy=-44.280731201171875 stress="-0.0001562515099067241 1.0600322752907232e-07 -1.764413326554859e-07 1.0600322752907232e-07 -0.00015604050713591278 -1.7603831281576277e-08 -1.764413326554859e-07 -1.7603831281576277e-08 -0.0001562560210004449" pbc="T T T"
Te       1.49427509       1.05661455       2.58816339      -0.00002977       0.00000454      -0.00001950
Te       4.48283130       3.16984402       7.76449384      -0.00002172       0.00001028      -0.00002292
S        0.00000044      -0.00000006       0.00000041       0.00000784      -0.00000561       0.00000492
N        1.42323220       1.00637729       5.17633034       0.00169790       0.00118864       0.00000898
N        4.55387918       3.22007947       5.17633120      -0.00167847      -0.00119579       0.00000639
N        3.77121801       1.00637678       3.82072092      -0.00083798       0.00119388       0.00147629
N        2.20589453       3.22007966       6.53194162       0.00085425      -0.00119746      -0.00145459
N        2.20589412       3.22007971       3.82072088       0.00085139      -0.00119233       0.00146461
N        3.77121798       1.00637742       6.53194079      -0.00084287       0.00119412      -0.00146306
