9
Lattice="4.6052345818513665 -2.0952669516128223e-08 2.6588332203535012 1.5350781944122198 4.341856835888353 2.6588331853381204 -3.209822827232834e-08 -6.558175724140378e-08 5.317666496302741" Properties=species:S:1:pos:R:3:forces:R:3 energy=-41.141944885253906 free_energy=-41.141944885253906 stress="2.909479553636629e-05 -7.527758327796619e-08 -2.007845978369005e-08 -7.527758327796619e-08 2.8771712095476687e-05 -1.203235342472908e-07 -2.007845978369005e-08 -1.203235342472908e-07 2.8998410925851204e-05" pbc="T T T"
Te       1.53507942       1.08546427       2.65883269       0.00001721       0.00000281      -0.00001352
Te       4.60523627       3.25639348       7.97649522       0.00002842       0.00001474      -0.00007116
Se      -0.00000026       0.00000034       0.00000000       0.00000286      -0.00000654       0.00000443
N        1.52853395       1.08083700       5.31766658      -0.00596297      -0.00421375       0.00000691
N        4.61177813       3.26102002       5.31766857       0.00595617       0.00421703       0.00003012
N        3.84096708       1.08083531       3.98258365       0.00296992      -0.00423193      -0.00514483
N        2.29934548       3.26101998       6.65275055      -0.00297821       0.00421244       0.00517225
N        2.29934379       3.26101968       3.98258354      -0.00300080       0.00421327      -0.00515234
N        3.84096706       1.08083690       6.65275074       0.00296766      -0.00420737       0.00516891
