9
Lattice="4.610409289222326 -4.274864653716524e-08 2.6618210298372698 1.5368030848276055 4.346735634814109 2.661820980085887 6.283822687712213e-08 -1.6499414037981534e-08 5.323641950835532" Properties=species:S:1:pos:R:3:forces:R:3 energy=-51.03578186035156 free_energy=-51.03578186035156 stress="-0.00054936547530815 3.351184663102913e-09 9.48964551383824e-09 3.351184663102913e-09 -0.0005496635567396879 -1.4326357700156223e-07 9.48964551383824e-09 -1.4326357700156223e-07 -0.0005492657073773444" pbc="T T T"
Te       1.53680298       1.08668609       2.66182074      -0.00000361       0.00003202      -0.00000394
Te       4.61040881       3.26004920       7.98546406      -0.00000658      -0.00003743       0.00001802
Ta       0.00000006       0.00000001       0.00000016      -0.00000167       0.00000138      -0.00000113
N        1.65862419       1.17282490       5.32364197      -0.00551021      -0.00388163       0.00000072
N        4.48858831       3.17391085       5.32364112       0.00550789       0.00388521      -0.00001198
N        3.78109779       1.17282562       4.09823158       0.00276425      -0.00387406      -0.00477308
N        2.36611480       3.17390995       6.54905251      -0.00275877       0.00387442       0.00477475
N        2.36611523       3.17391020       4.09823131      -0.00275135       0.00388083      -0.00477880
N        3.78109769       1.17282544       6.54905241       0.00276011      -0.00388095       0.00477558
