9
Lattice="4.5933002034651516 -4.6848920122791996e-08 2.6519431467080117 1.5311000300069268 4.330604986170803 2.651943135701214 -1.6823042380044706e-08 -2.537622285257499e-08 5.303886322554394" Properties=species:S:1:pos:R:3:forces:R:3 energy=-49.08377456665039 free_energy=-49.08377456665039 stress="-0.00022216113575268537 -1.4144695192896961e-08 -4.963462529872231e-08 -1.4144695192896961e-08 -0.00022225511202123016 5.390467805455046e-08 -4.963462529872231e-08 5.390467805455046e-08 -0.00022214370255824178" pbc="T T T"
Te       1.53110190       1.08265348       2.65194497       0.00003545       0.00004223       0.00003039
Te       4.59330281       3.24795430       7.95582841       0.00004536       0.00001484      -0.00002019
V       -0.00000018      -0.00000009       0.00000007      -0.00000106      -0.00000096      -0.00000192
N        1.57999869       1.11722892       5.30388582      -0.00726211      -0.00512314      -0.00001140
N        4.54440073       3.21337651       5.30388678       0.00725365       0.00511998       0.00001093
N        3.80329883       1.11722755       4.02026270       0.00360054      -0.00514472      -0.00628626
N        2.32109917       3.21337585       6.58750980      -0.00364059       0.00511992       0.00628603
N        2.32109824       3.21337512       4.02026278      -0.00365740       0.00510663      -0.00628757
N        3.80330060       1.11722798       6.58750922       0.00362694      -0.00513452       0.00627995
