9
Lattice="4.688296787900826 -1.1941241767337467e-08 2.7067894776429426 1.5627655732291157 4.420168645507573 2.706789497526062 -6.549375858819296e-09 1.9720625264548134e-08 5.413578966629728" Properties=species:S:1:pos:R:3:forces:R:3 energy=-52.10828399658203 free_energy=-52.10828399658203 stress="0.00017896296049002558 -1.4661381442238053e-07 4.353106319854305e-08 -1.4661381442238053e-07 0.00017886716523207724 5.479551390408233e-08 4.353106319854305e-08 5.479551390408233e-08 0.00017897124052979052" pbc="T T T"
Te       1.56276353       1.10504336       2.70678987      -0.00004239       0.00002312       0.00000927
Te       4.68829674       3.31512730       8.12036697      -0.00000060       0.00001602      -0.00002738
W       -0.00000015      -0.00000004       0.00000015      -0.00000379       0.00000101      -0.00000788
N        1.61774833       1.14392059       5.41357888      -0.00278676      -0.00197810      -0.00000266
N        4.63331481       3.27624698       5.41357984       0.00280535       0.00195795       0.00001431
N        3.87942302       1.14392028       4.10780155       0.00140750      -0.00198758      -0.00240910
N        2.37164015       3.27624792       6.71935704      -0.00139385       0.00197941       0.00242770
N        2.37163953       3.27624740       4.10780078      -0.00140429       0.00196987      -0.00242150
N        3.87942341       1.14392092       6.71935671       0.00141943      -0.00198162       0.00241542
