9
Lattice="4.603377947696893 -1.1959473657859325e-06 2.657759073429867 1.5344582339274313 4.340116297107989 2.6577589944859175 -4.831716049627013e-06 -3.513225437913108e-06 5.315526515636911" Properties=species:S:1:pos:R:3:forces:R:3 energy=-46.47455978393555 free_energy=-46.47455978393555 stress="0.00018706597620621324 -1.5143726841415628e-06 1.4792017282161396e-05 -1.5143726841415628e-06 0.0001526233390904963 1.059603710018564e-05 1.4792017282161396e-05 1.059603710018564e-05 0.0001835715229390189" pbc="T T T"
Te       1.53446082       1.08502815       2.65775959      -0.00001967       0.00003276      -0.00002655
Te       4.60337452       3.25508858       7.97328653      -0.00002344       0.00006019       0.00000171
Zr      -0.00000469       0.00000466      -0.00000264      -0.00002974       0.00003168      -0.00001518
N        1.85597947       1.31233676       5.31554782       0.00231171       0.00077048       0.00056499
N        4.28186189       3.02777297       5.31547844      -0.00215784      -0.00084218      -0.00080516
N        3.67539874       1.31235506       4.26507079      -0.00081286       0.00114232       0.00173429
N        2.46242395       3.02775387       6.36595256       0.00073266      -0.00117132      -0.00198767
N        2.46246849       3.02778295       4.26510216       0.00156397      -0.00059837       0.00212976
N        3.67536209       1.31232337       6.36598315      -0.00156511       0.00057462      -0.00159642
