9
Lattice="5.33833673731987 3.1495625978059965e-09 3.0820901126209383 1.7794455697470328 5.033032240679876 3.082090133975446 1.811771843844975e-08 3.896497885284146e-08 6.164180193861071" Properties=species:S:1:pos:R:3:forces:R:3 energy=-39.85297775268555 free_energy=-39.85297775268555 stress="-3.124197610304691e-05 9.223768415722589e-09 -1.4943781323495386e-08 9.223768415722589e-09 -3.1206716812448576e-05 2.220064310165526e-08 -1.4943781323495386e-08 2.220064310165526e-08 -3.116195875918493e-05" pbc="T T T"
Ti       1.77944645       1.25825841       3.08208986       0.00000706       0.00000153      -0.00000067
Ti       5.33833665       3.77477358       9.24626944      -0.00000151      -0.00000315      -0.00000629
Au      -0.00000011       0.00000008       0.00000019      -0.00000337       0.00000016       0.00000437
S        1.92435049       1.36072136       6.16418000      -0.00039941      -0.00028306      -0.00000215
S        5.19343199       3.67231077       6.16418063       0.00040036       0.00028163       0.00000379
S        4.37616124       1.36072142       4.74862652       0.00019976      -0.00028199      -0.00034714
S        2.74162108       3.67231117       7.57973398      -0.00019786       0.00028157       0.00034589
S        2.74162087       3.67231089       4.74862652      -0.00020015       0.00028288      -0.00034630
S        4.37616067       1.36072143       7.57973467       0.00019538      -0.00027913       0.00034845
