9
Lattice="4.368448929309774 -2.43637654630818e-07 2.5221252140047357 1.4561494794702778 4.118612894010977 2.522125099566733 -5.700671951279748e-08 -1.804671953404574e-07 5.044250526748037" Properties=species:S:1:pos:R:3:forces:R:3 energy=-52.46815490722656 free_energy=-52.46815490722656 stress="3.1937497624312527e-06 -4.430091280482884e-07 2.5606664166843984e-07 -4.430091280482884e-07 3.504309006530093e-06 -1.0203560663057942e-07 2.5606664166843984e-07 -1.0203560663057942e-07 3.7894039905950194e-06" pbc="T T T"
Ti       1.45614924       1.02965277       2.52212641      -0.00000896      -0.00000748       0.00001259
Ti       4.36844845       3.08895887       7.56637508      -0.00000410      -0.00000234      -0.00000195
Au       0.00000020       0.00000076      -0.00000037      -0.00000607      -0.00005225       0.00003063
O        1.56227708       1.10469696       5.04425006       0.00013140       0.00009680      -0.00001114
O        4.26232048       3.01391561       5.04425000      -0.00010118      -0.00007179       0.00000152
O        3.58731037       1.10469714       3.87509748      -0.00005640       0.00007936       0.00008929
O        2.23728914       3.01391565       6.21340347       0.00006339      -0.00007132      -0.00008544
O        2.23728840       3.01391569       3.87509814       0.00003502      -0.00005269       0.00006929
O        3.58731013       1.10469645       6.21340295      -0.00005370       0.00008139      -0.00010455
