9
Lattice="5.522374044572801 -6.247935235207784e-08 3.1883441308986513 1.840791334780834 5.20654377910811 3.188344052097303 -5.162081715404908e-08 -1.3301301900397546e-07 6.376688351207176" Properties=species:S:1:pos:R:3:forces:R:3 energy=-37.420352935791016 free_energy=-37.420352935791016 stress="-1.5418736438732594e-05 -9.437821191227158e-09 2.2621584605531098e-09 -9.437821191227158e-09 -1.536845593363978e-05 3.437344986423341e-08 2.2621584605531098e-09 3.437344986423341e-08 -1.5385017832159065e-05" pbc="T T T"
Ti       1.84079100       1.30163804       3.18834519      -0.00000093       0.00000807       0.00000377
Ti       5.52237381       3.90490747       9.56503454      -0.00000116      -0.00000167       0.00000906
Au       0.00000021      -0.00000032       0.00000007       0.00000064      -0.00000078      -0.00000228
Se       2.07323688       1.46599931       6.37668766      -0.00123873      -0.00087479      -0.00000399
Se       5.28992869       3.74054323       6.37668770       0.00123885       0.00087321      -0.00000167
Se       4.48575589       1.46600006       4.98381962       0.00062110      -0.00087391      -0.00107482
Se       2.87740935       3.74054343       7.76955636      -0.00062130       0.00087407       0.00107151
Se       2.87741009       3.74054354       4.98381895      -0.00061728       0.00087392      -0.00107312
Se       4.48575538       1.46599954       7.76955619       0.00061890      -0.00087810       0.00107157
