9
Lattice="5.895823925432139 -3.796380155921466e-09 3.403955563602983 1.9652746767266394 5.558635806776827 3.403955496927311 2.1305571256396007e-08 -6.659537159093426e-08 6.807911090303616" Properties=species:S:1:pos:R:3:forces:R:3 energy=-37.219444274902344 free_energy=-37.219444274902344 stress="-0.0001607381273061037 -2.260416209765026e-08 1.984557407297416e-08 -2.260416209765026e-08 -0.0001606983132660389 -3.8530298951400255e-09 1.984557407297416e-08 -3.8530298951400255e-09 -0.00016069515550043434" pbc="T T T"
Ti       1.96527489       1.38965860       3.40395569       0.00000069      -0.00000204       0.00000078
Ti       5.89582423       4.16897691      10.21186517       0.00000119      -0.00000032      -0.00000523
Be      -0.00000020       0.00000027      -0.00000027       0.00000262      -0.00000249       0.00000343
Te       1.91010891       1.35065079       6.80791107       0.00335956       0.00237636       0.00000036
Te       5.95098956       4.20798521       6.80791200      -0.00336272      -0.00237598       0.00000146
Te       4.94076932       1.35065035       5.05815834      -0.00168075       0.00237675       0.00291181
Te       2.92032906       4.20798514       8.55766394       0.00167981      -0.00237657      -0.00291020
Te       2.92032887       4.20798487       5.05815850       0.00167963      -0.00237367       0.00290936
Te       4.94076989       1.35065078       8.55766417      -0.00168012       0.00237809      -0.00291178
