9
Lattice="5.335381097770913 -3.401573945061484e-10 3.0803836623264864 1.7784603531990921 5.030245587533919 3.08038368381057 -8.731557973263335e-08 -3.542891607774485e-08 6.160767475888017" Properties=species:S:1:pos:R:3:forces:R:3 energy=-42.04400634765625 free_energy=-42.04400634765625 stress="-6.682324601570144e-05 -5.105009748263001e-09 6.301540622644097e-09 -5.105009748263001e-09 -6.687400309601799e-05 3.994189423650596e-09 6.301540622644097e-09 3.994189423650596e-09 -6.686002598144114e-05" pbc="T T T"
Ti       1.77846037       1.25756205       3.08038346       0.00000075       0.00000056       0.00000016
Ti       5.33538107       3.77268425       9.24115109      -0.00000011       0.00000083       0.00000090
Be       0.00000009       0.00000005      -0.00000012      -0.00000712      -0.00001281      -0.00001325
Se       1.65232905       1.16837296       6.16076760       0.00028068       0.00019789      -0.00000034
Se       5.46151215       3.86187217       6.16076738      -0.00026733      -0.00019056       0.00000003
Se       4.50921654       1.16837292       4.51134275      -0.00014073       0.00019670       0.00024289
Se       2.60462487       3.86187236       7.81019206       0.00013369      -0.00018960      -0.00023258
Se       2.60462507       3.86187246       4.51134265       0.00013748      -0.00019586       0.00023842
Se       4.50921629       1.16837297       7.81019248      -0.00013748       0.00019264      -0.00023621
