9
Lattice="4.8398558554327815 -1.426488772630781e-07 2.7942921719282117 1.613285134749514 4.563059600727448 2.7942921994749024 8.643475664794805e-09 3.984949713481665e-08 5.588584328885549" Properties=species:S:1:pos:R:3:forces:R:3 energy=-44.69293212890625 free_energy=-44.69293212890625 stress="-0.0003277241194155067 2.326912174055451e-08 -5.0776019833165265e-08 2.326912174055451e-08 -0.0003277624782640487 -7.81337448074737e-08 -5.0776019833165265e-08 -7.81337448074737e-08 -0.00032784001086838543" pbc="T T T"
Ti       1.61328626       1.14076519       2.79429233       0.00000209       0.00000009       0.00000029
Ti       4.83985380       3.42229466       8.38287675      -0.00000352      -0.00000030      -0.00000034
Be       0.00000012       0.00000005       0.00000044       0.00000390      -0.00000519      -0.00001963
S        1.63707841       1.15758975       5.58858443      -0.00516190      -0.00364991      -0.00000037
S        4.81606230       3.40547044       5.58858404       0.00515957       0.00364778       0.00000109
S        4.02131633       1.15758878       4.21204379       0.00257842      -0.00364554      -0.00445898
S        2.43182538       3.40547010       6.96512503      -0.00258148       0.00365342       0.00447573
S        2.43182487       3.40547012       4.21204358      -0.00257898       0.00364942      -0.00446660
S        4.02131645       1.15758901       6.96512452       0.00258199      -0.00364985       0.00446863
