9
Lattice="3.911460873444059 5.840456685224868e-08 2.2582830160592993 1.3038203878669739 3.6877606850581373 2.2582829439114214 2.247875637101358e-07 7.058600947442236e-08 4.516565642775123" Properties=species:S:1:pos:R:3:forces:R:3 energy=-62.955169677734375 free_energy=-62.955169677734375 stress="-0.00011240704043302685 -1.5789275664701563e-07 -5.5661356412883833e-08 -1.5789275664701563e-07 -0.0001129418596974574 -7.7658725672336e-08 -5.5661356412883833e-08 -7.7658725672336e-08 -0.0001127383584389463" pbc="T T T"
Ti       1.30381715       0.92194125       2.25828431      -0.00003016       0.00001020       0.00000914
Ti       3.91146054       2.76581986       6.77485255      -0.00000099      -0.00000932       0.00003683
Be       0.00000017      -0.00000001       0.00000007       0.00000177       0.00000128      -0.00000497
O        1.33496391       0.94396005       4.51656459      -0.00026846      -0.00020099      -0.00001209
O        3.88031897       2.74380010       4.51656532       0.00027323       0.00020057      -0.00000186
O        3.24398092       0.94396230       3.41439344       0.00015950      -0.00017959      -0.00024676
O        1.97130119       2.74379905       5.61873673      -0.00014561       0.00018030       0.00023198
O        1.97130212       2.74379973       3.41439401      -0.00013965       0.00019246      -0.00023854
O        3.24398108       0.94396104       5.61873625       0.00015020      -0.00019485       0.00022388
