9
Lattice="5.442967935459874 6.442804302375621e-08 3.1424990959143577 1.8143226945427815 5.1316794262224885 3.142499115579827 3.578951116460257e-08 4.9392141720214624e-08 6.284998129839424" Properties=species:S:1:pos:R:3:forces:R:3 energy=-43.09816360473633 free_energy=-43.09816360473633 stress="-1.4835964066151064e-05 2.1905812275235803e-08 -2.56307952639645e-08 2.1905812275235803e-08 -1.4905057469150051e-05 -2.302192569914041e-08 -2.56307952639645e-08 -2.302192569914041e-08 -1.4903323972248472e-05" pbc="T T T"
Ti       1.81432283       1.28291980       3.14249802       0.00000157       0.00000050      -0.00000391
Ti       5.44296813       3.84876019       9.42749910       0.00000054       0.00000231       0.00000648
Co       0.00000005       0.00000007      -0.00000029      -0.00000185      -0.00000262       0.00000476
Se       1.87830048       1.32815890       6.28499805       0.00062314       0.00044122      -0.00000195
Se       5.37899021       3.80352030       6.28499745      -0.00062042      -0.00044042      -0.00000357
Se       4.50381772       1.32815882       4.76915494      -0.00031318       0.00043997       0.00054029
Se       2.75347259       3.80352031       7.80084162       0.00031106      -0.00044486      -0.00054017
Se       2.75347330       3.80352119       4.76915512       0.00031185      -0.00043857       0.00054064
Se       4.50381736       1.32815865       7.80084142      -0.00031267       0.00044242      -0.00054243
