9
Lattice="5.119308756028376 -1.4314693883655657e-08 2.9556343013420614 1.706436183775959 4.826530964929707 2.955634396150141 -1.062863301054529e-07 4.09599529250282e-08 5.911268786777457" Properties=species:S:1:pos:R:3:forces:R:3 energy=-50.02090072631836 free_energy=-50.02090072631836 stress="-0.0004926560213789344 -3.309822460551004e-08 -1.2302413310294469e-08 -3.309822460551004e-08 -0.0004926893161609769 2.8460227952109562e-08 -1.2302413310294469e-08 2.8460227952109562e-08 -0.0004925821558572352" pbc="T T T"
Ti       1.70643654       1.20663234       2.95563402       0.00000232      -0.00000078      -0.00000117
Ti       5.11930681       3.61989752       8.86690298      -0.00000465      -0.00000266       0.00000075
Cr       0.00000041       0.00000004       0.00000026       0.00000174      -0.00000124      -0.00000481
S        1.82276566       1.28889094       5.91126882      -0.00049299      -0.00034684      -0.00000183
S        5.00297928       3.53764081       5.91126866       0.00049549       0.00034750      -0.00000117
S        4.20792582       1.28889037       4.53419609       0.00024375      -0.00034708      -0.00042427
S        2.61781960       3.53764051       7.28834122      -0.00024760       0.00035304       0.00043392
S        2.61781956       3.53764098       4.53419621      -0.00024435       0.00034869      -0.00042892
S        4.20792565       1.28889035       7.28834165       0.00024661      -0.00035053       0.00042695
