9
Lattice="6.0238956487823145 -1.5460951826673332e-08 3.4778978059654775 2.0079652033473137 5.679383370457999 3.477897803084583 -1.9102531086845694e-08 -1.703586168853221e-08 6.9557956450175045" Properties=species:S:1:pos:R:3:forces:R:3 energy=-42.68978500366211 free_energy=-42.68978500366211 stress="-0.0001329911610810086 -4.7513504242147064e-09 1.508445812703485e-09 -4.7513504242147064e-09 -0.0001329706283286214 1.8114343802722033e-08 1.508445812703485e-09 1.8114343802722033e-08 -0.00013295312237460166" pbc="T T T"
Ti       2.00796459       1.41984608       3.47789734      -0.00000272       0.00000004      -0.00000202
Ti       6.02389536       4.25953693      10.43369391      -0.00000110      -0.00000329       0.00000106
Cr      -0.00000008      -0.00000020       0.00000031       0.00000112       0.00000156      -0.00000281
Te       2.08580363       1.47488600       6.95579581      -0.00535099      -0.00378322       0.00000027
Te       5.94605736       4.20449747       6.95579531       0.00535167       0.00378301      -0.00000054
Te       4.98099432       1.47488622       5.28425670       0.00267598      -0.00378336      -0.00463486
Te       3.05086710       4.20449719       8.62733449      -0.00267604       0.00378460       0.00463679
Te       3.05086703       4.20449762       5.28425679      -0.00267464       0.00378419      -0.00463401
Te       4.98099404       1.47488606       8.62733437       0.00267678      -0.00378360       0.00463605
