9
Lattice="4.129594081155442 -8.878563335238352e-08 2.3842222621190876 1.3765312929869158 3.893418463507702 2.384222233869914 1.0319320238889881e-07 3.837058569428628e-08 4.768444345502356" Properties=species:S:1:pos:R:3:forces:R:3 energy=-64.25804901123047 free_energy=-64.25804901123047 stress="8.553129737265408e-05 -8.020330710678536e-08 9.812521284402465e-08 -8.020330710678536e-08 8.584343595430255e-05 6.911298555678513e-08 9.812521284402465e-08 6.911298555678513e-08 8.605318726040423e-05" pbc="T T T"
Ti       1.37653063       0.97335291       2.38422196      -0.00000945      -0.00001410      -0.00000765
Ti       4.12959076       2.92006194       7.15266478      -0.00002196      -0.00001595      -0.00001227
Cr       0.00000006       0.00000007       0.00000000       0.00000770       0.00000517      -0.00000077
O        1.43868951       1.01730551       4.76844292      -0.00031210      -0.00023820      -0.00003384
O        4.06743624       2.87611423       4.76844625       0.00031486       0.00024583       0.00003508
O        3.41025238       1.01730937       3.63016246       0.00018327      -0.00020547      -0.00029758
O        2.09587550       2.87611018       5.90672758      -0.00017571       0.00021994       0.00030282
O        2.09587614       2.87611403       3.63016411      -0.00016731       0.00024527      -0.00026463
O        3.41025029       1.01730572       5.90672549       0.00018068      -0.00024186       0.00027829
