9
Lattice="5.3973921374312726 1.120280949524497e-07 3.1161857901176258 1.7991308190923265 5.0887098609757695 3.116185788395672 1.7057458000544042e-08 9.952504111562381e-09 6.232371550690885" Properties=species:S:1:pos:R:3:forces:R:3 energy=-39.33203125 free_energy=-39.33203125 stress="-9.326973668066785e-05 1.0617074330809828e-08 2.0388668531268195e-09 1.0617074330809828e-08 -9.322173718828708e-05 -8.416184194004472e-09 2.0388668531268195e-09 -8.416184194004472e-09 -9.333618800155818e-05" pbc="T T T"
Ti       1.79913124       1.27217989       3.11618573       0.00000204       0.00000986      -0.00000025
Ti       5.39739144       3.81652914       9.34855722      -0.00000264      -0.00001410       0.00000037
Cu      -0.00000010      -0.00000010      -0.00000060       0.00000005       0.00000062       0.00000238
Se       1.98373924       1.40271683       6.23237147      -0.00100386      -0.00070712      -0.00000014
Se       5.21278376       3.68599350       6.23237166       0.00100422       0.00070629       0.00000022
Se       4.40552230       1.40271652       4.83415425       0.00050113      -0.00070775      -0.00086924
Se       2.79100090       3.68599393       7.63058919      -0.00050050       0.00070968       0.00086892
Se       2.79100087       3.68599401       4.83415461      -0.00050068       0.00071064      -0.00086960
Se       4.40552221       1.40271632       7.63058891       0.00050017      -0.00070816       0.00086728
