9
Lattice="5.22235381276489 -3.0705276704586203e-08 3.0151273233695943 1.7407846147865225 4.923682448579791 3.0151272549868677 2.4229390745458262e-08 -6.661862038726682e-08 6.030254604772647" Properties=species:S:1:pos:R:3:forces:R:3 energy=-43.87227249145508 free_energy=-43.87227249145508 stress="1.8187964087701403e-05 -7.425190240439861e-09 -6.089048554258625e-08 -7.425190240439861e-09 1.820789293560665e-05 3.49343913796929e-08 -6.089048554258625e-08 3.49343913796929e-08 1.828414315241389e-05" pbc="T T T"
Ti       1.74078425       1.23092063       3.01512630      -0.00000087       0.00000144      -0.00000519
Ti       5.22235360       3.69276151       9.04538230      -0.00000077      -0.00000095       0.00000388
C       -0.00000096       0.00000187      -0.00000022      -0.00001962       0.00002836      -0.00000143
S        1.62349621       1.14798482       6.03025456      -0.00172672      -0.00122191       0.00000072
S        5.33964235       3.77569750       6.03025381       0.00172377       0.00122161      -0.00000440
S        4.41060668       1.14798444       4.42111518       0.00087239      -0.00122657      -0.00150479
S        2.55253264       3.77569667       7.63939348      -0.00085828       0.00121020       0.00148848
S        2.55253278       3.77569720       4.42111695      -0.00085810       0.00121491      -0.00148290
S        4.41060631       1.14798467       7.63939440       0.00086838      -0.00122708       0.00150581
