9
Lattice="5.414277963949073 -2.141212800252423e-08 3.125934882289304 1.804759333707899 5.104630161999461 3.1259348258606527 2.584389910906537e-08 -5.083629147094988e-08 6.2518697198156605" Properties=species:S:1:pos:R:3:forces:R:3 energy=-46.03329086303711 free_energy=-46.03329086303711 stress="-0.0003574076108634472 9.899125963386268e-10 1.5458114788202693e-08 9.899125963386268e-10 -0.0003573887806851417 -4.216415661062456e-09 1.5458114788202693e-08 -4.216415661062456e-09 -0.00035742446198128164" pbc="T T T"
Ti       1.80475871       1.27615632       3.12593477      -0.00000214      -0.00000323      -0.00000095
Ti       5.41427892       3.82847248       9.37780396       0.00000281       0.00000012      -0.00000263
Cr       0.00000008       0.00000009      -0.00000004      -0.00000124       0.00000070       0.00000020
Se       1.94142158       1.37279208       6.25186993      -0.00511831      -0.00361970       0.00000064
Se       5.27761566       3.73183826       6.25186995       0.00511864       0.00361884      -0.00000012
Se       4.44356734       1.37279212       4.80725522       0.00255886      -0.00361603      -0.00442976
Se       2.77546984       3.73183823       7.69648406      -0.00255990       0.00362045       0.00443146
Se       2.77546976       3.73183808       4.80725533      -0.00255841       0.00361717      -0.00443080
Se       4.44356740       1.37279263       7.69648452       0.00255983      -0.00361851       0.00443217
