9
Lattice="4.094020615332138 1.7893916549802658e-07 2.3636839498636046 1.3646736447803063 3.859879942856778 2.3636840578902323 -2.5146845928329992e-08 1.14523572137095e-07 4.7273679432828155" Properties=species:S:1:pos:R:3:forces:R:3 energy=-65.9625473022461 free_energy=-65.9625473022461 stress="0.00023302131739910692 -1.5619020743429246e-08 3.75296593801977e-08 -1.5619020743429246e-08 0.00023339946346823126 -1.2205063626424817e-07 3.75296593801977e-08 -1.2205063626424817e-07 0.00023336175945587456" pbc="T T T"
Ti       1.36467370       0.96497085       2.36368376      -0.00000305       0.00001574      -0.00000055
Ti       4.09402042       2.89491078       7.09105205      -0.00000235       0.00001417      -0.00000135
C       -0.00000286       0.00003142      -0.00000007      -0.00004293       0.00055335      -0.00000116
N        1.31338080       0.92870124       4.72736785       0.00565088       0.00400901       0.00000069
N        4.14529966       2.93116937       4.72736824      -0.00592637      -0.00417984       0.00000045
N        3.43733090       0.92870005       3.50110348      -0.00281489       0.00399268       0.00487173
N        2.02137184       2.93116900       5.95361760       0.00297678      -0.00419605      -0.00515211
N        2.02137160       2.93116911       3.50111843       0.00297552      -0.00419247       0.00515330
N        3.43733098       0.92869907       5.95363228      -0.00281543       0.00398552      -0.00487256
