9
Lattice="5.968731458730264 -8.739538142662744e-08 3.4460485415795326 1.9895770809167583 5.627373685417957 3.4460485235595306 -1.63404833866681e-08 -3.362437028591219e-08 6.892097111461566" Properties=species:S:1:pos:R:3:forces:R:3 energy=-37.00331115722656 free_energy=-37.00331115722656 stress="-0.00019816233543679118 2.6439626044094666e-09 8.897965919629769e-09 2.6439626044094666e-09 -0.00019815255654975772 -4.845641221606911e-09 8.897965919629769e-09 -4.845641221606911e-09 -0.00019818464352283627" pbc="T T T"
Ti       1.98957773       1.40684353       3.44604841       0.00000224       0.00000137      -0.00000085
Ti       5.96873127       4.22052965      10.33814567       0.00000044      -0.00000305      -0.00000117
Cu      -0.00000020       0.00000010       0.00000059       0.00000040      -0.00000006      -0.00000275
Te       2.07923041       1.47023809       6.89209701       0.00058135       0.00041305      -0.00000044
Te       5.87907805       4.15713555       6.89209695      -0.00058247      -0.00041187       0.00000042
Te       4.92911606       1.47023803       5.24671487      -0.00029132       0.00041239       0.00050466
Te       3.02919247       4.15713553       8.53747913       0.00029058      -0.00041093      -0.00050223
Te       3.02919251       4.15713566       5.24671485       0.00029119      -0.00041232       0.00050431
Te       4.92911575       1.47023813       8.53747920      -0.00029232       0.00041148      -0.00050171
