9
Lattice="4.0064303943301365 2.181620208253863e-07 2.3131137080402913 1.3354769320496227 3.777299487307663 2.3131138323072347 -1.990825564078452e-07 1.1422667412149581e-08 4.626227760901654" Properties=species:S:1:pos:R:3:forces:R:3 energy=-57.745208740234375 free_energy=-57.745208740234375 stress="0.0001550188462715596 -1.8794020206769346e-07 3.963850474519859e-07 -1.8794020206769346e-07 0.00015479576541110873 3.6436694017538684e-07 3.963850474519859e-07 3.6436694017538684e-07 0.00015393349167425185" pbc="T T T"
Ti       1.33547234       0.94431293       2.31311142      -0.00002871      -0.00007815      -0.00002044
Ti       4.00643015       2.83296400       6.93933518      -0.00000402      -0.00007448      -0.00004339
Cu       0.00000012       0.00000070       0.00000021      -0.00000692       0.00001251       0.00000785
O        1.41448196       1.00019160       4.62622787       0.00081001       0.00055937      -0.00000546
O        3.92742295       2.77711612       4.62623082      -0.00081424      -0.00051715       0.00002706
O        3.29919496       1.00019261       3.53809382      -0.00035248       0.00058965       0.00071336
O        2.04271603       2.77711301       5.71436296       0.00037883      -0.00054523      -0.00071417
O        2.04271871       2.77711173       3.53809144       0.00040635      -0.00056273       0.00068955
O        3.29919130       1.00019617       5.71436788      -0.00038933       0.00061664      -0.00065589
