9
Lattice="5.130389382170519 -2.2580355215265766e-08 2.962031713623687 1.7101297841029053 4.836977777366686 2.9620316939908817 -4.393999977686459e-08 -5.511549295552486e-08 5.92406350335369" Properties=species:S:1:pos:R:3:forces:R:3 energy=-42.16707992553711 free_energy=-42.16707992553711 stress="0.00023885218251962215 1.4765116240766929e-08 1.715881770003591e-09 1.4765116240766929e-08 0.00023876604973338544 1.7502579385819672e-09 1.715881770003591e-09 1.7502579385819672e-09 0.00023888687428552657" pbc="T T T"
Ti       1.71012990       1.20924472       2.96203195      -0.00000018       0.00000131       0.00000044
Ti       5.13038912       3.62773415       8.88609518      -0.00000044       0.00000136      -0.00000068
Cu      -0.00000022       0.00000014       0.00000011       0.00000032      -0.00000565       0.00000249
S        1.82387412       1.28967376       5.92406337       0.00009185       0.00006521      -0.00000077
S        5.01664515       3.54730350       5.92406356      -0.00008929      -0.00006461       0.00000234
S        4.21845196       1.28967369       4.54155285      -0.00004679       0.00006312       0.00008011
S        2.62206674       3.54730375       7.30657370       0.00004539      -0.00006545      -0.00007915
S        2.62206746       3.54730383       4.54155296       0.00004706      -0.00006163       0.00007689
S        4.21845227       1.28967325       7.30657387      -0.00004804       0.00006604      -0.00008172
