9
Lattice="4.196207826842534 2.0955530833279208e-08 2.422681928686825 1.3987359260253098 3.9562229624336607 2.4226819910624817 -7.764477479256881e-08 2.149112113323381e-08 4.84536399185837" Properties=species:S:1:pos:R:3:forces:R:3 energy=-70.9559097290039 free_energy=-70.9559097290039 stress="9.402193973073736e-05 6.063704205416798e-08 -2.3787311675960154e-08 6.063704205416798e-08 9.386608144268394e-05 -5.3123359045059715e-09 -2.3787311675960154e-08 -5.3123359045059715e-09 9.369962936034426e-05" pbc="T T T"
Ti       1.39873601       0.98905576       2.42268205      -0.00000267      -0.00000155      -0.00000047
Ti       4.19620774       2.96716720       7.26804598       0.00000006       0.00000059      -0.00000031
Cr      -0.00000006       0.00000008       0.00000015       0.00000043      -0.00000038      -0.00000756
N        1.49303250       1.05573372       4.84536371      -0.00019002      -0.00013196      -0.00000263
N        4.10191123       2.90048898       4.84536381       0.00019205       0.00013256      -0.00000150
N        3.44969160       1.05573331       3.71568646       0.00009125      -0.00013173      -0.00016332
N        2.14525237       2.90048966       5.97504150      -0.00009328       0.00013655       0.00016832
N        2.14525234       2.90048976       3.71568656      -0.00009137       0.00013256      -0.00016296
N        3.44969097       1.05573343       5.97504154       0.00009286      -0.00013632       0.00016952
