9
Lattice="4.015981777686183 -7.059111383636601e-08 2.3186280925939444 1.3386604708800667 3.786304124506745 2.318628188078538 -1.8086148753856733e-07 -1.0944124887979882e-08 4.6372564984491484" Properties=species:S:1:pos:R:3:forces:R:3 energy=-66.06349182128906 free_energy=-66.06349182128906 stress="0.00048216432332992554 1.4626730937550292e-08 3.993288189008126e-08 1.4626730937550292e-08 0.0004822146729566157 -1.1542152833499131e-07 3.993288189008126e-08 -1.1542152833499131e-07 0.0004815864667762071" pbc="T T T"
Ti       1.33866058       0.94657617       2.31862815      -0.00000068      -0.00000080       0.00000241
Ti       4.01598181       2.83972806       6.95588468      -0.00000210      -0.00000068       0.00000080
C       -0.00000022      -0.00000020       0.00000020       0.00000237       0.00000238      -0.00000158
O        1.23544131       0.87358962       4.63725630       0.00495124       0.00348580       0.00000609
O        4.11920051       2.91271454       4.63725587      -0.00494897      -0.00349069       0.00000410
O        3.39826057       0.87358917       3.38855198      -0.00247470       0.00348634       0.00428814
O        1.95638138       2.91271483       5.88596102       0.00248116      -0.00349200      -0.00428909
O        1.95638130       2.91271482       3.38855211       0.00247121      -0.00348198       0.00428176
O        3.39826075       0.87358935       5.88596093      -0.00247934       0.00349230      -0.00429213
