9
Lattice="5.026000680077179 -8.317963618601551e-08 2.90176298784538 1.6753334834445608 4.738559615735524 2.901762984656004 -8.593714313013483e-08 -6.467285454139526e-08 5.803526124538386" Properties=species:S:1:pos:R:3:forces:R:3 energy=-47.38496017456055 free_energy=-47.38496017456055 stress="0.00017558125546202064 -8.861483102862167e-09 -2.8605143143067835e-08 -8.861483102862167e-09 0.0001754188269842416 -3.710916374188855e-08 -2.8605143143067835e-08 -3.710916374188855e-08 0.0001754838740453124" pbc="T T T"
Ti       1.67533283       1.18464086       2.90176284      -0.00000161       0.00000302      -0.00000193
Ti       5.02600026       3.55391991       8.70528752      -0.00000125       0.00000074      -0.00000510
Co       0.00000034      -0.00000041       0.00000069      -0.00000022      -0.00000184       0.00000455
S        1.75142582       1.23844542       5.80352573      -0.00202751      -0.00143394      -0.00000119
S        4.94990844       3.50011392       5.80352633       0.00202894       0.00143245       0.00000205
S        4.15028770       1.23844476       4.41854266       0.00101438      -0.00143668      -0.00175136
S        2.55104596       3.50011394       7.18851010      -0.00101376       0.00143313       0.00175309
S        2.55104736       3.50011416       4.41854220      -0.00101137       0.00143465      -0.00175554
S        4.15028732       1.23844555       7.18851073       0.00101230      -0.00143132       0.00175554
