9
Lattice="4.174563324349777 9.256559609326318e-08 2.4101854411128243 1.3915211682423605 3.935815965359186 2.4101854881309737 7.590682568611074e-08 1.1125943563437444e-07 4.820370750751173" Properties=species:S:1:pos:R:3:forces:R:3 energy=-60.521881103515625 free_energy=-60.521881103515625 stress="0.0007916436297819018 9.497534980695832e-10 -8.094965409100041e-08 9.497534980695832e-10 0.0007919181371107697 4.551137422481588e-08 -8.094965409100041e-08 4.551137422481588e-08 0.0007917390903457999" pbc="T T T"
Ti       1.39152174       0.98395358       2.41018495       0.00000501       0.00000011      -0.00001008
Ti       4.17456284       2.95186269       7.23055584      -0.00000390       0.00000224      -0.00000724
Co       0.00000000       0.00000003       0.00000003       0.00000059      -0.00000303       0.00000154
O        1.43446221       1.01431756       4.82037115       0.00746042       0.00526965       0.00000221
O        4.13162265       2.92149866       4.82037100      -0.00746411      -0.00527114       0.00000167
O        3.45733253       1.01431782       3.65246607      -0.00372747       0.00527069       0.00646323
O        2.10875215       2.92149799       5.98827592       0.00372797      -0.00527087      -0.00645781
O        2.10875195       2.92149812       3.65246605       0.00372958      -0.00527245       0.00646323
O        3.45733241       1.01431816       5.98827580      -0.00372815       0.00527549      -0.00645775
