9
Lattice="4.976702938646536 -2.4819057121488025e-07 2.8733004893423244 1.658900735849206 4.692079902142754 2.8733005061489756 1.7774048465706435e-07 1.462653319568686e-07 5.746600670829119" Properties=species:S:1:pos:R:3:forces:R:3 energy=-48.30308532714844 free_energy=-48.30308532714844 stress="0.000550784170627594 1.1122607190827694e-07 -8.133912210439576e-09 1.1122607190827694e-07 0.0005510033224709332 -8.172218457502822e-08 -8.133912210439576e-09 -8.172218457502822e-08 0.0005509566981345415" pbc="T T T"
Ti       1.65889982       1.17302462       2.87330172      -0.00000774       0.00001645       0.00000575
Ti       4.97670705       3.51905696       8.61989920       0.00001259      -0.00001213      -0.00000965
Fe       0.00000037      -0.00000026      -0.00000007      -0.00000492      -0.00000297       0.00000213
S        1.76115186       1.24532172       5.74660116      -0.00367266      -0.00261062       0.00000257
S        4.87445171       3.44675642       5.74660151       0.00367802       0.00260943      -0.00000288
S        4.09612656       1.24532217       4.39850251       0.00183517      -0.00260073      -0.00318915
S        2.53947482       3.44675688       7.09469868      -0.00184456       0.00260019       0.00318456
S        2.53947485       3.44675702       4.39850329      -0.00183919       0.00260246      -0.00318325
S        4.09612856       1.24532372       7.09469885       0.00184250      -0.00260210       0.00319052
