9
Lattice="5.915993469118664 -7.045233063154572e-08 3.4156005027736835 1.9719977782535525 5.577652111879515 3.4156004652971155 3.625398367374805e-08 -2.02638016361622e-08 6.831200942753657" Properties=species:S:1:pos:R:3:forces:R:3 energy=-42.22346878051758 free_energy=-42.22346878051758 stress="-7.172523328335956e-05 -7.341389274273524e-09 -8.73186412064797e-09 -7.341389274273524e-09 -7.168722368078306e-05 -1.1664730292793024e-09 -8.73186412064797e-09 -1.1664730292793024e-09 -7.171204197220504e-05" pbc="T T T"
Ti       1.97199829       1.39441360       3.41560060       0.00000204       0.00000211       0.00000178
Ti       5.91599363       4.18323901      10.24680191       0.00000081       0.00000072       0.00000324
Fe       0.00000018      -0.00000017       0.00000028      -0.00000234       0.00000157      -0.00000052
Te       1.97164194       1.39416150       6.83120076      -0.00131932      -0.00093128      -0.00000036
Te       5.91634937       4.18349026       6.83120064       0.00131848       0.00093029      -0.00000172
Te       4.93017208       1.39416156       5.12309266       0.00065947      -0.00093334      -0.00114462
Te       2.95781895       4.18349044       8.53930913      -0.00065842       0.00093142       0.00114133
Te       2.95781870       4.18349048       5.12309263      -0.00065909       0.00093250      -0.00114140
Te       4.93017202       1.39416138       8.53930905       0.00065827      -0.00093382       0.00114222
