9
Lattice="4.101258353337851 -5.285111552985188e-09 2.367862882253735 1.36708610282626 3.8667039603559017 2.3678628995224904 -2.1243743191651322e-07 -1.2906606345031704e-07 4.735726132459839" Properties=species:S:1:pos:R:3:forces:R:3 energy=-60.30797576904297 free_energy=-60.30797576904297 stress="0.00021292449673637748 -2.728660035700159e-07 2.131024672280546e-07 -2.728660035700159e-07 0.00021238921908661723 5.728732332954678e-08 2.131024672280546e-07 5.728732332954678e-08 0.00021190446568652987" pbc="T T T"
Ti       1.36708467       0.96667296       2.36785783      -0.00000045      -0.00002219      -0.00003415
Ti       4.10126414       2.90002331       7.10358055       0.00003204      -0.00002816      -0.00005094
Fe       0.00000012       0.00000015       0.00000011      -0.00000418      -0.00000542       0.00000456
O        1.40808427       0.99566818       4.73572492       0.00395864       0.00280052      -0.00001928
O        4.06025764       2.87103885       4.73573214      -0.00395802      -0.00278178       0.00005410
O        3.39721784       0.99566925       3.58730185      -0.00196171       0.00282934       0.00343838
O        2.07112647       2.87103556       5.88415341       0.00195453      -0.00281996      -0.00340667
O        2.07112810       2.87104044       3.58730425       0.00198023      -0.00276461       0.00344372
O        3.39721377       0.99566651       5.88415265      -0.00200009       0.00279209      -0.00342628
