9
Lattice="5.580430726012416 -4.5572337445169274e-08 3.2218631715297836 1.8601435001328477 5.261280532060658 3.221863227368647 -4.771880717753569e-08 3.464604206431188e-08 6.443726425710991" Properties=species:S:1:pos:R:3:forces:R:3 energy=-44.32115173339844 free_energy=-44.32115173339844 stress="-5.7444027333986014e-05 1.6561326532382736e-08 1.0838505204446847e-08 1.6561326532382736e-08 -5.745168891735375e-05 -2.9112467991865287e-09 1.0838505204446847e-08 -2.9112467991865287e-09 -5.743043220718391e-05" pbc="T T T"
Ti       1.86014386       1.31532103       3.22186281       0.00000138       0.00000507      -0.00000268
Ti       5.58042861       3.94596144       9.66558906      -0.00001278       0.00000767      -0.00000405
Fe       0.00000011      -0.00000008      -0.00000024       0.00000126      -0.00000212       0.00000395
Se       1.86795719       1.32084424       6.44372658       0.00053382       0.00037131       0.00000201
Se       5.57261765       3.94043531       6.44372652      -0.00052810      -0.00037700      -0.00000012
Se       4.64645204       1.32084465       4.83956149      -0.00026599       0.00037217       0.00045726
Se       2.79412281       3.94043541       8.04789239       0.00026953      -0.00037897      -0.00045314
Se       2.79412212       3.94043558       4.83956138       0.00026628      -0.00037330       0.00045612
Se       4.64645228       1.32084452       8.04789123      -0.00026587       0.00037497      -0.00045928
