9
Lattice="4.250585660122045 -5.969250122326458e-08 2.4540768116264746 1.4168618114679457 4.007491033674968 2.4540768444675103 -2.3153988591993543e-07 -1.2350153757295622e-07 4.908154024291801" Properties=species:S:1:pos:R:3:forces:R:3 energy=-61.44181823730469 free_energy=-61.44181823730469 stress="-1.7024436601786874e-05 4.7425977811599296e-08 3.1451641291369015e-08 4.7425977811599296e-08 -1.7055248463293537e-05 1.4397402026133932e-07 3.1451641291369015e-08 1.4397402026133932e-07 -1.707060437183827e-05" pbc="T T T"
Ti       1.41686189       1.00187466       2.45407617       0.00000012       0.00001635      -0.00000703
Ti       4.25058480       3.00561716       7.36222867      -0.00000859      -0.00000435      -0.00001872
Ge       0.00000007      -0.00000007      -0.00000009       0.00000391       0.00000101       0.00000194
O        1.47504136       1.04301132       4.90815420      -0.00024557      -0.00017548       0.00000328
O        4.19240668       2.96447855       4.90815411       0.00024652       0.00016695       0.00000635
O        3.51306453       1.04301201       3.73149998       0.00012445      -0.00017518      -0.00021470
O        2.15438284       2.96447854       6.08480858      -0.00012004       0.00016868       0.00022554
O        2.15438194       2.96447951       3.73150081      -0.00012916       0.00017828      -0.00020659
O        3.51306494       1.04301168       6.08480798       0.00012761      -0.00017655       0.00021064
