9
Lattice="5.608218216022248 -3.304852013605776e-08 3.237906219622446 1.8694060528378458 5.287478819606499 3.2379061988571216 -5.2492808277690074e-08 -6.255026061608389e-08 6.475812530165125" Properties=species:S:1:pos:R:3:forces:R:3 energy=-39.44773483276367 free_energy=-39.44773483276367 stress="-0.00013856786245014518 -9.660364064245641e-09 1.1523255238898855e-08 -9.660364064245641e-09 -0.00013861390470992774 3.4778697255433144e-08 1.1523255238898855e-08 3.4778697255433144e-08 -0.000138615578180179" pbc="T T T"
Ti       1.86940497       1.32186968       3.23790637      -0.00000453       0.00000064       0.00000078
Ti       5.60821861       3.96560883       9.71371525       0.00000112      -0.00000077      -0.00001826
Ge       0.00000005      -0.00000003       0.00000013      -0.00000033      -0.00000211       0.00000072
Se       1.96776784       1.39142204       6.47581264       0.00156468       0.00110707       0.00000033
Se       5.50985674       3.89605646       6.47581380      -0.00156245      -0.00110959       0.00000778
Se       4.62433451       1.39142151       4.94204377      -0.00077979       0.00110482       0.00135937
Se       2.85329072       3.89605715       8.00958191       0.00078598      -0.00110406      -0.00135474
Se       2.85328908       3.89605673       4.94204374       0.00077759      -0.00110696       0.00135736
Se       4.62433440       1.39142251       8.00958212      -0.00078234       0.00111094      -0.00135347
