9
Lattice="5.427892742302361 1.1807676828127185e-07 3.133795497353348 1.8092977217052963 5.117466509789011 3.133795446060476 1.340854457239812e-07 3.199199589439872e-08 6.2675907624639" Properties=species:S:1:pos:R:3:forces:R:3 energy=-42.89240264892578 free_energy=-42.89240264892578 stress="6.842302536824718e-05 3.2575094621734024e-08 4.139390608060012e-09 3.2575094621734024e-08 6.836141983512789e-05 -7.778918842404892e-09 4.139390608060012e-09 -7.778918842404892e-09 6.838433910161257e-05" pbc="T T T"
Ti       1.80929648       1.27936679       3.13379546      -0.00001208      -0.00000013       0.00000421
Ti       5.42789273       3.83809930       9.40138644      -0.00000108      -0.00000448      -0.00000164
Ge      -0.00000014      -0.00000006       0.00000038       0.00000043      -0.00000181      -0.00000906
S        1.86237429       1.31689753       6.26759169      -0.00703681      -0.00497675       0.00000481
S        5.37481640       3.80056882       6.26759094       0.00704104       0.00497496      -0.00000164
S        4.49670610       1.31689725       4.74665849       0.00351712      -0.00497162      -0.00608832
S        2.74048490       3.80057018       7.78852235      -0.00351825       0.00498301       0.00609285
S        2.74048477       3.80056876       4.74665826      -0.00351635       0.00497144      -0.00609612
S        4.49670688       1.31689814       7.78852279       0.00352621      -0.00497490       0.00609487
