9
Lattice="4.223359548993424 -9.11136233775881e-09 2.4383577745021623 1.4077865350299066 3.981821634339353 2.438357727236157 6.741160485241815e-08 -1.0221587334256757e-08 4.876715432243983" Properties=species:S:1:pos:R:3:forces:R:3 energy=-62.94781494140625 free_energy=-62.94781494140625 stress="0.0001931753649841994 -1.4184081464918563e-07 -7.1824062253256216e-09 -1.4184081464918563e-07 0.0001933018211275339 1.0906541092481348e-07 -7.1824062253256216e-09 1.0906541092481348e-07 0.00019338540732860565" pbc="T T T"
Ti       1.40778678       0.99545532       2.43835757      -0.00000104      -0.00000058      -0.00000091
Ti       4.22335948       2.98636636       7.31507319       0.00000133      -0.00000079      -0.00000002
Ge      -0.00000013       0.00000000       0.00000006       0.00000559      -0.00000098      -0.00000272
N        1.51024607       1.06790530       4.87671543      -0.00492835      -0.00348371       0.00000019
N        4.12090008       2.91391650       4.87671518       0.00492394       0.00348073      -0.00000192
N        3.46823653       1.06790495       3.74626942       0.00246400      -0.00348729      -0.00426769
N        2.16290978       2.91391643       6.00716173      -0.00246441       0.00349063       0.00427353
N        2.16290949       2.91391639       3.74626925      -0.00246674       0.00348508      -0.00427091
N        3.46823646       1.06790534       6.00716187       0.00246567      -0.00348359       0.00427073
