9
Lattice="6.129671192418612 3.652940702431779e-08 3.538967296571216 2.043223771388272 5.7791094435433275 3.5389672859332726 2.9071482749788646e-08 7.52790969743881e-09 7.077934542789076" Properties=species:S:1:pos:R:3:forces:R:3 energy=-36.402008056640625 free_energy=-36.402008056640625 stress="3.350858150952263e-07 -5.840733674489229e-09 2.5839825834594876e-09 -5.840733674489229e-09 3.274538187270082e-07 -6.711526889802144e-09 2.5839825834594876e-09 -6.711526889802144e-09 3.1925549137667986e-07" pbc="T T T"
Ti       2.04322318       1.44477731       3.53896732      -0.00000282      -0.00000057       0.00000117
Ti       6.12967203       4.33433109      10.61690189       0.00000401      -0.00000620       0.00000245
Ge       0.00000008      -0.00000014       0.00000005      -0.00000313       0.00000008      -0.00000137
Te       2.17625629       1.53884645       7.07793449      -0.00004517      -0.00002721      -0.00000046
Te       5.99663832       4.24026355       7.07793450       0.00004584       0.00003228      -0.00000101
Te       5.04154298       1.53884614       5.42366105       0.00002436      -0.00003169      -0.00003932
Te       3.13135187       4.24026380       8.73220801      -0.00002380       0.00003180       0.00003602
Te       3.13135209       4.24026353       5.42366099      -0.00002280       0.00003137      -0.00003778
Te       5.04154314       1.53884622       8.73220822       0.00002345      -0.00002983       0.00004015
