9
Lattice="4.373526463819252 6.841910502761392e-08 2.5250566341248484 1.4578422053541593 4.1234003938351504 2.5250566579551275 2.898227508224448e-08 4.967956885127185e-08 5.0501132180509165" Properties=species:S:1:pos:R:3:forces:R:3 energy=-70.29949951171875 free_energy=-70.29949951171875 stress="-0.00011939089745283127 4.820247312409265e-08 4.0813334933886836e-09 4.820247312409265e-08 -0.00011934960639337078 -1.2137699734182661e-08 4.0813334933886836e-09 -1.2137699734182661e-08 -0.0001194381111417897" pbc="T T T"
Ti       1.45784216       1.03085019       2.52505669      -0.00000043      -0.00000036       0.00000117
Ti       4.37352646       3.09255042       7.57516993      -0.00000103      -0.00000113      -0.00000139
Hf       0.00000004      -0.00000001       0.00000018      -0.00000594       0.00000091       0.00000172
N        1.65630537       1.17118467       5.05011293       0.00181538       0.00128508      -0.00000059
N        4.17506327       2.95221558       5.05011302      -0.00181299      -0.00127965      -0.00000136
N        3.54537375       1.17118479       3.95945928      -0.00090539       0.00128207       0.00157070
N        2.28599511       2.95221577       6.14076750       0.00091085      -0.00128773      -0.00157687
N        2.28599487       2.95221563       3.95945930       0.00090718      -0.00128341       0.00157532
N        3.54537373       1.17118504       6.14076730      -0.00090739       0.00128382      -0.00156942
