9
Lattice="4.309509252792064 -2.694968237754601e-07 2.4880967467290884 1.4365029796553939 4.06304368755027 2.4880964878301315 5.5594928938932144e-08 -2.777736490784392e-07 4.976193397164931" Properties=species:S:1:pos:R:3:forces:R:3 energy=-65.84000396728516 free_energy=-65.84000396728516 stress="-0.0002060594706563279 2.0512237597358762e-07 2.53835395369606e-07 2.0512237597358762e-07 -0.0002059188118437305 1.0790439652907935e-08 2.53835395369606e-07 1.0790439652907935e-08 -0.00020694600243587047" pbc="T T T"
Ti       1.43650276       1.01576051       2.48809685      -0.00000213      -0.00000207       0.00000224
Ti       4.30950922       3.04728242       7.46429054       0.00000121       0.00000297       0.00000217
Ir      -0.00000001      -0.00000005      -0.00000010       0.00000178       0.00000949       0.00000790
N        1.56659104       1.10774704       4.97619327       0.00557148       0.00394672       0.00000117
N        4.17942135       2.95529640       4.97619287      -0.00558138      -0.00394684      -0.00000451
N        3.52621409       1.10774656       3.84480471      -0.00278330       0.00394183       0.00483108
N        2.21979793       2.95529643       6.10758208       0.00278634      -0.00395155      -0.00483865
N        2.21979868       2.95529656       3.84480385       0.00278753      -0.00394326       0.00481933
N        3.52621382       1.10774667       6.10758254      -0.00278294       0.00394291      -0.00482005
