9
Lattice="4.013463270939878 9.067977528910078e-08 2.3171739083876064 1.3378210790946583 3.7839304238623246 2.317174075898289 -7.473609756241718e-07 -3.2330616310043964e-07 4.634349111242199" Properties=species:S:1:pos:R:3:forces:R:3 energy=-56.06782150268555 free_energy=-56.06782150268555 stress="-0.0003563197678886354 -8.313980970342527e-07 1.1021278396583511e-06 -8.313980970342527e-07 -0.00035727216163650155 6.487096584351093e-07 1.1021278396583511e-06 6.487096584351093e-07 -0.0003577522293198854" pbc="T T T"
Ti       1.33781895       0.94599007       2.31717390      -0.00000854       0.00004871      -0.00000235
Ti       4.01346667       2.83795437       6.95151415       0.00002141       0.00004461      -0.00005506
Mg      -0.00000025      -0.00000001      -0.00000012       0.00000877      -0.00000650       0.00000891
O        1.42637544       1.00860098       4.63434531      -0.00449896      -0.00315444      -0.00003481
O        3.92490954       2.77532429       4.63435363       0.00450343       0.00312102       0.00006241
O        3.30027373       1.00859834       3.55245478       0.00223954      -0.00317787      -0.00388446
O        2.05100876       2.77532478       5.71624719      -0.00224313       0.00314209       0.00391252
O        2.05101051       2.77533085       3.55245584      -0.00222614       0.00320409      -0.00387861
O        3.30027114       1.00859660       5.71624390       0.00220329      -0.00322135       0.00387192
