9
Lattice="5.968158303765452 6.244588538822909e-08 3.4457177670003647 1.9893861334396254 5.626833955009607 3.445717813228914 -5.477683078966385e-08 1.7885102149107366e-08 6.891435628876921" Properties=species:S:1:pos:R:3:forces:R:3 energy=-42.661354064941406 free_energy=-42.661354064941406 stress="-8.656537102069706e-05 1.0622965618267699e-08 3.5685110422178923e-09 1.0622965618267699e-08 -8.656519639771432e-05 -2.0244659282298016e-09 3.5685110422178923e-09 -2.0244659282298016e-09 -8.654747216496617e-05" pbc="T T T"
Ti       1.98938654       1.40670827       3.44571764       0.00000195      -0.00000118      -0.00000079
Ti       5.96815842       4.22012622      10.33715372       0.00000061       0.00000283       0.00000031
Mn       0.00000034       0.00000041      -0.00000003      -0.00000218      -0.00000336      -0.00000018
Te       2.03802238       1.44109957       6.89143558       0.00857545       0.00606364      -0.00000018
Te       5.91952189       4.18573423       6.89143552      -0.00857197      -0.00606288       0.00000005
Te       4.94914689       1.44109929       5.21069677      -0.00429004       0.00606438       0.00742619
Te       3.00839701       4.18573439       8.57217423       0.00428697      -0.00606326      -0.00742447
Te       3.00839740       4.18573455       5.21069697       0.00428795      -0.00606209       0.00742552
Te       4.94914663       1.44109921       8.57217442      -0.00428874       0.00606195      -0.00742667
