9
Lattice="4.052375821393549 -2.1524173116652376e-07 2.3396405460543033 1.3507918385317548 3.820615830670269 2.339640371118693 1.0691808487622123e-07 -1.386489437276714e-07 4.679280906921024" Properties=species:S:1:pos:R:3:forces:R:3 energy=-64.53594207763672 free_energy=-64.53594207763672 stress="-0.0002652777766343206 1.1083153594881878e-07 1.2510372293661476e-08 1.1083153594881878e-07 -0.0002651772811077535 -7.446493555107736e-08 1.2510372293661476e-08 -7.446493555107736e-08 -0.00026536674704402685" pbc="T T T"
Ti       1.35079386       0.95515341       2.33964192       0.00000826      -0.00000160       0.00000576
Ti       4.05237783       2.86546378       7.01892323       0.00000854       0.00000969       0.00000868
Mn       0.00000014      -0.00000002      -0.00000017      -0.00001484      -0.00000292       0.00000235
O        1.40512655       0.99357484       4.67928095      -0.00125742      -0.00088125      -0.00000176
O        3.99804049       2.82703982       4.67928077       0.00126496       0.00088504      -0.00000632
O        3.34981088       0.99357394       3.55651555       0.00061843      -0.00089091      -0.00107968
O        2.05335478       2.82704173       5.80204455      -0.00061962       0.00088018       0.00107709
O        2.05335524       2.82704072       3.55651534      -0.00062208       0.00088575      -0.00108555
O        3.34981138       0.99357344       5.80204554       0.00061309      -0.00088447       0.00107834
