9
Lattice="4.318864111959988 1.9473314944399822e-07 2.4934972515309815 1.439621462327495 4.071864539332741 2.493497410744592 -7.605216753685848e-08 1.4121904931912586e-07 4.986994634788204" Properties=species:S:1:pos:R:3:forces:R:3 energy=-71.25315856933594 free_energy=-71.25315856933594 stress="0.00022099335910752416 5.575166994731262e-08 1.536694895776236e-07 5.575166994731262e-08 0.00022056639136280864 -1.0946390460730981e-07 1.536694895776236e-07 -1.0946390460730981e-07 0.00022055515728425235" pbc="T T T"
Ti       1.43962157       1.01796623       2.49349722       0.00000147       0.00000140       0.00000011
Ti       4.31886414       3.05389876       7.48049192       0.00000149      -0.00000043      -0.00000086
Mo       0.00000015       0.00000012       0.00000015      -0.00000190      -0.00000057      -0.00000164
N        1.58453373       1.12043461       4.98699460       0.00647378       0.00457603       0.00000145
N        4.17395180       2.95143045       4.98699473      -0.00647223      -0.00457358      -0.00000047
N        3.52659737       1.12043467       3.86574350      -0.00323647       0.00457853       0.00560772
N        2.23188784       2.95143000       6.10824564       0.00323421      -0.00457805      -0.00560868
N        2.23188809       2.95142987       3.86574372       0.00323719      -0.00457948       0.00560820
N        3.52659730       1.12043486       6.10824550      -0.00323719       0.00457662      -0.00560796
