9
Lattice="5.047936908872655 4.903562787372073e-08 2.9144278063157554 1.682645784269697 4.759239609972306 2.9144276300839156 2.6434242129967014e-07 -2.8920773879602997e-08 5.828855154777005" Properties=species:S:1:pos:R:3:forces:R:3 energy=-49.10795974731445 free_energy=-49.10795974731445 stress="3.506760913296603e-05 1.0682861528721332e-07 1.3288803835109775e-08 1.0682861528721332e-07 3.503584594000131e-05 -1.6254105617008463e-07 1.3288803835109775e-08 -1.6254105617008463e-07 3.523260238580406e-05" pbc="T T T"
Ti       1.68264329       1.18980745       2.91443199      -0.00000994      -0.00001147       0.00001800
Ti       5.04794112       3.56943432       8.74327614       0.00001508       0.00001727      -0.00002387
Mn      -0.00000065      -0.00000010      -0.00000058      -0.00000013      -0.00000085       0.00000008
S        1.79811755       1.27145953       5.82885252       0.00045323       0.00031775      -0.00000357
S        4.93246722       3.48777775       5.82885887      -0.00045419      -0.00033432       0.00000279
S        4.14887798       1.27145719       4.47164358      -0.00023323       0.00033301       0.00039786
S        2.58170354       3.48778184       7.18606710       0.00022823      -0.00032836      -0.00040084
S        2.58170300       3.48778094       4.47164545       0.00023580      -0.00031608       0.00039679
S        4.14887887       1.27145965       7.18606749      -0.00023520       0.00032336      -0.00038713
