9
Lattice="5.397665955272821 -4.896634210321825e-08 3.116343928919634 1.7992219237670877 5.088968384331115 3.116343955174032 -6.82088390941492e-08 -1.607605155947535e-08 6.2326879759803475" Properties=species:S:1:pos:R:3:forces:R:3 energy=-45.23213195800781 free_energy=-45.23213195800781 stress="-0.00026634425739757717 3.3900360296712506e-09 -6.858093826167533e-08 3.3900360296712506e-09 -0.0002663937339093536 2.8190392242777307e-08 -6.858093826167533e-08 2.8190392242777307e-08 -0.0002663061022758484" pbc="T T T"
Ti       1.79921925       1.27223922       3.11634431      -0.00000954      -0.00001069       0.00000078
Ti       5.39766891       3.81672834       9.34902670       0.00000978       0.00000602      -0.00001891
Mn      -0.00000016       0.00000007      -0.00000044      -0.00000051       0.00000033       0.00000603
Se       1.94919927       1.37829264       6.23268824       0.00047106       0.00033635       0.00000370
Se       5.24768768       3.71067744       6.23269030      -0.00047696      -0.00033128       0.00000370
Se       4.42306631       1.37829195       4.80440167      -0.00023335       0.00033763       0.00040996
Se       2.77382227       3.71067607       7.66097635       0.00024018      -0.00033805      -0.00040632
Se       2.77382045       3.71067636       4.80440141       0.00023592      -0.00033408       0.00041413
Se       4.42306738       1.37829118       7.66097512      -0.00023642       0.00033373      -0.00041282
