9
Lattice="6.126976218086782 -4.4082030343795824e-08 3.537411459058107 2.042325382709667 5.776568594860192 3.5374114274626334 -1.3118741062976913e-08 -4.797274306000909e-08 7.074822940838551" Properties=species:S:1:pos:R:3:forces:R:3 energy=-34.042503356933594 free_energy=-34.042503356933594 stress="-0.0001725127804093063 1.5941694186949462e-08 -4.799222796947333e-09 1.5941694186949462e-08 -0.00017251200915779918 1.1767792074124372e-08 -4.799222796947333e-09 1.1767792074124372e-08 -0.0001725355687085539" pbc="T T T"
Ti       2.04232518       1.44414188       3.53741177      -0.00000071      -0.00000110       0.00000123
Ti       6.12697596       4.33242639      10.61223553      -0.00000144       0.00000141       0.00000423
Mg      -0.00000007      -0.00000025       0.00000133      -0.00000327       0.00000375      -0.00001583
Te       2.20101097       1.55634945       7.07482312      -0.00378081      -0.00267512      -0.00000183
Te       5.96829084       4.22021888       7.07482290       0.00378165       0.00267489      -0.00000198
Te       5.02647132       1.55634975       5.44354237       0.00188900      -0.00266877      -0.00327246
Te       3.14283085       4.22021861       8.70610203      -0.00189359       0.00267810       0.00327502
Te       3.14283090       4.22021935       5.44354210      -0.00188462       0.00266673      -0.00326826
Te       5.02647040       1.55634996       8.70610211       0.00189400      -0.00267990       0.00327978
