9
Lattice="4.193548470989642 2.108271422701252e-08 2.4211461934562584 1.397849519482004 3.9537153097975684 2.4211461773912197 9.699310750363639e-08 4.8908928290672976e-08 4.842292218915527" Properties=species:S:1:pos:R:3:forces:R:3 energy=-71.75959014892578 free_energy=-71.75959014892578 stress="-1.0836902220034972e-05 1.0745539924528202e-07 -2.2509665242864685e-08 1.0745539924528202e-07 -1.0891958481806796e-05 -3.9759957104479327e-08 -2.2509665242864685e-08 -3.9759957104479327e-08 -1.078657169273356e-05" pbc="T T T"
Ti       1.39784955       0.98842888       2.42114611       0.00000091      -0.00000046      -0.00000032
Ti       4.19354848       2.96528653       7.26343847      -0.00000153      -0.00000012      -0.00000010
Mn       0.00000008      -0.00000017       0.00000002      -0.00000133       0.00000062       0.00000160
N        1.47100140       1.04015510       4.84229227       0.00068712       0.00048655       0.00000031
N        4.12039665       2.91356019       4.84229233      -0.00068367      -0.00048405      -0.00000126
N        3.45804784       1.04015511       3.69507054      -0.00034377       0.00048682       0.00059408
N        2.13335028       2.91356041       5.98951393       0.00034425      -0.00048745      -0.00059563
N        2.13335017       2.91356046       3.69507075       0.00034297      -0.00048649       0.00059652
N        3.45804791       1.04015506       5.98951396      -0.00034502       0.00048488      -0.00059551
