9
Lattice="3.959212760544961 -3.6386963695278873e-08 2.285852400810637 1.3197375468780783 3.7327813017794815 2.285852410621515 -1.7542366542123292e-07 -1.1202750160560179e-07 4.571705105464039" Properties=species:S:1:pos:R:3:forces:R:3 energy=-57.06565475463867 free_energy=-57.06565475463867 stress="0.0001360988972010091 2.370836149623301e-08 5.223660615172321e-09 2.370836149623301e-08 0.0001365212956443429 2.1315739218152885e-07 5.223660615172321e-09 2.1315739218152885e-07 0.00013638118980452418" pbc="T T T"
Ti       1.31974158       0.93319631       2.28585275       0.00003402       0.00000641       0.00000166
Ti       3.95921576       2.79958944       6.85755410       0.00002577       0.00003095      -0.00003012
Ni      -0.00000043      -0.00000039       0.00000025      -0.00000504      -0.00000022      -0.00001463
O        1.37614498       0.97308459       4.57170511       0.00062841       0.00047866       0.00000044
O        3.90280355       2.75969622       4.57170580      -0.00064427      -0.00048578       0.00000864
O        3.27113458       0.97308250       3.47762901      -0.00036845       0.00046253       0.00053754
O        2.00781276       2.75969597       5.66578197       0.00034571      -0.00047022      -0.00052503
O        2.00780985       2.75970074       3.47763382       0.00031745      -0.00043598       0.00059983
O        3.27113767       0.97307908       5.66577680      -0.00033316       0.00041318      -0.00057918
