9
Lattice="5.464076709596171 -9.272055925149037e-08 3.1546862035059635 1.8213588938368592 5.151580695402633 3.1546860683091604 8.029459611936528e-08 -1.0880476798634834e-07 6.309372267937601" Properties=species:S:1:pos:R:3:forces:R:3 energy=-41.745094299316406 free_energy=-41.745094299316406 stress="4.4634714868152514e-05 -2.133596410658356e-08 2.1185691423397657e-08 -2.133596410658356e-08 4.464987068786286e-05 1.8353215835986703e-08 2.1185691423397657e-08 1.8353215835986703e-08 4.463221921469085e-05" pbc="T T T"
Ti       1.82135864       1.28789511       3.15468596      -0.00000120       0.00000137      -0.00000110
Ti       5.46407644       3.86368513       9.46405721       0.00000001      -0.00000168      -0.00000581
Ni      -0.00000004      -0.00000024       0.00000014       0.00000121       0.00000392       0.00000301
Se       1.88207021       1.33082432       6.30937250      -0.00312459      -0.00220942       0.00000057
Se       5.40336541       3.82075636       6.30937288       0.00312036       0.00220838       0.00000418
Se       4.52304172       1.33082456       4.78460689       0.00156298      -0.00220890      -0.00270492
Se       2.76239427       3.82075608       7.83413783      -0.00156032       0.00220521       0.00270328
Se       2.76239401       3.82075604       4.78460687      -0.00156304       0.00220928      -0.00270540
Se       4.52304208       1.33082466       7.83413785       0.00156443      -0.00220840       0.00270629
