9
Lattice="5.101156898213122 -7.459904623138305e-08 2.9451543714123884 1.7003856062538474 4.809416967813867 2.945154295463988 -4.118290385606412e-08 -1.2213811678947505e-07 5.890308814155732" Properties=species:S:1:pos:R:3:forces:R:3 energy=-45.3648796081543 free_energy=-45.3648796081543 stress="0.00017278324230574071 -7.924025879901819e-08 7.056907236346888e-08 -7.924025879901819e-08 0.00017277803272008896 2.071087479293965e-08 7.056907236346888e-08 2.071087479293965e-08 0.0001728413626551628" pbc="T T T"
Ti       1.70038567       1.20235380       2.94515456      -0.00000037      -0.00000163       0.00000272
Ti       5.10115680       3.60706145       8.83545993       0.00000008      -0.00000403      -0.00001504
Ni       0.00000015       0.00000003       0.00000103      -0.00000527       0.00001022      -0.00001666
S        1.75676704       1.24222295       5.89030868      -0.00308669      -0.00217998      -0.00000016
S        5.04477500       3.56719453       5.89030931       0.00308561       0.00218076      -0.00000067
S        4.22277251       1.24222191       4.46656034       0.00153896      -0.00218138      -0.00266907
S        2.57877051       3.56719459       7.31405793      -0.00154349       0.00218850       0.00267929
S        2.57876899       3.56719477       4.46656006      -0.00153899       0.00217795      -0.00266615
S        4.22277328       1.24222297       7.31405805       0.00154993      -0.00219056       0.00268555
