9
Lattice="4.344272829922445 -8.590734650509614e-08 2.508167063641518 1.4480908953046914 4.095819523974792 2.5081670064986725 -4.534858451861078e-08 -1.0205169039998699e-07 5.01633420582909" Properties=species:S:1:pos:R:3:forces:R:3 energy=-69.36637115478516 free_energy=-69.36637115478516 stress="0.0003057192370761186 -1.6986290063414344e-07 -8.408266438664214e-08 -1.6986290063414344e-07 0.00030594816780649126 7.191840012410466e-08 -8.408266438664214e-08 7.191840012410466e-08 0.0003060392336919904" pbc="T T T"
Ti       1.44809096       1.02395482       2.50816715       0.00000052       0.00000095      -0.00000042
Ti       4.34427289       3.07186463       7.52450126      -0.00000147       0.00000113      -0.00000023
Nb       0.00000001       0.00000002       0.00000018      -0.00000028       0.00000343      -0.00000159
N        1.61389934       1.14119866       5.01633407       0.00500560       0.00353789      -0.00000045
N        4.17846477       2.95462027       5.01633413      -0.00500345      -0.00353926       0.00000027
N        3.53732291       1.14119916       3.90584517      -0.00250071       0.00353777       0.00433064
N        2.25504043       2.95462042       6.12682316       0.00249934      -0.00353706      -0.00433499
N        2.25504052       2.95462038       3.90584480       0.00250202      -0.00354069       0.00433648
N        3.53732287       1.14119893       6.12682313      -0.00250083       0.00353491      -0.00432938
