9
Lattice="4.159887724125776 4.337463761537479e-08 2.4017124604067353 1.386629304480411 3.921979863472094 2.4017124219358803 5.22334910903499e-08 -1.0182333997459542e-08 4.803424830342415" Properties=species:S:1:pos:R:3:forces:R:3 energy=-65.03883361816406 free_energy=-65.03883361816406 stress="3.5341631701157894e-06 -4.0309885207534535e-08 -6.345550929154342e-08 -4.0309885207534535e-08 3.6853164147032658e-06 1.1444893921463972e-09 -6.345550929154342e-08 1.1444893921463972e-09 3.7602580960083287e-06" pbc="T T T"
Ti       1.38662925       0.98049493       2.40171234       0.00000063       0.00000023       0.00000021
Ti       4.15988795       2.94148500       7.20513736       0.00000012      -0.00000080       0.00000010
Ni      -0.00000001       0.00000000       0.00000007      -0.00000725      -0.00000153      -0.00000161
N        1.45871656       1.03146809       4.80342476      -0.00019091      -0.00013715      -0.00000056
N        4.08780051       2.89051186       4.80342468       0.00019604       0.00014052      -0.00000094
N        3.43052970       1.03146831       3.66499801       0.00009753      -0.00013801      -0.00016916
N        2.11598730       2.89051133       5.94185185      -0.00009747       0.00013867       0.00017047
N        2.11598732       2.89051153       3.66499799      -0.00009686       0.00013664      -0.00016788
N        3.43052973       1.03146847       5.94185176       0.00009876      -0.00013864       0.00016996
