9
Lattice="5.937728173069165 -5.95407679602439e-08 3.428149045092029 1.979242683338573 5.598143822313576 3.4281490189073174 -5.434346875398731e-09 -3.5912264932024083e-08 6.856298099596607" Properties=species:S:1:pos:R:3:forces:R:3 energy=-39.42801284790039 free_energy=-39.42801284790039 stress="-0.00010216318332822993 -2.0831251390518446e-08 6.739082181184131e-09 -2.0831251390518446e-08 -0.00010216239024884999 -8.119442007625821e-09 6.739082181184131e-09 -8.119442007625821e-09 -0.00010214903886662796" pbc="T T T"
Ti       1.97924260       1.39953598       3.42814927       0.00000174       0.00000129       0.00000013
Ti       5.93772805       4.19860807      10.28444662      -0.00000122       0.00000012      -0.00000216
Ni      -0.00000004       0.00000008       0.00000005      -0.00000186      -0.00000347      -0.00000000
Te       2.03708611       1.44043692       6.85629806      -0.00208767      -0.00147765       0.00000023
Te       5.87988478       4.15770668       6.85629875       0.00209194       0.00147877       0.00000096
Te       4.91918522       1.44043742       5.19231718       0.00104456      -0.00147711      -0.00180951
Te       2.99778574       4.15770628       8.52027875      -0.00104683       0.00147782       0.00181167
Te       2.99778557       4.15770625       5.19231732      -0.00104588       0.00147846      -0.00181125
Te       4.91918535       1.44043725       8.52027868       0.00104527      -0.00147816       0.00180990
