9
Lattice="4.278715128714342 -4.484340606170715e-08 2.470317386678054 1.4262383534467984 4.034010761567883 2.4703173529247753 -2.144213031815568e-09 -4.285533704972567e-08 4.940634777069998" Properties=species:S:1:pos:R:3:forces:R:3 energy=-70.95881652832031 free_energy=-70.95881652832031 stress="0.00029645016184076667 -8.23838135488586e-08 1.7732320145569247e-07 -8.23838135488586e-08 0.0002965571475215256 -1.2360770540453814e-07 1.7732320145569247e-07 -1.2360770540453814e-07 0.0002967524924315512" pbc="T T T"
Ti       1.42623852       1.00850277       2.47031734      -0.00000094      -0.00000109       0.00000031
Ti       4.27871509       3.02550808       7.41095198       0.00000074       0.00000084       0.00000244
Os       0.00000001      -0.00000001       0.00000035      -0.00000245      -0.00001118      -0.00000787
N        1.50575442       1.06472876       4.94063464       0.00102937       0.00072742       0.00000146
N        4.19919890       2.96928177       4.94063463      -0.00101876      -0.00072151      -0.00000040
N        3.52583813       1.06472923       3.77433869      -0.00051141       0.00072742       0.00089145
N        2.17911562       2.96928189       6.10693058       0.00051075      -0.00072199      -0.00088549
N        2.17911541       2.96928128       3.77433899       0.00050378      -0.00071901       0.00088000
N        3.52583794       1.06472876       6.10693062      -0.00051004       0.00071931      -0.00088370
