9
Lattice="4.209827098233722 -6.984965108466248e-08 2.4305444981071287 1.4032756596121034 3.9690631253512096 2.4305444529772693 -1.5846617725040317e-08 -6.647781819008421e-08 4.861089023661382" Properties=species:S:1:pos:R:3:forces:R:3 energy=-63.083160400390625 free_energy=-63.083160400390625 stress="1.0760674740595277e-05 -2.2916219677426852e-07 1.5443784207036515e-07 -2.2916219677426852e-07 1.0603728696878534e-05 1.1421926870980315e-07 1.5443784207036515e-07 1.1421926870980315e-07 1.096987307391828e-05" pbc="T T T"
Ti       1.40327486       0.99226525       2.43054422      -0.00000006      -0.00000310      -0.00000271
Ti       4.20982673       2.97679656       7.29163353      -0.00000319      -0.00000310      -0.00000303
Pd      -0.00000022      -0.00000030      -0.00000058       0.00000830      -0.00000710       0.00000866
N        1.55434801       1.09909084       4.86108955       0.00059098       0.00041878      -0.00000485
N        4.05875387       2.86997191       4.86108868      -0.00058609      -0.00041622      -0.00000183
N        3.43265364       1.09909018       3.77665035      -0.00029793       0.00041622       0.00051129
N        2.18045070       2.86997266       5.94552775       0.00029194      -0.00041097      -0.00050360
N        2.18045059       2.86997375       3.77665039       0.00029120      -0.00041151       0.00050306
N        3.43265251       1.09909106       5.94552829      -0.00029591       0.00041687      -0.00050730
