9
Lattice="4.604331487677278 6.865720565739193e-09 2.658312147147377 1.5347772057065963 4.34100530318124 2.6583120836254217 1.4108743871455961e-07 2.1965652104810267e-08 5.3166240499241955" Properties=species:S:1:pos:R:3:forces:R:3 energy=-55.055973052978516 free_energy=-55.055973052978516 stress="1.3641641999129206e-05 -2.4344481985849598e-08 1.4655293867349428e-08 -2.4344481985849598e-08 1.3510489225154743e-05 1.598488630349948e-08 1.4655293867349428e-08 1.598488630349948e-08 1.3688004401046783e-05" pbc="T T T"
Ti       1.53477640       1.08525239       2.65831265      -0.00000468       0.00001088       0.00000218
Ti       4.60433279       3.25575313       7.97493613       0.00000223      -0.00000948      -0.00000446
Pb       0.00000026       0.00000068      -0.00000130      -0.00000293      -0.00000653       0.00000965
N        1.88519637       1.33303848       5.31662487      -0.00083458      -0.00056750       0.00000912
N        4.25391140       3.00796760       5.31662619       0.00082824       0.00057471       0.00001705
N        3.66173340       1.33303828       4.29094100       0.00042598      -0.00058109      -0.00072038
N        2.47737550       3.00796918       6.34230692      -0.00040695       0.00057489       0.00070810
N        2.47737497       3.00796614       4.29093986      -0.00042361       0.00057682      -0.00072458
N        3.66173452       1.33303549       6.34230644       0.00041659      -0.00057256       0.00070339
