9
Lattice="4.313711675871389 -7.877877142944741e-08 2.49052236486121 1.4379038792542325 4.06700582033926 2.4905222582180992 3.926601979603398e-08 -1.028453160174441e-07 4.981044661711651" Properties=species:S:1:pos:R:3:forces:R:3 energy=-61.99662399291992 free_energy=-61.99662399291992 stress="0.00014859929797239602 -5.563932745644706e-07 6.987380629652762e-08 -5.563932745644706e-07 0.00014899497909937054 1.0502991187877342e-07 6.987380629652762e-08 1.0502991187877342e-07 0.00014945145812816918" pbc="T T T"
Ti       1.43790373       1.01675160       2.49052195      -0.00000255      -0.00000098      -0.00000501
Ti       4.31371161       3.05025431       7.47156672      -0.00000188       0.00000627      -0.00000420
Pt      -0.00000006       0.00000029      -0.00000036       0.00000089       0.00000776       0.00000105
N        1.56606330       1.10737281       4.98104526      -0.00308239      -0.00218689       0.00000561
N        4.18555293       2.95963228       4.98104499       0.00308728       0.00218064       0.00000075
N        3.53068012       1.10737308       3.84677347       0.00154904      -0.00219661      -0.00268000
N        2.22093551       2.95963166       6.11531656      -0.00155181       0.00218755       0.00267822
N        2.22093540       2.95963220       3.84677221      -0.00154942       0.00218612      -0.00268340
N        3.53067989       1.10737438       6.11531638       0.00155085      -0.00218362       0.00268561
