9
Lattice="4.340797153687416 -4.6521263039441267e-08 2.5061604476274915 1.4469323301129504 4.092542677873754 2.5061604659679206 -6.220303535828301e-08 -2.1521844973788925e-08 5.012321002993788" Properties=species:S:1:pos:R:3:forces:R:3 energy=-73.15818786621094 free_energy=-73.15818786621094 stress="-3.812048987583694e-07 1.2204624511014117e-07 1.0537166161839195e-07 1.2204624511014117e-07 -1.7779696293018787e-07 1.5662497787616303e-07 1.0537166161839195e-07 1.5662497787616303e-07 -4.054697626543202e-07" pbc="T T T"
Ti       1.44693251       1.02313565       2.50616049       0.00000330      -0.00000036      -0.00000045
Ti       4.34079722       3.06940695       7.51848137       0.00000204       0.00000155       0.00000038
Re       0.00000019       0.00000013       0.00000021       0.00000151      -0.00000191      -0.00000416
N        1.53601155       1.08612416       5.01232083       0.00003672       0.00002158      -0.00000238
N        4.25171762       3.00641855       5.01232060      -0.00003433      -0.00002396      -0.00000423
N        3.57279145       1.08612419       3.83638557      -0.00002217       0.00002658       0.00003242
N        2.21493821       3.00641818       6.18825648       0.00001800      -0.00002420      -0.00002503
N        2.21493771       3.00641861       3.83638592       0.00001436      -0.00002563       0.00003457
N        3.57279120       1.08612407       6.18825624      -0.00001949       0.00002599      -0.00003171
