9
Lattice="2.3708765783981027 -0.685723714993748 2.8232304692869907 2.7132535005241287 3.980110920102033 0.7158458301831889 0.975028016324584 2.0342653090696285 4.303707045396488" Properties=species:S:1:pos:R:3:forces:R:3 energy=-26751426.0 free_energy=-26751426.0 stress="-732866.125 -843273.4375 747289.9375 -843273.4375 -2238281.75 -221403.1875 747289.9375 -221403.1875 -2395726.0" pbc="T T T"
Ti      -0.14053218       1.36426283       0.43644680 -225247392.00000000 83149984.00000000 185162416.00000000
Ti       4.88438211       4.75380653       3.93939669 261744608.00000000 -79668192.00000000 -159673472.00000000
Rh       0.24020961       0.16376671       0.21897591 -17414840.00000000 -7705099.50000000 -8292361.00000000
N        2.20446749       3.41958621       3.26450352 3780778.25000000 -1260020.50000000 -5696820.00000000
N        3.54078276       4.10839879       1.69463850 -20695278.00000000 18807668.00000000 -8272037.00000000
N        3.48874770       2.30965823       2.23927896 -9326750.00000000 -7892054.00000000 10820000.00000000
N        3.46755252       6.72193238       3.32260234 8195245.50000000 -7172316.00000000 -8678505.00000000
N        1.82111007       3.85267343       2.20787906 4418500.50000000 -5649365.00000000 1450483.00000000
N        2.92298329       2.33977011       3.58409070 -5454882.50000000 7389339.00000000 -6819761.00000000
