9
Lattice="4.220039388096954 3.4296977176404243e-09 2.436440941760652 1.4066797456450035 3.978691541942384 2.436441034634727 -6.38804872042155e-08 6.857670748390393e-08 4.8728819941655575" Properties=species:S:1:pos:R:3:forces:R:3 energy=-62.790122985839844 free_energy=-62.790122985839844 stress="-0.00020207915804348886 -3.451371810569981e-08 -6.948548758600737e-08 -3.451371810569981e-08 -0.00020145956659689546 4.324881430761707e-08 -6.948548758600737e-08 4.324881430761707e-08 -0.00020158258848823607" pbc="T T T"
Ti       1.40667986       0.99467300       2.43644093       0.00000069       0.00000054       0.00000027
Ti       4.22003937       2.98401909       7.30932298       0.00000016       0.00000019      -0.00000001
S       -0.00000005       0.00000001       0.00000005       0.00000103      -0.00000060      -0.00000130
O        1.34433584       0.95058873       4.87288204      -0.00201571      -0.00142401       0.00000226
O        4.28238343       3.02810278       4.87288192       0.00200808       0.00142276      -0.00000163
O        3.54787143       0.95058906       3.60066995       0.00101203      -0.00142795      -0.00174522
O        2.07884753       3.02810253       6.14509412      -0.00100940       0.00142562       0.00174367
O        2.07884750       3.02810234       3.60066979      -0.00100803       0.00142825      -0.00174439
O        3.54787134       0.95058906       6.14509384       0.00101119      -0.00142628       0.00174534
