9
Lattice="4.302276411520952 1.1618656669037112e-08 2.483920810242943 1.4340921046334287 4.056225815638585 2.4839208855774277 1.9690974295456685e-07 2.3150176827208647e-07 4.967841279428183" Properties=species:S:1:pos:R:3:forces:R:3 energy=-57.93986511230469 free_energy=-57.93986511230469 stress="8.87810456333682e-05 1.564435052614499e-07 -4.252427743267617e-07 1.564435052614499e-07 8.87014830368571e-05 -4.301702745124203e-07 -4.252427743267617e-07 -4.301702745124203e-07 8.818790956865996e-05" pbc="T T T"
Ti       1.43409188       1.01405690       2.48392080       0.00000045       0.00000156      -0.00000031
Ti       4.30227669       3.04216886       7.45176117      -0.00000044      -0.00000386      -0.00000911
Sn      -0.00000001      -0.00000000      -0.00000042      -0.00000904      -0.00000340       0.00000493
N        1.61544564       1.14229253       4.96784109      -0.00059223      -0.00042593      -0.00000167
N        4.12092359       2.91393233       4.96784494       0.00060785       0.00041282       0.00003407
N        3.49455313       1.14229257       3.88293654       0.00028414      -0.00041759      -0.00052899
N        2.24181495       2.91393398       6.05274480      -0.00029933       0.00042874       0.00050384
N        2.24181389       2.91393297       3.88293738      -0.00030503       0.00041646      -0.00051862
N        3.49455510       1.14229411       6.05274570       0.00031245      -0.00040841       0.00051755
