9
Lattice="4.29926508446483 -3.336926788532758e-07 2.482181307097704 1.433088042565807 4.0533849960400925 2.4821813145697775 5.9573822247584525e-08 5.1276446963189783e-08 4.964362511010514" Properties=species:S:1:pos:R:3:forces:R:3 energy=-58.988162994384766 free_energy=-58.988162994384766 stress="0.0002545240567997098 3.6030232308803534e-07 -1.5402270037156995e-07 3.6030232308803534e-07 0.0002552070654928684 -3.9412870478372497e-07 -1.5402270037156995e-07 -3.9412870478372497e-07 0.0002550635254010558" pbc="T T T"
Ti       1.43308834       1.01334729       2.48218089       0.00000169       0.00000024      -0.00000262
Ti       4.29926424       3.04003955       7.44654361      -0.00000351       0.00000196      -0.00000045
Te      -0.00000011      -0.00000029       0.00000012       0.00000260       0.00000270       0.00000685
N        1.67017000       1.18098872       4.96436208      -0.00022489      -0.00015074      -0.00000414
N        4.06218200       2.87239406       4.96436336       0.00023788       0.00015247       0.00000703
N        3.46417971       1.18098914       3.92859166       0.00011292      -0.00015980      -0.00018966
N        2.26817354       2.87239631       6.00013286      -0.00011739       0.00015265       0.00018686
N        2.26817364       2.87239528       3.92859260      -0.00012866       0.00015694      -0.00019217
N        3.46418100       1.18098897       6.00013370       0.00011972      -0.00015646       0.00018823
