9
Lattice="4.219002887045725 -9.377407097438675e-08 2.4358426573866985 1.4063343075084176 3.9777136534681254 2.4358424837701667 2.403143951163015e-08 -1.9564315260825983e-07 4.87168527314973" Properties=species:S:1:pos:R:3:forces:R:3 energy=-71.22559356689453 free_energy=-71.22559356689453 stress="-4.91727723783697e-06 1.5594082469760906e-08 -1.4620289334743575e-07 1.5594082469760906e-08 -4.363823791209143e-06 2.1057151400327712e-07 -1.4620289334743575e-07 2.1057151400327712e-07 -4.903135959466454e-06" pbc="T T T"
Ti       1.40633442       0.99442817       2.43584224       0.00000188      -0.00000082       0.00000067
Ti       4.21900347       2.98328510       7.30752775      -0.00000233       0.00000045      -0.00000097
V        0.00000033      -0.00000023      -0.00000014      -0.00000173       0.00000063       0.00000115
N        1.52188543       1.07613505       4.87168533      -0.00057042      -0.00040704       0.00000195
N        4.10345195       2.90157815       4.87168600       0.00057125       0.00040883       0.00000661
N        3.45806002       1.07613627       3.75383374       0.00028789      -0.00040460      -0.00050628
N        2.16727650       2.90157758       5.98953640      -0.00028855       0.00040340       0.00049764
N        2.16727661       2.90157816       3.75383380      -0.00028604       0.00040650      -0.00049597
N        3.45806061       1.07613473       5.98953615       0.00028771      -0.00040746       0.00049424
