9
Lattice="6.0416284348277935 -4.168331296813665e-08 3.488135833505349 2.013876127548834 5.696101818201446 3.4881357955636623 -1.6422907311047787e-08 -5.808162938026845e-08 6.976271695456029" Properties=species:S:1:pos:R:3:forces:R:3 energy=-42.421485900878906 free_energy=-42.421485900878906 stress="9.503182809567079e-06 4.148304455497964e-08 1.0158088592504555e-08 4.148304455497964e-08 9.476091690885369e-06 -2.1198722777171497e-08 1.0158088592504555e-08 -2.1198722777171497e-08 9.455171493755188e-06" pbc="T T T"
Ti       2.01387668       1.42402579       3.48813594       0.00000144       0.00000233       0.00000066
Ti       6.04162835       4.27207548      10.46440815      -0.00000185      -0.00000286       0.00000304
V        0.00000002       0.00000002       0.00000047      -0.00000361       0.00000189       0.00000050
Te       2.11112298       1.49278951       6.97627138      -0.00061387      -0.00043325      -0.00000182
Te       5.94438122       4.20331232       6.97627101       0.00061516       0.00043689      -0.00000204
Te       4.98606683       1.49278983       5.31642184       0.00030705      -0.00043336      -0.00053379
Te       3.06943763       4.20331204       8.63612131      -0.00030626       0.00043090       0.00053012
Te       3.06943777       4.20331218       5.31642198      -0.00030687       0.00043303      -0.00052963
Te       4.98606671       1.49278973       8.63612122       0.00030866      -0.00043557       0.00053306
