9
Lattice="5.116284409270298 -2.1233637356525593e-07 2.9538880445022437 1.705427905852002 4.823679277041321 2.9538880971198536 -4.326093840632767e-08 3.3852960064994604e-08 5.9077761639347965" Properties=species:S:1:pos:R:3:forces:R:3 energy=-49.79835510253906 free_energy=-49.79835510253906 stress="-0.00027547558420337737 8.227597447785229e-08 -9.487317242928839e-08 8.227597447785229e-08 -0.00027540899463929236 1.3566813095167163e-07 -9.487317242928839e-08 1.3566813095167163e-07 -0.0002753667940851301" pbc="T T T"
Ti       1.70542625       1.20592102       2.95388849      -0.00000644       0.00000733      -0.00000032
Ti       5.11628497       3.61775752       8.86166558       0.00000474      -0.00000736       0.00000497
V       -0.00000027      -0.00000072       0.00000086       0.00000577       0.00000411      -0.00000916
S        1.84133744       1.30202319       5.90777644       0.00727034       0.00514066       0.00000121
S        4.98037546       3.52165698       5.90777718      -0.00728512      -0.00514776       0.00000438
S        4.19561625       1.30202306       4.54853233      -0.00363600       0.00515085       0.00630134
S        2.62609569       3.52165670       7.26701826       0.00363290      -0.00513661      -0.00630158
S        2.62609679       3.52165651       4.54853174       0.00364989      -0.00515527       0.00630540
S        4.19561647       1.30202204       7.26701861      -0.00363615       0.00514352      -0.00630653
