9
Lattice="5.432784416079629 -1.0511764425693554e-07 3.136619221280527 1.8109280684154505 5.122077734288882 3.1366191713486877 -9.516305378141695e-08 -1.2844417613659617e-07 6.273238607388231" Properties=species:S:1:pos:R:3:forces:R:3 energy=-45.634559631347656 free_energy=-45.634559631347656 stress="-0.00037593150045722723 2.6724672252953496e-08 1.6949337933169772e-08 2.6724672252953496e-08 -0.000375865725800395 6.764545901205565e-08 1.6949337933169772e-08 6.764545901205565e-08 -0.00037593807792291045" pbc="T T T"
Ti       1.81092732       1.28051770       3.13661905      -0.00000223      -0.00000855       0.00000030
Ti       5.43278680       3.84155564       9.40986365       0.00001087      -0.00001131       0.00002544
V       -0.00000014       0.00000045      -0.00000010      -0.00000138      -0.00000073      -0.00000665
Se       1.97385981       1.39573146       6.27323782      -0.00429595      -0.00303355      -0.00000402
Se       5.26985096       3.72634799       6.27323783       0.00429720       0.00304222       0.00000016
Se       4.44585481       1.39573149       4.84603185       0.00214735      -0.00303185      -0.00371867
Se       2.79785654       3.72634743       7.70044253      -0.00215653       0.00304118       0.00371689
Se       2.79785972       3.72634803       4.84603151      -0.00214389       0.00303930      -0.00372487
Se       4.44585372       1.39572983       7.70044362       0.00214460      -0.00303620       0.00371206
