9
Lattice="4.215543024560239 -1.99434479626045e-07 2.4338448600163827 1.4051809513540596 3.9744510734584053 2.4338446327783863 1.7307500036725605e-07 -1.5592605489877033e-07 4.867689420258105" Properties=species:S:1:pos:R:3:forces:R:3 energy=-65.36901092529297 free_energy=-65.36901092529297 stress="-0.00026202687877230346 -1.4411139659387118e-07 -1.5529386132584477e-07 -1.4411139659387118e-07 -0.00026190478820353746 -7.99620281100033e-08 -1.5529386132584477e-07 -7.99620281100033e-08 -0.00026186235481873155" pbc="T T T"
Ti       1.40518028       0.99361274       2.43384480      -0.00000750      -0.00000091       0.00000590
Ti       4.21554281       2.98083822       7.30153677      -0.00000457       0.00000346       0.00002232
V       -0.00000019       0.00000028       0.00000009       0.00000507      -0.00000242      -0.00000359
O        1.47078076       1.03999787       4.86768874      -0.00048432      -0.00034499      -0.00001098
O        4.14994373       2.93445248       4.86768938       0.00048426       0.00033936      -0.00000066
O        3.48015320       1.03999870       3.70757770       0.00025356      -0.00033718      -0.00042734
O        2.14057068       2.93445185       6.02780043      -0.00025472       0.00034338       0.00042424
O        2.14057230       2.93445269       3.70757738      -0.00023776       0.00035155      -0.00043330
O        3.48015312       1.03999800       6.02780053       0.00024651      -0.00035277       0.00042409
