9
Lattice="2.4685157884750457 -0.5494845708293628 0.8957508590222627 1.1240175142934155 1.5369326870785878 1.2434221421758005 -0.058317583028276894 -1.0369426984650458 4.61891502572378" Properties=species:S:1:pos:R:3:forces:R:3 energy=-52047228.0 free_energy=-52047228.0 stress="9047419.0 -9733856.0 2150602.5 -9733856.0 20472710.0 22601218.0 2150602.5 22601218.0 9723161.0" pbc="T T T"
Ti       1.82660338       1.69817415      -0.28967445 -158987744.00000000 -250865344.00000000 404162272.00000000
Ti       1.99728385       0.56837551       4.44986988 -224434544.00000000 946663744.00000000 659293440.00000000
W        0.81985036       0.73310914      -1.07368655 285298496.00000000 -394682976.00000000 -428539104.00000000
N        1.92549699       0.39060363       2.40062668 -31770624.00000000 70873208.00000000 -68827600.00000000
N        3.96267074       1.43065434       2.11593780 4638688.00000000 31915482.00000000 -96217392.00000000
N        4.14822910       0.25123014       1.50522991 78587792.00000000 162226112.00000000 -142674048.00000000
N        0.72750301       2.21811109       2.86496412 29162360.00000000 -90214736.00000000 -3856877.00000000
N        3.39943669       1.06570149       1.22067476 174697456.00000000 -1499097.00000000 -83434208.00000000
N        4.36985269       1.15671144       1.37696523 -157191744.00000000 -474416768.00000000 -239906944.00000000
