9
Lattice="6.075305499836251 -5.0208470326785926e-08 3.5075791922304727 2.025101817015041 5.727852767225495 3.507579138409959 2.6237762203277323e-08 -4.7363495117919196e-08 7.015158339015793" Properties=species:S:1:pos:R:3:forces:R:3 energy=-33.78327178955078 free_energy=-33.78327178955078 stress="-2.529738048906438e-05 -1.1658872978159707e-08 6.360997062415663e-09 -1.1658872978159707e-08 -2.530032543290872e-05 -2.0320900517845075e-09 6.360997062415663e-09 -2.0320900517845075e-09 -2.529095218051225e-05" pbc="T T T"
Ti       2.02510155       1.43196338       3.50757922      -0.00000078       0.00000163       0.00000110
Ti       6.07530552       4.29588934      10.52273723       0.00000032      -0.00000051       0.00000034
Zn      -0.00000010      -0.00000002      -0.00000011       0.00000063      -0.00000048      -0.00000064
Te       2.13557622       1.51008027       7.01515837      -0.00005449      -0.00003943      -0.00000098
Te       5.96483125       4.21777229       7.01515819       0.00005490       0.00003786      -0.00000129
Te       5.00751748       1.51008034       5.35704239       0.00002628      -0.00003812      -0.00004725
Te       3.09288989       4.21777223       8.67327440      -0.00002864       0.00003842       0.00005001
Te       3.09288985       4.21777240       5.35704258      -0.00002782       0.00003953      -0.00004835
Te       5.00751769       1.51008043       8.67327442       0.00002977      -0.00003879       0.00004718
