9
Lattice="4.404539239475951 8.793761501910456e-09 2.5429619135612405 1.4681797609397176 4.152639368366544 2.5429619028972 3.0675334979825415e-08 8.630000440786495e-09 5.085923773991247" Properties=species:S:1:pos:R:3:forces:R:3 energy=-66.83128356933594 free_energy=-66.83128356933594 stress="1.840090044424869e-05 5.457863139213259e-08 -1.5969030542350993e-08 5.457863139213259e-08 1.816443182178773e-05 -5.591590834796989e-08 -1.5969030542350993e-08 -5.591590834796989e-08 1.8462065781932324e-05" pbc="T T T"
Ti       1.46817969       1.03815970       2.54296190      -0.00000171      -0.00000013       0.00000053
Ti       4.40453922       3.11447944       7.62888573       0.00000072       0.00000052      -0.00000143
Zr      -0.00000011      -0.00000006       0.00000005       0.00000581       0.00000370       0.00000374
N        1.67032219       1.18109611       5.08592375      -0.00019932      -0.00014043      -0.00000054
N        4.20239686       2.97154341       5.08592377       0.00019395       0.00014004      -0.00000163
N        3.56937827       1.18109590       3.98950341       0.00009844      -0.00014058      -0.00017169
N        2.30334088       2.97154335       6.18234429      -0.00009820       0.00013795       0.00016999
N        2.30334087       2.97154349       3.98950331      -0.00009739       0.00013879      -0.00016910
N        3.56937826       1.18109611       6.18234414       0.00009763      -0.00013924       0.00017104
