9
Lattice="4.048319205628084 -9.614721799987439e-08 2.3372981933547763 1.3494396656465195 3.816791825345826 2.3372981568333584 -2.759653826880138e-07 -2.3986641322193677e-07 4.674596864695573" Properties=species:S:1:pos:R:3:forces:R:3 energy=-52.85395050048828 free_energy=-52.85395050048828 stress="1.2909789802506566e-05 -2.68502617473132e-07 7.63770003686659e-07 -2.68502617473132e-07 1.240388064616127e-05 6.880767386974185e-07 7.63770003686659e-07 6.880767386974185e-07 1.257539406651631e-05" pbc="T T T"
Ti       1.34944270       0.95419443       2.33729529       0.00002186      -0.00002403      -0.00001766
Ti       4.04832494       2.86258900       7.01188386       0.00003964      -0.00003105      -0.00007212
Zn      -0.00000023       0.00000006       0.00000046      -0.00000553       0.00000294      -0.00000687
O        1.44889771       1.02453887       4.67459533      -0.00133647      -0.00079910      -0.00002666
O        3.94885802       2.79225557       4.67460328       0.00132049       0.00082303       0.00005486
O        3.32386337       1.02452559       3.59209070       0.00061157      -0.00094596      -0.00105352
O        2.07389206       2.79226633       5.75710481      -0.00063411       0.00096487       0.00108753
O        2.07389825       2.79226623       3.59208679      -0.00055137       0.00093231      -0.00111370
O        3.32385692       1.02452997       5.75711233       0.00053393      -0.00092386       0.00114915
