9
Lattice="5.31137065365128 -6.695698022543637e-08 3.066521341255439 1.7704568107560938 5.00760822979979 3.0665213597306726 -4.058180904944871e-08 -6.068198088134544e-09 6.133042752800626" Properties=species:S:1:pos:R:3:forces:R:3 energy=-39.173423767089844 free_energy=-39.173423767089844 stress="-0.0002777784538920969 -3.042019969257126e-08 3.5013354438007127e-09 -3.042019969257126e-08 -0.0002778469934128225 -2.062624737675378e-08 3.5013354438007127e-09 -2.062624737675378e-08 -0.0002777696354314685" pbc="T T T"
Ti       1.77045633       1.25190149       3.06652218      -0.00000404      -0.00000230       0.00000573
Ti       5.31137055       3.75570657       9.19956293      -0.00000064       0.00000237      -0.00000808
Zn       0.00000015       0.00000016       0.00000013      -0.00000437      -0.00000238       0.00000151
S        1.88333391       1.33171813       6.13304238      -0.00779998      -0.00551519      -0.00000037
S        5.19849309       3.67588996       6.13304426       0.00780672       0.00552163       0.00000880
S        4.36970349       1.33171843       4.69753677       0.00390291      -0.00552112      -0.00676060
S        2.71212394       3.67588999       7.56854846      -0.00390354       0.00551775       0.00675720
S        2.71212411       3.67588968       4.69753667      -0.00390118       0.00551841      -0.00675923
S        4.36970403       1.33171809       7.56854817       0.00390396      -0.00551915       0.00675529
