9
Lattice="4.5537159120383555 -1.29614803193274e-07 2.6290889336458014 1.5179052079223514 4.293284995529155 2.6290888884191372 -1.7355739051467232e-07 -1.7811450032371176e-07 5.258178167901688" Properties=species:S:1:pos:R:3:forces:R:3 energy=-41.49399948120117 free_energy=-41.49399948120117 stress="-0.00016497806063853204 3.198057285658251e-08 3.072132059855903e-08 3.198057285658251e-08 -0.00016503799997735769 -4.76617900702081e-09 3.072132059855903e-08 -4.76617900702081e-09 -0.0001650000485824421" pbc="T T T"
Tl       1.51790501       1.07332125       2.62908841       0.00000105      -0.00000006      -0.00000056
Tl       4.55371553       3.21996286       7.88726624      -0.00000038       0.00000033      -0.00000103
Co       0.00000012       0.00000025      -0.00000062       0.00000070      -0.00000146       0.00000381
O        1.47483502       1.04286577       5.25817799       0.00115865       0.00081831      -0.00000053
O        4.59678639       3.25041963       5.25817827      -0.00116104      -0.00081912      -0.00000050
O        3.81629896       1.04286529       3.90633354      -0.00057748       0.00082031       0.00100631
O        2.25532212       3.25041908       6.61002347       0.00057918      -0.00082180      -0.00100595
O        2.25532235       3.25041884       3.90633319       0.00057963      -0.00081828       0.00100178
O        3.81629853       1.04286571       6.61002335      -0.00058070       0.00082135      -0.00100410
