9
Lattice="5.5211469243283435 1.942302452820402e-08 3.187636471086665 1.8403824932521884 5.205387347127402 3.1876361821277026 -2.657686941607635e-07 -5.418279004695628e-07 6.375273402498241" Properties=species:S:1:pos:R:3:forces:R:3 energy=-35.66948699951172 free_energy=-35.66948699951172 stress="-0.000401447934564203 4.672587294862751e-08 7.280119174168931e-09 4.672587294862751e-08 -0.0004013949946966022 2.5257262947775416e-08 7.280119174168931e-09 2.5257262947775416e-08 -0.000401466095354408" pbc="T T T"
Tl       1.84038309       1.30134671       3.18763667      -0.00000243      -0.00000113       0.00000056
Tl       5.52114556       3.90404082       9.56290877       0.00000081       0.00000019      -0.00000082
Co       0.00000035       0.00000126      -0.00000062       0.00000261      -0.00000683       0.00000633
S        1.77949251       1.25829174       6.37527363       0.00305945       0.00216258      -0.00000008
S        5.58203788       3.94709566       6.37527210      -0.00306091      -0.00216600       0.00000075
S        4.63140115       1.25829113       4.72872125      -0.00152871       0.00216553       0.00265247
S        2.73012710       3.94709482       8.02182414       0.00153136      -0.00216314      -0.00265023
S        2.73012776       3.94709560       4.72872245       0.00152925      -0.00216073       0.00264764
S        4.63140136       1.25828944       8.02182606      -0.00153154       0.00216952      -0.00265655
