9
Lattice="4.622976752666769 -1.085357638219511e-06 2.6690776003697003 1.5409915538350432 4.3585822268579415 2.6690770353207425 -2.865148453564759e-07 -8.946372057542329e-07 5.338155696997674" Properties=species:S:1:pos:R:3:forces:R:3 energy=-45.4112548828125 free_energy=-45.4112548828125 stress="0.00013604617561213672 3.573609319573734e-08 3.441698126493975e-08 3.573609319573734e-08 0.0001359789166599512 1.9410815177423046e-09 3.441698126493975e-08 1.9410815177423046e-09 0.00013604994455818087" pbc="T T T"
Tl       1.54099278       1.08964603       2.66907902       0.00000090       0.00000151       0.00000038
Tl       4.62297626       3.26893589       8.00723368       0.00000107       0.00000238       0.00000257
Cr      -0.00000050      -0.00000053      -0.00000068      -0.00000244       0.00000925       0.00000394
O        1.46542179       1.03620803       5.33815562      -0.00420380      -0.00296991      -0.00000461
O        4.69854677       3.32236922       5.33815358       0.00420150       0.00296788      -0.00000019
O        3.89026378       1.03620756       3.93816981       0.00209068      -0.00297406      -0.00364515
O        2.27370155       3.32236975       6.73814044      -0.00209542       0.00296465       0.00363156
O        2.27370336       3.32237477       3.93817035      -0.00209647       0.00296977      -0.00362673
O        3.89026626       1.03620812       6.73813996       0.00210360      -0.00297171       0.00363818
