9
Lattice="5.456201827904157 3.9448602070939886e-08 3.150139488101191 1.8187339210983935 5.144157236055287 3.1501395898225093 -1.1074091561626476e-07 4.627714533474219e-08 6.300279168011331" Properties=species:S:1:pos:R:3:forces:R:3 energy=-38.06480026245117 free_energy=-38.06480026245117 stress="-9.910919288813602e-06 9.096062569824426e-09 1.9616230417796032e-08 9.096062569824426e-09 -9.970619430532679e-06 4.0961879221868e-08 1.9616230417796032e-08 4.0961879221868e-08 -1.0005537660617847e-05" pbc="T T T"
Tl       1.81873371       1.28603936       3.15013963      -0.00000074      -0.00000052      -0.00000125
Tl       5.45620190       3.85811801       9.45041872       0.00000115      -0.00000105      -0.00000096
Cr      -0.00000134       0.00000010       0.00000108       0.00000287       0.00000100       0.00000081
S        1.83560539       1.29796787       6.30027884       0.00017089       0.00011969       0.00000206
S        5.43933122       3.84618758       6.30027872      -0.00017133      -0.00012299       0.00000157
S        4.53839907       1.29796989       4.73981921      -0.00008529       0.00012264       0.00014839
S        2.73653657       3.84618975       7.86073881       0.00008608      -0.00012094      -0.00015026
S        2.73653683       3.84618864       4.73981914       0.00008497      -0.00012052       0.00015020
S        4.53839928       1.29796797       7.86073886      -0.00008859       0.00012273      -0.00015026
