9
Lattice="6.228505840309561 3.732345827837852e-06 3.5960278366293448 2.0761716721421646 5.872293589672924 3.5960286336918013 9.126608435852365e-07 1.6215467802432316e-06 7.192054092483941" Properties=species:S:1:pos:R:3:forces:R:3 energy=-31.33232879638672 free_energy=-31.33232879638672 stress="-6.657445919699967e-05 6.650530792740028e-08 -6.663457785549554e-09 6.650530792740028e-08 -6.670192669844255e-05 2.2550862566195207e-10 -6.663457785549554e-09 2.2550862566195207e-10 -6.676370685454458e-05" pbc="T T T"
Tl       2.07616870       1.46807615       3.59602909       0.00000412       0.00000006      -0.00000237
Tl       6.22850949       4.40422355      10.78808410      -0.00000354      -0.00000035      -0.00000215
Co      -0.00000045       0.00000108       0.00000234       0.00000545      -0.00001227      -0.00002201
Te       2.01022613       1.42144882       7.19205460      -0.00058578      -0.00041533       0.00000385
Te       6.29445048       4.45084991       7.19205525       0.00058579       0.00041612       0.00000163
Te       5.22339473       1.42144618       5.33693369       0.00028586      -0.00040177      -0.00049176
Te       3.08128468       4.45085290       9.04717416      -0.00029272       0.00041348       0.00050613
Te       3.08128412       4.45085148       5.33693442      -0.00028763       0.00040798      -0.00049309
Te       5.22339507       1.42144581       9.04717457       0.00028843      -0.00040788       0.00049977
