9
Lattice="6.287595535301121 -1.279581157843335e-06 3.630146396190856 2.0958642702197587 5.928001614509266 3.6301458797161015 8.322846673650305e-07 -4.403575063418692e-08 7.26029135082266" Properties=species:S:1:pos:R:3:forces:R:3 energy=-33.653846740722656 free_energy=-33.653846740722656 stress="6.463168574555311e-06 -1.6695832272262123e-08 2.420441447270605e-08 -1.6695832272262123e-08 6.461194061557762e-06 -3.889152822011965e-08 2.420441447270605e-08 -3.889152822011965e-08 6.459569249273045e-06" pbc="T T T"
Tl       2.09586549       1.48200044       3.63014578      -0.00000163       0.00000040      -0.00000039
Tl       6.28759566       4.44600015      10.89043796       0.00000076       0.00000076      -0.00000158
Cr       0.00000027      -0.00000162       0.00000269      -0.00000206       0.00000585      -0.00001089
Te       2.20651425       1.56023960       7.26029012       0.00046518       0.00032803       0.00000241
Te       6.17694422       4.36776189       7.26028974      -0.00046246      -0.00033046       0.00000338
Te       5.18433954       1.56024094       5.54104192      -0.00023159       0.00032613       0.00040602
Te       3.19912158       4.36776071       8.97954195       0.00023323      -0.00033031      -0.00040099
Te       3.19912253       4.36775952       5.54104327       0.00022862      -0.00032590       0.00040052
Te       5.18433886       1.56023976       8.97954140      -0.00022998       0.00032545      -0.00039846
