9
Lattice="4.396817962551033 5.5861470933073896e-08 2.538503659822685 1.465605949597924 4.145359712521225 2.5385038167218763 -1.7373656290944711e-07 6.931120435808993e-08 5.077007620565886" Properties=species:S:1:pos:R:3:forces:R:3 energy=-42.594242095947266 free_energy=-42.594242095947266 stress="-0.000461228599306196 -2.3019444483907137e-07 -2.1737285749168223e-07 -2.3019444483907137e-07 -0.0004613912315107882 1.5550129717212258e-07 -2.1737285749168223e-07 1.5550129717212258e-07 -0.0004608095914591104" pbc="T T T"
Tl       1.46560566       1.03633974       2.53850416       0.00000118       0.00000392       0.00000278
Tl       4.39681774       3.10902008       7.61551151       0.00000171      -0.00000462       0.00000757
C        0.00000039      -0.00000052      -0.00000644      -0.00000341      -0.00000045      -0.00000230
O        1.25460255       0.88713806       5.07700837       0.00909507       0.00643551       0.00000033
O        4.60782113       3.25822164       5.07700800      -0.00909555      -0.00643325      -0.00000060
O        3.76951604       0.88713846       3.62502252      -0.00454473       0.00642991       0.00787592
O        2.09290697       3.25822221       6.52899448       0.00454772      -0.00643682      -0.00787926
O        2.09290750       3.25822152       3.62502253       0.00454575      -0.00643122       0.00787663
O        3.76951667       0.88713815       6.52899466      -0.00454855       0.00643778      -0.00788057
