9
Lattice="5.777813161955225 4.054581275592487e-07 3.3358219769603195 1.9259378107591187 5.447375620824327 3.3358224830001286 -5.642956607013733e-07 2.2075237192595507e-07 6.671644931309477" Properties=species:S:1:pos:R:3:forces:R:3 energy=-33.16585159301758 free_energy=-33.16585159301758 stress="-3.767473390325904e-05 5.401138203353639e-09 -5.353420484688343e-10 5.401138203353639e-09 -3.7662241084035486e-05 9.76281722131489e-09 -5.353420484688343e-10 9.76281722131489e-09 -3.763718268601224e-05" pbc="T T T"
Tl       1.92593757       1.36184399       3.33582243      -0.00000108      -0.00000061       0.00000226
Tl       5.77781282       4.08553231      10.00746705       0.00000080       0.00000372       0.00000087
Co       0.00000109       0.00000061       0.00000111      -0.00000602      -0.00000415      -0.00000681
Se       1.90760646       1.34888207       6.67164483       0.00175226       0.00123942       0.00000010
Se       5.79614238       4.09849356       6.67164474      -0.00174929      -0.00123722      -0.00000045
Se       4.82401030       1.34888281       4.98785824      -0.00087503       0.00123812       0.00151713
Se       2.87974147       4.09849317       8.35543022       0.00087573      -0.00123819      -0.00151590
Se       2.87974110       4.09849305       4.98785782       0.00087641      -0.00123856       0.00151794
Se       4.82400845       1.34888325       8.35543114      -0.00087378       0.00123745      -0.00151508
