9
Lattice="5.807017599452298 -2.8728813105269177e-07 3.352683719100571 1.935672458856702 5.474908331204196 3.3526833786420736 2.1250702709442983e-07 -2.667095765656143e-07 6.705367070128125" Properties=species:S:1:pos:R:3:forces:R:3 energy=-35.838836669921875 free_energy=-35.838836669921875 stress="-6.18455815128982e-05 -9.8101892831437e-08 2.6165860589344447e-08 -9.8101892831437e-08 -6.18371632299386e-05 -3.8567733895433776e-08 2.6165860589344447e-08 -3.8567733895433776e-08 -6.186848622746766e-05" pbc="T T T"
Tl       1.93567234       1.36872706       3.35268364       0.00000136       0.00000010       0.00000169
Tl       5.80701779       4.10618096      10.05805090       0.00000007      -0.00000277      -0.00000115
Cr      -0.00000090      -0.00000145      -0.00000073       0.00000201       0.00000651       0.00000092
Se       2.01784885       1.42683387       6.70536750      -0.00017345      -0.00011898      -0.00000209
Se       5.72484118       4.04807413       6.70536733       0.00017069       0.00011986      -0.00000052
Se       4.79809406       1.42683428       5.10019269       0.00008598      -0.00012393      -0.00015076
Se       2.94459855       4.04807262       8.31054191      -0.00008787       0.00012369       0.00015098
Se       2.94459693       4.04807430       5.10019239      -0.00008897       0.00012274      -0.00015361
Se       4.79809235       1.42683525       8.31054116       0.00009023      -0.00012723       0.00015456
