9
Lattice="6.637615275774301 4.3409940104389304e-07 3.8322288457152998 2.212538717260183 6.258004446225534 3.832229048834172 2.432378208539131e-07 4.207637605670772e-07 7.664457270130605" Properties=species:S:1:pos:R:3:forces:R:3 energy=-33.30508041381836 free_energy=-33.30508041381836 stress="-0.00010200816905125976 1.2855113595833245e-07 -8.104972692990486e-08 1.2855113595833245e-07 -0.00010212426423095167 6.928691220764449e-08 -8.104972692990486e-08 6.928691220764449e-08 -0.00010217811359325424" pbc="T T T"
Tl       2.21253860       1.56450069       3.83222893      -0.00000012      -0.00000020       0.00000011
Tl       6.63761569       4.69350454      11.49668627       0.00000011       0.00000001      -0.00000002
Fe      -0.00000034       0.00000082      -0.00000093       0.00001170      -0.00002035       0.00001078
Te       1.93746884       1.36999797       7.66445812       0.00365224       0.00258367       0.00000150
Te       6.91268573       4.88800732       7.66445755      -0.00365026      -0.00258177      -0.00000127
Te       5.66888186       1.36999763       5.51012486      -0.00183133       0.00259233       0.00317257
Te       3.18127240       4.88800718       9.81879024       0.00182786      -0.00258743      -0.00316703
Te       3.18127267       4.88800837       5.51012430       0.00183186      -0.00258997       0.00317140
Te       5.66888150       1.36999666       9.81879133      -0.00184203       0.00260371      -0.00318797
