9
Lattice="5.606874832053503 2.7123876274714573e-07 3.237131367722367 1.8689582639031004 5.286212687510092 3.2371318339463375 -3.454637829704005e-07 3.2672568348375584e-07 6.474263333805428" Properties=species:S:1:pos:R:3:forces:R:3 energy=-37.51931381225586 free_energy=-37.51931381225586 stress="2.7710826543625444e-05 3.0089143621125913e-08 -1.415531585280405e-07 3.0089143621125913e-08 2.7638163373921998e-05 2.242880157155014e-07 -1.415531585280405e-07 2.242880157155014e-07 2.7636633603833616e-05" pbc="T T T"
Tl       1.86895848       1.32155327       3.23713135      -0.00000242      -0.00000061       0.00000291
Tl       5.60687374       3.96466029       9.71139462       0.00000293      -0.00000103       0.00000063
Fe       0.00000042      -0.00000049      -0.00000001      -0.00000676       0.00000888      -0.00001511
S        1.78147086       1.25969004       6.47426448      -0.00175238      -0.00123718      -0.00000457
S        5.69436199       4.02652317       6.47426361       0.00175011       0.00123850      -0.00000149
S        4.71613979       1.25969096       4.77993075       0.00087789      -0.00124243      -0.00152129
S        2.75969342       4.02652170       8.16859566      -0.00088188       0.00124836       0.00152469
S        2.75969277       4.02652385       4.77992933      -0.00086477       0.00122216      -0.00149727
S        4.71613860       1.25969019       8.16859615       0.00087708      -0.00123647       0.00151205
