9
Lattice="5.90271112566126 6.69492956332073e-08 3.40793204785852 1.9675703628417658 5.565129602008236 3.4079321786267327 -6.023906834079307e-08 1.1756228399477524e-07 6.81586420005427" Properties=species:S:1:pos:R:3:forces:R:3 energy=-30.072120666503906 free_energy=-30.072120666503906 stress="-1.2648565643758047e-05 1.6324497309483377e-08 -2.2823643419656037e-08 1.6324497309483377e-08 -1.2666351722145919e-05 2.7819599068834577e-08 -2.2823643419656037e-08 2.7819599068834577e-08 -1.2626689567696303e-05" pbc="T T T"
Tl       1.96757030       1.39128238       3.40793206      -0.00000048      -0.00000041       0.00000103
Tl       5.90271094       4.17384737      10.22379630       0.00000063       0.00000144       0.00000005
Ge       0.00000053       0.00000060       0.00000003      -0.00000071      -0.00000865      -0.00000219
Se       2.04384692       1.44521791       6.81586433       0.00261678       0.00185022      -0.00000000
Se       5.82643415       4.11991188       6.81586427      -0.00261132      -0.00184573      -0.00000097
Se       4.88078816       1.44521800       5.17795450      -0.00130847       0.00184865       0.00226687
Se       2.98949357       4.11991116       8.45377361       0.00130480      -0.00184602      -0.00226016
Se       2.98949312       4.11991173       5.17795469       0.00130731      -0.00184740       0.00226298
Se       4.88078810       1.44521820       8.45377401      -0.00130861       0.00184798      -0.00226757
