9
Lattice="6.458278403913391 -7.150147849361312e-08 3.7286891489067 2.152759403619819 6.088923497775868 3.7286891436048726 1.0954414662206677e-07 7.096593498955618e-08 7.457378108077412" Properties=species:S:1:pos:R:3:forces:R:3 energy=-28.107637405395508 free_energy=-28.107637405395508 stress="-0.00010275439126417041 1.900598256554531e-08 7.034247406778604e-09 1.900598256554531e-08 -0.00010271343489876017 2.623116168720685e-09 7.034247406778604e-09 2.623116168720685e-09 -0.00010268546611769125" pbc="T T T"
Tl       2.15275922       1.52223064       3.72868898       0.00000022       0.00000020       0.00000007
Tl       6.45827868       4.56669278      11.18606727      -0.00000007      -0.00000002      -0.00000024
Ge       0.00000047      -0.00000020       0.00000029       0.00000016      -0.00000068       0.00000014
Te       2.36538810       1.67258338       7.45737834      -0.00325413      -0.00230025       0.00000020
Te       6.24564982       4.41633996       7.45737855       0.00325407       0.00230040      -0.00000000
Te       5.27558487       1.67258245       5.77717692       0.00162738      -0.00230093      -0.00281790
Te       3.33545305       4.41634105       9.13757970      -0.00162743       0.00230087       0.00281738
Te       3.33545271       4.41634162       5.77717625      -0.00162764       0.00230104      -0.00281739
Te       5.27558484       1.67258229       9.13757938       0.00162743      -0.00230072       0.00281748
