9
Lattice="4.543738598379872 -1.1265127275596557e-06 2.623328529759811 1.5145791670642932 4.283874640453621 2.6233273236333394 2.2030756304554247e-07 -1.3214162157996324e-06 5.246656677935698" Properties=species:S:1:pos:R:3:forces:R:3 energy=-41.882911682128906 free_energy=-41.882911682128906 stress="-0.00017717712034936994 1.3765398598764023e-08 -4.5949029470193636e-08 1.3765398598764023e-08 -0.00017691502580419183 -8.565118747583256e-08 -4.5949029470193636e-08 -8.565118747583256e-08 -0.00017707589722704142" pbc="T T T"
Tl       1.51457878       1.07096651       2.62332898      -0.00000006      -0.00000054       0.00000188
Tl       4.54373911       3.21290374       7.86998663      -0.00000321       0.00000048      -0.00000341
Ge      -0.00000041      -0.00000026      -0.00000008       0.00000536       0.00000234       0.00000551
O        1.55580236       1.10011744       5.24665647      -0.00083518      -0.00059325       0.00000264
O        4.50251526       3.18375463       5.24665524       0.00083458       0.00059497      -0.00000018
O        3.76583737       1.10011849       3.97069182       0.00041670      -0.00059205      -0.00072765
O        2.29248019       3.18375570       6.52262015      -0.00041485       0.00058663       0.00072038
O        2.29248015       3.18375561       3.97069184      -0.00041968       0.00059509      -0.00072408
O        3.76583870       1.10011643       6.52261992       0.00041723      -0.00059432       0.00072432
