9
Lattice="5.761670634979205 -1.1434978959842064e-07 3.32650201936805 1.9205569042266022 5.43215443161503 3.326501787775091 1.7746514772197177e-07 -1.581554636224828e-07 6.653003731357388" Properties=species:S:1:pos:R:3:forces:R:3 energy=-31.597978591918945 free_energy=-31.597978591918945 stress="-9.329876775154844e-05 1.3784927865856389e-08 5.0083215796803415e-08 1.3784927865856389e-08 -9.326404688181356e-05 -4.539767672895323e-08 5.0083215796803415e-08 -4.539767672895323e-08 -9.327063162345439e-05" pbc="T T T"
Tl       1.92055688       1.35803856       3.32650197      -0.00000002       0.00000011      -0.00000009
Tl       5.76167067       4.07411551       9.97950586       0.00000026      -0.00000012       0.00000008
Ge      -0.00000019      -0.00000008       0.00000085       0.00000788       0.00000548      -0.00001213
S        1.91311057       1.35277295       6.65300348       0.00401682       0.00283927      -0.00000110
S        5.76911840       4.07938180       6.65300336      -0.00402707      -0.00284743      -0.00000145
S        4.80511580       1.35277249       4.98330310      -0.00201356       0.00284958       0.00348902
S        2.87711157       4.07938137       8.32270400       0.00201055      -0.00284231      -0.00348204
S        2.87711175       4.07938126       4.98330381       0.00201172      -0.00284439       0.00348532
S        4.80511544       1.35277305       8.32270382      -0.00200668       0.00284004      -0.00347781
