9
Lattice="6.054306186501262 4.1525781067872324e-08 3.495454946557295 2.018102168988211 5.708053716447191 3.495454829348916 3.6711886978623265e-10 -1.4329073016166556e-07 6.990909892478735" Properties=species:S:1:pos:R:3:forces:R:3 energy=-38.225181579589844 free_energy=-38.225181579589844 stress="9.766850780579261e-06 5.0244750582351116e-08 9.530115363531877e-09 5.0244750582351116e-08 9.64865739661036e-06 -1.4690610505851964e-08 9.530115363531877e-09 -1.4690610505851964e-08 9.638336450734641e-06" pbc="T T T"
Tl       2.01810309       1.42701340       3.49545475      -0.00000133       0.00000121      -0.00000008
Tl       6.05430618       4.28104040      10.48636526      -0.00000010       0.00000046      -0.00000095
Hf      -0.00000174       0.00000300      -0.00000177       0.00000921      -0.00001830       0.00000901
Se       2.16447087       1.53050849       6.99090975      -0.00103191      -0.00072515      -0.00000115
Se       5.90793813       4.17754513       6.99090961       0.00102983       0.00072743      -0.00000044
Se       4.97207074       1.53050864       5.36993904       0.00051250      -0.00072097      -0.00088687
Se       3.10033687       4.17754353       8.61188034      -0.00051410       0.00072608       0.00088668
Se       3.10033788       4.17754362       5.36993990      -0.00051616       0.00072855      -0.00089099
Se       4.97207132       1.53050814       8.61188165       0.00051203      -0.00071933       0.00088469
