9
Lattice="6.556149492328527 3.698082788438396e-08 3.7851934312420887 2.1853831500794856 6.181196506284455 3.7851935159322894 -2.4267256883545484e-07 -6.787148998858739e-08 7.57038728280548" Properties=species:S:1:pos:R:3:forces:R:3 energy=-36.20556640625 free_energy=-36.20556640625 stress="-1.8123020026905579e-06 -2.4687250288479845e-07 -1.1613840555924071e-08 -2.4687250288479845e-07 -1.6022397630877094e-06 4.402575370932027e-08 -1.1613840555924071e-08 4.402575370932027e-08 -1.5118423561943928e-06" pbc="T T T"
Tl       2.18538498       1.54529932       3.78519313       0.00000024       0.00000037       0.00000001
Tl       6.55614808       4.63589661      11.35558209       0.00000011      -0.00000043       0.00000061
Hf       0.00000215       0.00000053       0.00000488      -0.00001318      -0.00000160      -0.00002651
Te       2.34503434       1.65819067       7.57038567      -0.00208023      -0.00147212       0.00000186
Te       6.39649664       4.52300546       7.57038534       0.00208506       0.00147626       0.00000224
Te       5.38362981       1.65819582       5.81605697       0.00105444      -0.00149109      -0.00181962
Te       3.35790261       4.52299941       9.32471643      -0.00105456       0.00149520       0.00182701
Te       3.35790375       4.52300182       5.81605504      -0.00104910       0.00148688      -0.00181321
Te       5.38362663       1.65819651       9.32471740       0.00105716      -0.00149351       0.00182755
