9
Lattice="4.684519199624705 1.8397038160331595e-07 2.7046084080019113 1.5615065223023277 4.416607941125547 2.704608496373743 1.1257948094823353e-07 1.8783861477884674e-07 5.409216621010451" Properties=species:S:1:pos:R:3:forces:R:3 energy=-51.167015075683594 free_energy=-51.167015075683594 stress="-0.00030564452754333615 -1.494099564069984e-07 -3.1185933835331525e-08 -1.494099564069984e-07 -0.00030563672771677375 5.882659248612754e-09 -3.1185933835331525e-08 5.882659248612754e-09 -0.00030509490170516074" pbc="T T T"
Tl       1.56150665       1.10415480       2.70460778      -0.00000216       0.00000301      -0.00000121
Tl       4.68451780       3.31245482       8.11382749      -0.00000027       0.00000140       0.00000588
Hf       0.00000036       0.00000045       0.00000101      -0.00001012      -0.00000766      -0.00002326
O        1.67036280       1.18112536       5.40921675       0.00082678       0.00058854      -0.00001266
O        4.57566360       3.23548003       5.40921595      -0.00080955      -0.00058436      -0.00000261
O        3.84933868       1.18112548       4.15118540      -0.00041831       0.00058341       0.00070989
O        2.39668989       3.23548051       6.66724565       0.00040263      -0.00056416      -0.00069433
O        2.39668940       3.23548470       4.15118577       0.00041693      -0.00058419       0.00071174
O        3.84933488       1.18112690       6.66724653      -0.00040567       0.00056362      -0.00069356
