9
Lattice="5.753273538470456 -4.7088708723101037e-07 3.3216538783534175 1.917757290903837 5.424238409965962 3.3216540711248763 -2.718611248813529e-07 4.386064547549302e-08 6.643308227584297" Properties=species:S:1:pos:R:3:forces:R:3 energy=-40.540672302246094 free_energy=-40.540672302246094 stress="-3.6035195080330595e-05 -1.3035763402058365e-07 2.8813323282861347e-08 -1.3035763402058365e-07 -3.595119051169604e-05 1.7596143209175352e-08 2.8813323282861347e-08 1.7596143209175352e-08 -3.5760396713158116e-05" pbc="T T T"
Tl       1.91775776       1.35605947       3.32165428       0.00000026       0.00000014      -0.00000005
Tl       5.75327275       4.06817850       9.96496218       0.00000003      -0.00000006      -0.00000010
Hf      -0.00000120       0.00000075      -0.00000050       0.00000817      -0.00000415       0.00000459
S        2.03881499       1.44166069       6.64330781      -0.00290361      -0.00205186      -0.00000129
S        5.63221596       3.98257702       6.64330813       0.00290057       0.00205274      -0.00000048
S        4.73386521       1.44166090       5.08732187       0.00145400      -0.00205691      -0.00251999
S        2.93716585       3.98257675       8.19929498      -0.00145611       0.00205724       0.00251931
S        2.93716591       3.98257698       5.08732158      -0.00145607       0.00205915      -0.00252053
S        4.73386494       1.44166088       8.19929418       0.00145270      -0.00205626       0.00251816
