9
Lattice="5.846239430109061 2.5310418976435103e-09 3.3753276694874055 1.9487465085944355 5.511886883368837 3.3753276183830905 -1.087221061491273e-07 -1.394679013747912e-07 6.750655527287085" Properties=species:S:1:pos:R:3:forces:R:3 energy=-35.36783981323242 free_energy=-35.36783981323242 stress="-7.068792911013588e-05 7.163133375343023e-08 1.9443571197541587e-09 7.163133375343023e-08 -7.07261060597375e-05 2.4524634767431053e-08 1.9443571197541587e-09 2.4524634767431053e-08 -7.084553362801671e-05" pbc="T T T"
Tl       1.94874654       1.37797181       3.37532777       0.00000112      -0.00000202       0.00000191
Tl       5.84623916       4.13391512      10.12598329       0.00000061       0.00000180      -0.00000120
Ir       0.00000146       0.00000137      -0.00000048      -0.00000865      -0.00000657       0.00000273
Se       2.03109991       1.43620426       6.75065501       0.00477192       0.00337369      -0.00000078
Se       5.76388769       4.07568218       6.75065493      -0.00476843      -0.00337058      -0.00000049
Se       4.83068944       1.43620347       5.13431071      -0.00238567       0.00337600       0.00413524
Se       2.96429515       4.07568216       8.36700102       0.00238784      -0.00337452      -0.00413626
Se       2.96429538       4.07568296       5.13431041       0.00238720      -0.00337415       0.00413559
Se       4.83068866       1.43620358       8.36700043      -0.00238591       0.00337632      -0.00413677
