9
Lattice="5.5706270210541735 -2.511050229352342e-07 3.216204127960162 1.8568755217431354 5.252037812256333 3.216203981077914 -8.055209175943396e-08 -2.3685234948584222e-07 6.432408395440665" Properties=species:S:1:pos:R:3:forces:R:3 energy=-37.554840087890625 free_energy=-37.554840087890625 stress="0.0004698209522757679 -1.0670429873016474e-07 3.729866904222945e-08 -1.0670429873016474e-07 0.0004698771517723799 -1.7219441872384778e-08 3.729866904222945e-08 -1.7219441872384778e-08 0.0004698518314398825" pbc="T T T"
Tl       1.85687572       1.31300967       3.21620429      -0.00000189      -0.00000131      -0.00000036
Tl       5.57062657       3.93902775       9.64861240       0.00000202       0.00000160       0.00000001
Ir      -0.00000081       0.00000045       0.00000088      -0.00000019       0.00000067       0.00000031
S        1.89397510       1.33924222       6.43240837      -0.00775439      -0.00548267       0.00000028
S        5.53352772       3.91279517       6.43240797       0.00775260       0.00548238      -0.00000004
S        4.62363931       1.33924346       4.85643507       0.00388083      -0.00548714      -0.00671840
S        2.80386345       3.91279381       8.00838150      -0.00387979       0.00548720       0.00671816
S        2.80386413       3.91279374       4.85643458      -0.00388142       0.00548875      -0.00672132
S        4.62363843       1.33924292       8.00838092       0.00388190      -0.00548989       0.00672191
