9
Lattice="5.012954834928616 -3.711220596320598e-07 2.894231212454661 1.6709847613425455 4.7262589623984885 2.894230924477757 -1.0857672142209799e-07 -4.2947371296008666e-07 5.788462612969779" Properties=species:S:1:pos:R:3:forces:R:3 energy=-45.89981460571289 free_energy=-45.89981460571289 stress="2.996175862790551e-05 7.629832055044972e-08 4.7522501489538627e-08 7.629832055044972e-08 2.999206662934739e-05 -7.139679070178317e-08 4.7522501489538627e-08 -7.139679070178317e-08 2.9922024623374455e-05" pbc="T T T"
Tl       1.67098513       1.18156439       2.89423078      -0.00000062      -0.00000072       0.00000042
Tl       5.01295483       3.54469313       8.68269307       0.00000114      -0.00000105      -0.00000090
Ir      -0.00000002       0.00000002      -0.00000017       0.00000851      -0.00000322      -0.00000649
O        1.53323223       1.08415884       5.78846256      -0.00183338      -0.00130060       0.00000136
O        5.15070727       3.64209903       5.78846318       0.00183159       0.00129527      -0.00000270
O        4.24633926       1.08415872       4.22204834       0.00090808      -0.00128317      -0.00157496
O        2.43760078       3.64210033       7.35487565      -0.00091508       0.00129500       0.00158620
O        2.43759999       3.64209977       4.22204980      -0.00091463       0.00129634      -0.00158882
O        4.24633889       1.08415879       7.35487564       0.00091431      -0.00129822       0.00158569
