9
Lattice="6.025779452533074 -7.38251939840882e-07 3.4789861401861155 2.008592445903997 5.681159451354709 3.478986155618467 -1.326769388223932e-07 -7.49162248757645e-08 6.9579725101753525" Properties=species:S:1:pos:R:3:forces:R:3 energy=-38.417842864990234 free_energy=-38.417842864990234 stress="-0.0003096669679507613 -2.831604319908365e-07 -7.488874409489199e-09 -2.831604319908365e-07 -0.0003094607964158058 3.5762728334276517e-09 -7.488874409489199e-09 3.5762728334276517e-09 -0.00030926469480618834" pbc="T T T"
Tl       2.00859290       1.42028967       3.47898586       0.00000032      -0.00000028       0.00000151
Tl       6.02577891       4.26086919      10.43695898       0.00000015       0.00000039      -0.00000020
Mo      -0.00000096      -0.00000046       0.00000027       0.00001143       0.00000749      -0.00001479
Se       1.98906077       1.40647882       6.95797335       0.00374055       0.00264433      -0.00000188
Se       6.04531097       4.27467986       6.95797346      -0.00375199      -0.00265224      -0.00000102
Se       5.03124787       1.40647962       5.20156508      -0.00186391       0.00263500       0.00322655
Se       3.00312472       4.27467815       8.71437872       0.00185712      -0.00262564      -0.00321811
Se       3.00312428       4.27467943       5.20156537       0.00186361      -0.00263555       0.00322685
Se       5.03124725       1.40648055       8.71437834      -0.00185733       0.00262658      -0.00321878
