9
Lattice="5.810826978563535 -5.561115689997207e-07 3.354883428154455 1.936941818066744 5.478501466128027 3.354883400119653 -1.4301377043298773e-07 -1.354616554061576e-07 6.7097671040160165" Properties=species:S:1:pos:R:3:forces:R:3 energy=-38.760467529296875 free_energy=-38.760467529296875 stress="-9.710309677757323e-05 -1.1751271244975214e-07 2.306928337247882e-08 -1.1751271244975214e-07 -9.696603228803724e-05 -3.5773396689364745e-08 2.306928337247882e-08 -3.5773396689364745e-08 -9.691685409052297e-05" pbc="T T T"
Tl       1.93694214       1.36962556       3.35488375      -0.00000008       0.00000033       0.00000028
Tl       5.81082595       4.10887535      10.06465085       0.00000059       0.00000037       0.00000044
Mn      -0.00000021      -0.00000130       0.00000136       0.00000401       0.00001906      -0.00003715
S        1.81202401       1.28129467       6.70976738       0.00382358       0.00270402      -0.00000204
S        5.93574484       4.19720654       6.70976753      -0.00383645      -0.00271297      -0.00000261
S        4.90481484       1.28129445       4.92414185      -0.00191560       0.00270969       0.00331569
S        2.84295535       4.19720543       8.49539025       0.00190535      -0.00269467      -0.00330251
S        2.84295401       4.19720685       4.92414325       0.00191772      -0.00271118       0.00331897
S        4.90481347       1.28129578       8.49538919      -0.00189877       0.00268525      -0.00329095
