9
Lattice="4.793056958004222 -1.3650187759682645e-07 2.7672736024887867 1.5976856287358703 4.5189373546214515 2.7672734210338645 5.048345374350493e-07 1.347358295241485e-07 5.534546330578395" Properties=species:S:1:pos:R:3:forces:R:3 energy=-46.07157897949219 free_energy=-46.07157897949219 stress="7.3990945566038135e-06 -3.7394988794403616e-07 -2.1309224962351436e-07 -3.7394988794403616e-07 7.658643880859017e-06 3.850062171295576e-07 -2.1309224962351436e-07 3.850062171295576e-07 8.063428140303586e-06" pbc="T T T"
Tl       1.59768299       1.12973404       2.76727556      -0.00003645       0.00000336       0.00000167
Tl       4.79305399       3.38920314       8.30181525      -0.00003318       0.00000646      -0.00002535
Mo      -0.00000960       0.00000172      -0.00000183       0.00000134       0.00000163      -0.00000157
O        1.58949559       1.12394080       5.53454622       0.00243938       0.00171298      -0.00000267
O        4.80125303       3.39499610       5.53454965      -0.00243759      -0.00173640       0.00001280
O        3.99831207       1.12394196       4.14381863      -0.00118732       0.00170124       0.00208330
O        2.39243745       3.39499378       6.92527700       0.00122094      -0.00169379      -0.00206292
O        2.39243442       3.39499591       4.14381572       0.00122827      -0.00171316       0.00209928
O        3.99831359       1.12394073       6.92527661      -0.00119466       0.00171816      -0.00210428
