9
Lattice="5.932139744792855 -5.833518812303432e-08 3.424922030633094 1.9773798513909169 5.592875077755404 3.4249220454269933 1.6780214173390894e-08 2.998402756124426e-08 6.849844032202206" Properties=species:S:1:pos:R:3:forces:R:3 energy=-36.31529998779297 free_energy=-36.31529998779297 stress="-4.3195963371545076e-05 4.848152457270771e-08 1.6130856650420355e-08 4.848152457270771e-08 -4.3220359657425433e-05 -1.9971341913560536e-08 1.6130856650420355e-08 -1.9971341913560536e-08 -4.3197280319873244e-05" pbc="T T T"
Tl       1.97737976       1.39821883       3.42492195      -0.00000016      -0.00000032      -0.00000095
Tl       5.93213998       4.19465628      10.27476606       0.00000025       0.00000022       0.00000029
Mn       0.00000014       0.00000023       0.00000025      -0.00000022      -0.00000206      -0.00000368
Se       1.91814338       1.35633205       6.84984399       0.00191078       0.00135109      -0.00000003
Se       5.99137627       4.23654281       6.84984400      -0.00191027      -0.00135109       0.00000009
Se       4.97306759       1.35633169       5.08608222      -0.00095806       0.00135556       0.00166035
Se       2.93645141       4.23654315       8.61360577       0.00095679      -0.00135291      -0.00165725
Se       2.93645181       4.23654294       5.08608190       0.00095719      -0.00135294       0.00165763
Se       4.97306806       1.35633220       8.61360589      -0.00095612       0.00135264      -0.00165656
