9
Lattice="4.603770211288168 -1.0313771270269e-07 2.6579879491468885 1.5345899806373848 4.34047586750444 2.6579879362479844 2.6467041435754397e-08 2.9171429098523496e-09 5.315975852451458" Properties=species:S:1:pos:R:3:forces:R:3 energy=-46.061546325683594 free_energy=-46.061546325683594 stress="4.771417661686428e-05 3.696677595144138e-07 1.6711982198103215e-07 3.696677595144138e-07 4.737240305985324e-05 -5.137141556588176e-07 1.6711982198103215e-07 -5.137141556588176e-07 4.727864507003687e-05" pbc="T T T"
Tl       1.53459010       1.08511908       2.65798827       0.00000093      -0.00000276       0.00000054
Tl       4.60377061       3.25535650       7.97396398      -0.00000061       0.00000026      -0.00000028
Mn      -0.00000056       0.00000044      -0.00000100       0.00000878      -0.00001343       0.00002482
O        1.52699308       1.07974698       5.31597575      -0.00114143      -0.00080550       0.00000150
O        4.61136686       3.26072881       5.31597577       0.00114977       0.00081152       0.00000111
O        3.84027378       1.07974670       3.98040220       0.00056720      -0.00080222      -0.00097972
O        2.29808654       3.26072910       6.65154997      -0.00056958       0.00079781       0.00097841
O        2.29808667       3.26072880       3.98040292      -0.00058174       0.00081730      -0.00100154
O        3.84027353       1.07974682       6.65154933       0.00056708      -0.00080204       0.00097531
