9
Lattice="5.833444062680987 -1.0018120554013713e-06 3.367940694214163 1.9444806777982864 5.499823722520097 3.367940229870816 5.725318043545247e-08 -5.282180150346537e-07 6.735881289262899" Properties=species:S:1:pos:R:3:forces:R:3 energy=-41.301185607910156 free_energy=-41.301185607910156 stress="-0.0001043004886014387 -1.9704478404491965e-07 7.306551452757049e-08 -1.9704478404491965e-07 -0.00010412183473818004 -9.497229314092692e-08 7.306551452757049e-08 -9.497229314092692e-08 -0.00010398963058833033" pbc="T T T"
Tl       1.94448099       1.37495540       3.36794106       0.00000116       0.00000034       0.00000015
Tl       5.83344376       4.12486639      10.10382194      -0.00000061       0.00000034       0.00000051
Mo      -0.00000126      -0.00000059       0.00000226       0.00000525      -0.00000178      -0.00001578
S        1.88380436       1.33205079       6.73588114       0.00531575       0.00375698      -0.00000191
S        5.89411973       4.16777102       6.73588125      -0.00531782      -0.00376022      -0.00000247
S        4.89154184       1.33205134       4.99936459      -0.00265709       0.00375662       0.00459785
S        2.88638429       4.16777101       8.47239548       0.00264650      -0.00374260      -0.00458501
S        2.88638444       4.16777082       4.99936532       0.00265040      -0.00374670       0.00458584
S        4.89154113       1.33205270       8.47239578      -0.00264361       0.00373695      -0.00457919
