9
Lattice="6.206473763717548 4.3192813393456807e-07 3.5833099569402336 2.0688249152129163 5.851521290370444 3.5833100953632435 -3.725995819517227e-07 -9.393482461422659e-08 7.166620559241986" Properties=species:S:1:pos:R:3:forces:R:3 energy=-33.328338623046875 free_energy=-33.328338623046875 stress="-5.833241084474139e-05 -2.5755870325383512e-08 -7.989713779466001e-09 -2.5755870325383512e-08 -5.837728167534806e-05 5.116358892109929e-08 -7.989713779466001e-09 5.116358892109929e-08 -5.834855619468726e-05" pbc="T T T"
Tl       2.06882473       1.46288051       3.58331016       0.00000133      -0.00000273       0.00000020
Tl       6.20647376       4.38864102      10.74992988      -0.00000244       0.00000220       0.00000424
Mn       0.00000024      -0.00000002      -0.00000134       0.00000307       0.00000262      -0.00000245
Te       2.06767029       1.46206626       7.16662158       0.00759745       0.00537165      -0.00000001
Te       6.20762995       4.38945578       7.16662307      -0.00759925      -0.00537388      -0.00000098
Te       5.17263911       1.46206421       5.37396593      -0.00379768       0.00537118       0.00657752
Te       3.10265956       4.38945525       8.95927356       0.00379676      -0.00536980      -0.00657764
Te       3.10265672       4.38945709       5.37396569       0.00380077      -0.00537390       0.00658102
Te       5.17263887       1.46206640       8.95927396      -0.00379997       0.00537270      -0.00658187
