9
Lattice="4.535489160732196 5.453615318045492e-07 2.618565475082101 1.51183014125525 4.276100612754237 2.6185656364411303 1.6148191617498454e-07 3.1180852993196785e-07 5.237130670469412" Properties=species:S:1:pos:R:3:forces:R:3 energy=-37.69699478149414 free_energy=-37.69699478149414 stress="-0.00029765296494588256 4.311128520839702e-08 4.079219451114113e-08 4.311128520839702e-08 -0.00029769548564217985 -7.590181816397035e-09 4.079219451114113e-08 -7.590181816397035e-09 -0.0002977440017275512" pbc="T T T"
Tl       1.51183040       1.06902501       2.61856542      -0.00000012       0.00000009      -0.00000020
Tl       4.53548913       3.20707567       7.85569672       0.00000014      -0.00000061       0.00000072
Ni      -0.00000006       0.00000008       0.00000015      -0.00000069       0.00000190      -0.00000135
O        1.47657451       1.04409596       5.23713093       0.00644215       0.00455548       0.00000132
O        4.57074490       3.23200595       5.23713013      -0.00644463      -0.00455596      -0.00000011
O        3.79720219       1.04409667       3.89731589      -0.00322231       0.00455652       0.00557936
O        2.25011751       3.23200530       6.57694615       0.00322507      -0.00455759      -0.00558248
O        2.25011688       3.23200494       3.89731630       0.00321971      -0.00455713       0.00558392
O        3.79720219       1.04409649       6.57694537      -0.00321921       0.00455710      -0.00558122
