9
Lattice="4.703365578885618 -1.5573020861015947e-06 2.7154892694826738 1.5677875699130643 4.43437225454153 2.7154883829211918 7.122646569134358e-08 -1.035446616794379e-06 5.430978415597565" Properties=species:S:1:pos:R:3:forces:R:3 energy=-50.509735107421875 free_energy=-50.509735107421875 stress="-4.5506880269385874e-05 -1.437771288692602e-07 -4.739691306099303e-08 -1.437771288692602e-07 -4.526828706730157e-05 3.463982167772883e-08 -4.739691306099303e-08 3.463982167772883e-08 -4.512598752626218e-05" pbc="T T T"
Tl       1.56778877       1.10859188       2.71548888       0.00000578       0.00000441      -0.00000286
Tl       4.70336545       3.32577849       8.14646601      -0.00000037       0.00000917      -0.00000623
Nb      -0.00000007       0.00000212      -0.00000288       0.00000096      -0.00001396       0.00001691
O        1.62985927       1.15248307       5.43097851       0.00079262       0.00056291       0.00000571
O        4.64129347       3.28188512       5.43097879      -0.00078726      -0.00056577       0.00000875
O        3.88843329       1.15248423       4.12698965      -0.00039256       0.00054634       0.00067484
O        2.38271796       3.28188649       6.73496597       0.00039327      -0.00055617      -0.00068116
O        2.38271917       3.28188533       4.12698997       0.00038916      -0.00054604       0.00067461
O        3.88843500       1.15248046       6.73496791      -0.00040144       0.00055867      -0.00069070
