9
Lattice="6.179194882295049 8.194871017433854e-07 3.5675583514329032 2.0597321937235264 5.825798435735627 3.5675587088020526 -2.3648071836101057e-06 -1.2344844502230902e-06 7.135120798830238" Properties=species:S:1:pos:R:3:forces:R:3 energy=-29.59820556640625 free_energy=-29.59820556640625 stress="-0.00022864696802571416 -1.0590295573820185e-07 -8.25705281926048e-09 -1.0590295573820185e-07 -0.00022855617862660438 7.821170378008446e-09 -8.25705281926048e-09 7.821170378008446e-09 -0.00022848803200758994" pbc="T T T"
Tl       2.05973193       1.45644887       3.56756033       0.00000353       0.00000758      -0.00000232
Tl       6.17919116       4.36934740      10.70267865      -0.00000395      -0.00000256       0.00001731
Ni      -0.00000659      -0.00000560      -0.00001028       0.00005607       0.00003843       0.00003968
Te       2.13025762       1.50632112       7.13512294      -0.00659895      -0.00466692      -0.00000669
Te       6.10867307       4.31948367       7.13513173       0.00656044       0.00463634      -0.00000566
Te       5.11406601       1.50631270       5.41241800       0.00329215      -0.00466442      -0.00571136
Te       3.12486535       4.31947904       8.85781281      -0.00329566       0.00465105       0.00569230
Te       3.12485397       4.31948242       5.41242122      -0.00330084       0.00465655      -0.00571248
Te       5.11406511       1.50632277       8.85781613       0.00328719      -0.00465605       0.00568918
