9
Lattice="5.543692849548407 -1.348615852680359e-07 3.2006525909492725 1.8478975269971178 5.226644064385234 3.2006525257729024 -1.5681037176324533e-07 -1.9070622532503329e-07 6.401305453502197" Properties=species:S:1:pos:R:3:forces:R:3 energy=-33.5678825378418 free_energy=-33.5678825378418 stress="-1.1288365385553334e-05 -1.6341023467703053e-07 -4.3392258675112316e-08 -1.6341023467703053e-07 -1.1178194654348772e-05 5.3681162626162404e-08 -4.3392258675112316e-08 5.3681162626162404e-08 -1.1070391337852925e-05" pbc="T T T"
Tl       1.84789759       1.30666064       3.20065280      -0.00000106       0.00000117       0.00000008
Tl       5.54369270       3.91998306       9.60195794       0.00000035      -0.00000057       0.00000049
Ni       0.00000036       0.00000003      -0.00000046      -0.00000071      -0.00000898       0.00000074
S        1.77518245       1.25524356       6.40130551      -0.00087807      -0.00062284      -0.00000023
S        5.61640726       3.97140081       6.40130567       0.00088364       0.00062236      -0.00000086
S        4.65610085       1.25524453       4.73800641       0.00044650      -0.00062975      -0.00077149
S        2.73548953       3.97139914       8.06460288      -0.00044918       0.00063458       0.00077927
S        2.73548952       3.97139924       4.73800727      -0.00044584       0.00063097      -0.00077465
S        4.65610051       1.25524397       8.06460442       0.00044446      -0.00062698       0.00076675
