9
Lattice="6.439700999211229 7.27554032837124e-07 3.717962466136272 2.1465673422310894 6.071409099842771 3.7179630610101473 -3.961842501357477e-07 4.4842408758335497e-07 7.435925618483641" Properties=species:S:1:pos:R:3:forces:R:3 energy=-35.44075012207031 free_energy=-35.44075012207031 stress="5.4031370382290334e-05 7.818371017265235e-08 -5.546566939074182e-08 7.818371017265235e-08 5.398508801590651e-05 7.673909152572378e-08 -5.546566939074182e-08 7.673909152572378e-08 5.393619721871801e-05" pbc="T T T"
Tl       2.14656689       1.51785239       3.71796218       0.00000014      -0.00000011       0.00000018
Tl       6.43970109       4.55355794      11.15388889      -0.00000000       0.00000005      -0.00000000
Nb      -0.00000127       0.00000273       0.00000110       0.00000662      -0.00001566      -0.00000473
Te       2.26450067       1.60124418       7.43592488       0.00707616       0.00500560       0.00000031
Te       6.32176721       4.47016457       7.43592529      -0.00707469      -0.00499955      -0.00000013
Te       5.30745153       1.60124392       5.67907798      -0.00354192       0.00500887       0.00613136
Te       3.27881797       4.47016543       9.19277368       0.00353645      -0.00500200      -0.00612729
Te       3.27881615       4.47016640       5.67907672       0.00354253      -0.00500925       0.00613641
Te       5.30745157       1.60124353       9.19277385      -0.00354527       0.00501202      -0.00613601
