9
Lattice="4.792036426772916 -2.1697084003202432e-07 2.7666836931073377 1.5973454079219083 4.517974776513177 2.7666834560015383 2.8680232363082692e-08 -2.7011393899057313e-07 5.533367336538907" Properties=species:S:1:pos:R:3:forces:R:3 energy=-50.98957824707031 free_energy=-50.98957824707031 stress="0.00023306981893256307 4.38140723701963e-08 2.640306107082324e-08 4.38140723701963e-08 0.0002330090501345694 -2.0277305168292514e-08 2.640306107082324e-08 -2.0277305168292514e-08 0.00023304605565499514" pbc="T T T"
Tl       1.59734526       1.12949333       2.76668340       0.00000024      -0.00000175      -0.00000027
Tl       4.79203684       3.38848042       8.30005054       0.00000012      -0.00000081       0.00000023
Os      -0.00000010      -0.00000037       0.00000031       0.00000013       0.00000633      -0.00000243
O        1.52563523       1.07878672       5.53336730       0.00088447       0.00062492       0.00000015
O        4.86374621       3.43918818       5.53336692      -0.00088495      -0.00062594       0.00000183
O        4.02921914       1.07878696       4.08792258      -0.00044265       0.00062853       0.00076643
O        2.36016298       3.43918746       6.97881211       0.00044397      -0.00063065      -0.00076902
O        2.36016327       3.43918789       4.08792263       0.00044292      -0.00062817       0.00077003
O        4.02921919       1.07878608       6.97881164      -0.00044399       0.00062722      -0.00076768
