9
Lattice="5.829534723954583 -1.027551962921219e-06 3.3656837505176367 1.9431770010272165 5.496138542695208 3.3656842207792055 -1.576076803752883e-09 5.748359639817749e-07 6.731367503765087" Properties=species:S:1:pos:R:3:forces:R:3 energy=-29.446533203125 free_energy=-29.446533203125 stress="-0.0001876585156423971 1.5490975613374758e-07 -3.2387049486715114e-08 1.5490975613374758e-07 -0.00018767420260701329 -1.8779976684868416e-08 -3.2387049486715114e-08 -1.8779976684868416e-08 -0.00018763446132652462" pbc="T T T"
Tl       1.94317810       1.37403460       3.36568380       0.00000036      -0.00000035      -0.00000011
Tl       5.82953387       4.12210398      10.09705142      -0.00000040      -0.00000047       0.00000012
Pb      -0.00000050      -0.00000149      -0.00000056       0.00000002       0.00001100       0.00000684
S        2.13811872       1.51187899       6.73136710      -0.00095254      -0.00067427      -0.00000054
S        5.63459248       3.98425831       6.73136835       0.00095236       0.00067288       0.00000051
S        4.76047604       1.51187682       5.21735012       0.00047788      -0.00067975      -0.00082898
S        3.01223583       3.98426242       8.24538618      -0.00047672       0.00067265       0.00082144
S        3.01223585       3.98426082       5.21734967      -0.00047812       0.00067431      -0.00082461
S        4.76047663       1.51187777       8.24538585       0.00047719      -0.00067598       0.00082526
