9
Lattice="4.680621053703589 -2.0116321784788398e-07 2.7023578620850377 1.5602068061271854 4.412931945843331 2.70235790039019 -3.575640561409232e-07 -2.0592187595246883e-07 5.404716343489147" Properties=species:S:1:pos:R:3:forces:R:3 energy=-40.91358184814453 free_energy=-40.91358184814453 stress="0.0007933276938274503 -6.446405365068131e-08 -3.4784534364007413e-08 -6.446405365068131e-08 0.0007932593580335379 -2.9696964887193644e-08 -3.4784534364007413e-08 -2.9696964887193644e-08 0.0007935065077617764" pbc="T T T"
Tl       1.56020740       1.10323234       2.70235813      -0.00000074      -0.00000346       0.00000195
Tl       4.68062025       3.30969860       8.10707343      -0.00000082       0.00000049      -0.00000121
Pt      -0.00000060      -0.00000008       0.00000032       0.00002125      -0.00000158      -0.00003919
O        1.56672523       1.10784188       5.40471572       0.00021540       0.00015396      -0.00000151
O        4.67410242       3.30508984       5.40471550      -0.00022803      -0.00016218      -0.00000190
O        3.89725870       1.10784132       4.05918279      -0.00011430       0.00016531       0.00020108
O        2.34357001       3.30508993       6.75024952       0.00010245      -0.00014277      -0.00017439
O        2.34356918       3.30509004       4.05918248       0.00011242      -0.00015992       0.00019166
O        3.89725711       1.10784232       6.75024964      -0.00010742       0.00015046      -0.00017628
