9
Lattice="5.088103794603354 -9.923777713946661e-09 2.9376182491970804 1.6960346060709213 4.797110411273008 2.9376182193607634 5.9388926463871366e-08 5.45240084837472e-09 5.875236395529471" Properties=species:S:1:pos:R:3:forces:R:3 energy=-39.70148468017578 free_energy=-39.70148468017578 stress="0.00028282016864977777 -1.2124316128847568e-07 3.362557521313647e-08 -1.2124316128847568e-07 0.00028290750924497843 -2.2999719462291068e-08 3.362557521313647e-08 -2.2999719462291068e-08 0.0002830284065566957" pbc="T T T"
Tl       1.69603470       1.19927759       2.93761823      -0.00000268       0.00000321      -0.00000285
Tl       5.08810379       3.59783279       8.81285445      -0.00000192       0.00000324      -0.00000312
Pd      -0.00000191       0.00000260      -0.00000251       0.00026028      -0.00033900       0.00030243
O        1.49107633       1.05435032       5.87523638      -0.00557798      -0.00395387       0.00000570
O        5.29306230       3.74276015       5.87523651       0.00557059       0.00393152       0.00000468
O        4.34256574       1.05435001       4.22892821       0.00277597      -0.00392544      -0.00479746
O        2.44157279       3.74275997       7.52154432      -0.00280634       0.00396979       0.00487387
O        2.44157337       3.74275895       4.22893006      -0.00290078       0.00410473      -0.00502920
O        4.34256671       1.05434910       7.52154592       0.00268251      -0.00379449       0.00464529
