9
Lattice="5.560288912961378 -1.7384001348993796e-07 3.210234461618848 1.8534295381154262 5.242289558854862 3.2102343501448276 8.6190574913463e-08 -7.55813730297385e-08 6.420468773951264" Properties=species:S:1:pos:R:3:forces:R:3 energy=-34.70146179199219 free_energy=-34.70146179199219 stress="-2.3421618607244454e-05 -1.136546590174703e-08 -4.171790468632253e-09 -1.136546590174703e-08 -2.3443462850991637e-05 4.009405252247689e-09 -4.171790468632253e-09 4.009405252247689e-09 -2.3377993784379214e-05" pbc="T T T"
Tl       1.85342961       1.31057248       3.21023441       0.00000070      -0.00000039       0.00000026
Tl       5.56028888       3.93171697       9.63070299       0.00000020       0.00000078       0.00000033
Pt      -0.00000042      -0.00000062      -0.00000024       0.00000504       0.00000190       0.00000557
S        1.88892866       1.33567536       6.42046892       0.00085455       0.00060335      -0.00000071
S        5.52478831       3.90661457       6.42046886      -0.00085527      -0.00060448      -0.00000025
S        4.61582506       1.33567495       4.84609561      -0.00042787       0.00060242       0.00073907
S        2.79789482       3.90661412       7.99484212       0.00042617      -0.00060427      -0.00073910
S        2.79789480       3.90661452       4.84609545       0.00042602      -0.00060356       0.00073770
S        4.61582465       1.33567481       7.99484233      -0.00042936       0.00060454      -0.00074288
