9
Lattice="5.823675368819907 -1.1323920229932383e-07 3.362300188512346 1.9412249679183018 5.490614393251594 3.3623002720989694 -1.3402840752952762e-08 9.289502570026653e-08 6.724600400239059" Properties=species:S:1:pos:R:3:forces:R:3 energy=-31.373916625976562 free_energy=-31.373916625976562 stress="-0.0002403490652795881 1.6987561579639987e-08 2.5378041001999918e-08 1.6987561579639987e-08 -0.00024028132611420006 -1.7714643973931743e-08 2.5378041001999918e-08 -1.7714643973931743e-08 -0.00024032780493143946" pbc="T T T"
Tl       1.94122497       1.37265372       3.36230010      -0.00000033       0.00000414      -0.00000001
Tl       5.82367537       4.11796064      10.08690024      -0.00000094       0.00000030       0.00000038
P       -0.00000008       0.00000016       0.00000004       0.00001109      -0.00000654      -0.00000275
Se       1.89494315       1.33992720       6.72460033       0.00829506       0.00586528      -0.00000045
Se       5.86995688       4.15068859       6.72460081      -0.00830007      -0.00586879       0.00000007
Se       4.87620379       1.33992606       5.00336842      -0.00415160       0.00586978       0.00719026
Se       2.88869672       4.15068749       8.44583140       0.00414845      -0.00586593      -0.00718445
Se       2.88869688       4.15068748       5.00336968       0.00414790      -0.00586644       0.00718462
Se       4.87620367       1.33992645       8.44583254      -0.00414945       0.00586817      -0.00718781
