9
Lattice="4.502268868361238 -2.6978209095363944e-07 2.5993857091784673 1.5007561313248847 4.244779010304301 2.599385542513427 -3.3610972404789224e-08 -2.278887422477755e-07 5.198771476572889" Properties=species:S:1:pos:R:3:forces:R:3 energy=-46.68152618408203 free_energy=-46.68152618408203 stress="-0.00010358436702517793 -7.456944217665296e-08 -7.80148781132084e-08 -7.456944217665296e-08 -0.0001036168760037981 -1.9305121057300312e-08 -7.80148781132084e-08 -1.9305121057300312e-08 -0.00010354773985454813" pbc="T T T"
Tl       1.50075631       1.06119505       2.59938585       0.00000039       0.00000100       0.00000602
Tl       4.50226849       3.18358420       7.79815771       0.00000014       0.00000086       0.00000532
P        0.00000031      -0.00000032       0.00000356      -0.00000075       0.00000317       0.00001931
O        1.39433719       0.98594505       5.19877087       0.00301361       0.00213289      -0.00000450
O        4.60868799       3.25883357       5.19877038      -0.00301623      -0.00213611      -0.00000295
O        3.80509957       0.98594488       3.80691658      -0.00150585       0.00212872       0.00260615
O        2.19792488       3.25883321       6.59062491       0.00150907      -0.00213373      -0.00261748
O        2.19792501       3.25883355       3.80691611       0.00150704      -0.00213170       0.00260842
O        3.80510016       0.98594460       6.59062487      -0.00150740       0.00213432      -0.00261855
