9
Lattice="6.782213147786319 1.1010288182894867e-07 3.9157126126859065 2.2607377961997552 6.394332084874299 3.915712653449683 -3.926892494934857e-08 2.2157890349734008e-08 7.831425293387565" Properties=species:S:1:pos:R:3:forces:R:3 energy=-27.42770767211914 free_energy=-27.42770767211914 stress="-2.0513021809165366e-05 -1.4121450675474989e-08 5.6679478888099766e-09 -1.4121450675474989e-08 -2.0520306861726567e-05 1.5694444008285124e-11 5.6679478888099766e-09 1.5694444008285124e-11 -2.0504972781054676e-05" pbc="T T T"
Tl       2.26073786       1.59858301       3.91571243       0.00000020       0.00000029       0.00000012
Tl       6.78221302       4.79574937      11.74713786      -0.00000022       0.00000001      -0.00000003
Pb       0.00000047      -0.00000015       0.00000072      -0.00000067       0.00000033      -0.00000166
Te       2.59659065       1.83606663       7.83142533       0.00061594       0.00043496       0.00000065
Te       6.44635977       4.55826501       7.83142500      -0.00061539      -0.00043551       0.00000071
Te       5.48391714       1.83606777       6.16442696      -0.00030761       0.00043481       0.00053298
Te       3.55903343       4.55826493       9.49842401       0.00030822      -0.00043560      -0.00053240
Te       3.55903385       4.55826476       6.16442642       0.00030749      -0.00043482       0.00053258
Te       5.48391742       1.83606753       9.49842352      -0.00030797       0.00043555      -0.00053304
