9
Lattice="5.8761164222301545 9.8368962662965e-08 3.3925771125942554 1.9587056357900838 5.540054817185631 3.3925769931343144 7.028486341481246e-08 -9.660901158697663e-08 6.785154103451544" Properties=species:S:1:pos:R:3:forces:R:3 energy=-31.313264846801758 free_energy=-31.313264846801758 stress="2.6821307983482257e-05 1.8558171888116703e-08 -1.574748864641151e-08 1.8558171888116703e-08 2.685084291442763e-05 5.885931297910929e-09 -1.574748864641151e-08 5.885931297910929e-09 2.679743010958191e-05" pbc="T T T"
Tl       1.95870552       1.38501394       3.39257707       0.00000213       0.00000061       0.00000003
Tl       5.87611675       4.15504108      10.17773129       0.00000005      -0.00000238       0.00000018
Pd      -0.00000000       0.00000005      -0.00000040      -0.00000090       0.00000281       0.00000471
Se       2.06710541       1.46166329       6.78515425       0.00306097       0.00216424      -0.00000058
Se       5.76771686       4.07839119       6.78515441      -0.00306234      -0.00216515       0.00000001
Se       4.84256431       1.46166273       5.18274244      -0.00153109       0.00216535       0.00265150
Se       2.99225784       4.07839182       8.38756612       0.00153255      -0.00216720      -0.00265439
Se       2.99225766       4.07839218       5.18274175       0.00153130      -0.00216575       0.00265220
Se       4.84256432       1.46166294       8.38756592      -0.00153270       0.00216739      -0.00265372
