9
Lattice="5.575693846961032 1.3508425770974606e-07 3.2191285647990138 1.858564788493738 5.256813909003793 3.2191284860228335 2.1773144445359268e-07 5.7478632082373964e-08 6.438256752476084" Properties=species:S:1:pos:R:3:forces:R:3 energy=-32.48512649536133 free_energy=-32.48512649536133 stress="-4.4093598262406886e-05 3.9788933037243623e-08 -4.4274561794566125e-09 3.9788933037243623e-08 -4.408805398270488e-05 1.8405132973242644e-09 -4.4274561794566125e-09 1.8405132973242644e-09 -4.41116644651629e-05" pbc="T T T"
Tl       1.85856496       1.31420326       3.21912856      -0.00000076       0.00000002      -0.00000028
Tl       5.57569404       3.94261038       9.65738503       0.00000044       0.00000044       0.00000081
Pd       0.00000089       0.00000006       0.00000047      -0.00001256      -0.00000163      -0.00000596
S        1.93024715       1.36488992       6.43825659      -0.00052106      -0.00036973       0.00000056
S        5.50401168       3.89192387       6.43825733       0.00052875       0.00037342       0.00000042
S        4.61057048       1.36489004       4.89077040       0.00026178      -0.00036937      -0.00045282
S        2.82368820       3.89192398       7.98574274      -0.00026089       0.00036967       0.00045401
S        2.82368750       3.89192378       4.89077097      -0.00025922       0.00036818      -0.00045180
S        4.61057103       1.36489102       7.98574335       0.00026330      -0.00037086       0.00045472
