9
Lattice="6.124576693651991 -2.8467226706147986e-07 3.5360262069315596 2.0415252034786806 5.774306703774579 3.536026367458641 -5.209784896254234e-09 1.9292082143718642e-07 7.072052422886837" Properties=species:S:1:pos:R:3:forces:R:3 energy=-29.227670669555664 free_energy=-29.227670669555664 stress="4.304571484681219e-05 4.02841671132137e-08 -2.3421206307716602e-08 4.02841671132137e-08 4.2988755012629554e-05 -2.6506634664968942e-09 -2.3421206307716602e-08 -2.6506634664968942e-09 4.3048072257079184e-05" pbc="T T T"
Tl       2.04152545       1.44357584       3.53602648       0.00000072       0.00000051      -0.00000023
Tl       6.12457723       4.33072978      10.60807865       0.00000073       0.00000003      -0.00000008
Pb       0.00000066      -0.00000048      -0.00000061      -0.00000202       0.00000225       0.00000178
Se       2.44678618       1.73013755       7.07205219       0.00164013       0.00115523      -0.00000223
Se       5.71931339       4.04416434       7.07205265      -0.00164555      -0.00116690      -0.00000057
Se       4.90118320       1.73014090       5.65500892      -0.00082090       0.00116371       0.00142863
Se       3.26491876       4.04416925       8.48910118       0.00082269      -0.00115793      -0.00142155
Se       3.26491872       4.04416871       5.65500418       0.00082192      -0.00115862       0.00142067
Se       4.90118399       1.73014065       8.48909639      -0.00081772       0.00116178      -0.00142636
