9
Lattice="4.968852279396555 -1.2782420525204037e-07 2.8687679558184627 1.6562839445859574 4.684678728354526 2.868768004372144 -1.8156384578439498e-07 -6.891918004057566e-08 5.737536226114757" Properties=species:S:1:pos:R:3:forces:R:3 energy=-36.92066192626953 free_energy=-36.92066192626953 stress="8.726260602998082e-06 2.6253006879528584e-08 1.9364621905992863e-08 2.6253006879528584e-08 8.706906555744354e-06 7.430828219412433e-08 1.9364621905992863e-08 7.430828219412433e-08 8.668694135849364e-06" pbc="T T T"
Tl       1.65628387       1.17116952       2.86876799      -0.00000051      -0.00000032      -0.00000080
Tl       4.96885199       3.51350881       8.60630314      -0.00000073      -0.00000108      -0.00000404
Pb      -0.00000020      -0.00000002      -0.00000043       0.00000101      -0.00000399       0.00000441
O        1.71872488       1.21532205       5.73753629      -0.00079459      -0.00056234       0.00000045
O        4.90641046       3.46935598       5.73753699       0.00079986       0.00056446       0.00000311
O        4.10948961       1.21532227       4.35722734       0.00039795      -0.00056449      -0.00068989
O        2.51564675       3.46935654       7.11784454      -0.00039995       0.00056431       0.00069106
O        2.51564661       3.46935667       4.35722729      -0.00039873       0.00056392      -0.00069016
O        4.10948993       1.21532218       7.11784537       0.00039572      -0.00056046       0.00068575
