9
Lattice="5.640922353626686 5.832423806103716e-07 3.256789009959121 1.8803080039100093 5.3183121866812995 3.25678900508353 8.311253257207545e-07 5.817230195418861e-07 6.51357658036688" Properties=species:S:1:pos:R:3:forces:R:3 energy=-42.5723762512207 free_energy=-42.5723762512207 stress="2.4651162675581872e-05 -4.536767850282786e-09 2.1688883578008245e-08 -4.536767850282786e-09 2.466848491167184e-05 -5.345603959483469e-09 2.1688883578008245e-08 -5.345603959483469e-09 2.4586321160313673e-05" pbc="T T T"
Tl       1.88030775       1.32957840       3.25678871      -0.00000053      -0.00000065      -0.00000042
Tl       5.64092322       3.98873505       9.77036593       0.00000084       0.00000081       0.00000019
Re       0.00000023       0.00000076       0.00000040      -0.00000019      -0.00000386       0.00000030
S        1.89674286       1.34120003       6.51357624      -0.00000542      -0.00000405      -0.00000039
S        5.62448854       3.97711364       6.51357775       0.00000584       0.00000501       0.00000133
S        4.69255184       1.34120023       4.89941590       0.00000301      -0.00000423      -0.00000411
S        2.82867945       3.97711308       8.12773901      -0.00000268       0.00000477       0.00000507
S        2.82867924       3.97711252       4.89941585      -0.00000417       0.00000638      -0.00000626
S        4.69255150       1.34120018       8.12773921       0.00000355      -0.00000411       0.00000525
