9
Lattice="5.830557233793945 3.8570934136730866e-07 3.366273971370522 1.9435194586930635 5.497102304624835 3.366273941732424 5.848149280750315e-08 5.053627204947813e-09 6.732547841448041" Properties=species:S:1:pos:R:3:forces:R:3 energy=-35.99421310424805 free_energy=-35.99421310424805 stress="-0.00010462632053531706 3.941420345654478e-08 4.058117841765352e-09 3.941420345654478e-08 -0.00010466136154718697 -1.8915040644884584e-09 4.058117841765352e-09 -1.8915040644884584e-09 -0.00010470257984707132" pbc="T T T"
Tl       1.94351895       1.37427614       3.36627395      -0.00000008      -0.00000059      -0.00000007
Tl       5.83055748       4.12282702      10.09882184       0.00000083       0.00000036       0.00000091
Ru      -0.00000098       0.00000024      -0.00000018       0.00000155      -0.00000221       0.00000032
Se       2.01592239       1.42547215       6.73254772      -0.00701369      -0.00495955      -0.00000012
Se       5.75815460       4.07162992       6.73254802       0.00701462       0.00496041      -0.00000117
Se       4.82259660       1.42547221       5.11211342       0.00350448      -0.00495686      -0.00607030
Se       2.95148066       4.07163030       8.35298207      -0.00350619       0.00495809       0.00607141
Se       2.95148077       4.07163027       5.11211362      -0.00350592       0.00495754      -0.00607146
Se       4.82259659       1.42547250       8.35298248       0.00350448      -0.00495718       0.00607039
