9
Lattice="5.489568660104536 -2.2070954175882717e-07 3.1694049110383515 1.8298561213918394 5.175615029129181 3.169404721475856 3.0716765888435776e-07 -1.4965343105078608e-08 6.338809290046681" Properties=species:S:1:pos:R:3:forces:R:3 energy=-37.91218566894531 free_energy=-37.91218566894531 stress="-0.00048353071906603873 -4.1360532776479886e-08 1.0021307339513896e-08 -4.1360532776479886e-08 -0.0004835394211113453 -3.187070163335193e-08 1.0021307339513896e-08 -3.187070163335193e-08 -0.0004835117724724114" pbc="T T T"
Tl       1.82985641       1.29390353       3.16940453      -0.00000149       0.00000123      -0.00000176
Tl       5.48956862       3.88171118       9.50821399       0.00000189      -0.00000076       0.00000037
Ru       0.00000298      -0.00000130      -0.00000360       0.00000693      -0.00000294      -0.00000920
S        1.89139437       1.33741768       6.33880992       0.00628185       0.00444299       0.00000139
S        5.42802974       3.83819816       6.33881068      -0.00628513      -0.00444633       0.00000063
S        4.54387085       1.33741801       4.80740047      -0.00314194       0.00444567       0.00544584
S        2.77555346       3.83819714       7.87021918       0.00313845      -0.00444043      -0.00543779
S        2.77555322       3.83819670       4.80740099       0.00313944      -0.00444075       0.00543958
S        4.54387088       1.33741777       7.87021940      -0.00313976       0.00444111      -0.00543928
