9
Lattice="4.914339364228414 -2.0133303634070815e-06 2.837293404742498 1.6381121840476163 4.633279222903113 2.8372917405461395 1.7935771954145572e-07 -1.9113907191716956e-06 5.674586498828219" Properties=species:S:1:pos:R:3:forces:R:3 energy=-53.31016159057617 free_energy=-53.31016159057617 stress="0.00032017449848353863 -2.829270044912846e-07 3.195847497750037e-08 -2.829270044912846e-07 0.00031991174910217524 -1.0896243196611977e-07 3.195847497750037e-08 -1.0896243196611977e-07 0.00032017717603594065" pbc="T T T"
Tl       1.63811408       1.15831973       2.83729192       0.00000548      -0.00000163      -0.00000009
Tl       4.91433860       3.47495544       8.51187810      -0.00000257       0.00000288      -0.00000093
Re       0.00000103       0.00000115       0.00000114      -0.00000743      -0.00001374      -0.00001224
O        1.55868201       1.10215086       5.67458600       0.00029612       0.00022674      -0.00000018
O        4.99376956       3.53112334       5.67458610      -0.00028479      -0.00021815       0.00000083
O        4.13499664       1.10215126       4.18715091      -0.00014037       0.00020981       0.00025439
O        2.41745522       3.53112363       7.16201942       0.00013274      -0.00020266      -0.00024343
O        2.41745608       3.53112506       4.18715064       0.00013626      -0.00019979       0.00024223
O        4.13499591       1.10215082       7.16202139      -0.00013673       0.00019562      -0.00023937
