9
Lattice="5.820145785253039 -6.241398422018979e-08 3.3602625395506585 1.9400486533968724 5.48728586873129 3.360262336628702 1.3088388739215186e-07 -1.559787004013092e-07 6.720524852403771" Properties=species:S:1:pos:R:3:forces:R:3 energy=-34.2471809387207 free_energy=-34.2471809387207 stress="3.276245843153447e-05 1.5830028843311084e-08 7.10543943682751e-08 1.5830028843311084e-08 3.2760024623712525e-05 -7.038158855721122e-08 7.10543943682751e-08 -7.038158855721122e-08 3.270214074291289e-05" pbc="T T T"
Tl       1.94004866       1.37182114       3.36026211       0.00000155      -0.00000186       0.00000144
Tl       5.82014582       4.11546429      10.08078745      -0.00000010      -0.00000027      -0.00000071
Rh      -0.00000217      -0.00000259      -0.00000495       0.00002347       0.00002689       0.00004529
Se       2.01262119       1.42313815       6.72052533      -0.00274381      -0.00194036      -0.00000271
Se       5.74757516       4.06414883       6.72052499       0.00271985       0.00192410      -0.00000052
Se       4.81383646       1.42313707       5.10324339       0.00136634      -0.00193676      -0.00237284
Se       2.94635789       4.06414990       8.33780921      -0.00135697       0.00191794       0.00234855
Se       2.94635905       4.06414887       5.10324329      -0.00137157       0.00193591      -0.00237571
Se       4.81383616       1.42313690       8.33780806       0.00136136      -0.00192571       0.00235722
