9
Lattice="4.524357977163278 -2.661600140154673e-06 2.6121377421426413 1.508117254074906 4.265601523408356 2.612136983962647 -8.761196480207088e-07 -1.5480869712402532e-06 5.224277001768293" Properties=species:S:1:pos:R:3:forces:R:3 energy=-40.34395980834961 free_energy=-40.34395980834961 stress="7.840584294172004e-05 -1.3571738577411452e-07 -9.470139872291838e-08 -1.3571738577411452e-07 7.795899728080258e-05 -1.8227825648864382e-07 -9.470139872291838e-08 -1.8227825648864382e-07 7.803917833371088e-05" pbc="T T T"
Tl       1.50810323       1.06638804       2.61216417      -0.00007662      -0.00004098       0.00017851
Tl       4.52434610       3.19919449       7.83643855      -0.00008565      -0.00004791       0.00017814
Se      -0.00003879      -0.00002050       0.00008456      -0.00000039      -0.00000620      -0.00000360
O        1.49660250       1.05825934       5.22425432      -0.00026512      -0.00018120      -0.00009644
O        4.53588652       3.20735066       5.22425121       0.00024736       0.00015783      -0.00010558
O        3.77606497       1.05826285       3.90821398       0.00014281      -0.00011855      -0.00026715
O        2.25642629       3.20735939       6.54029110      -0.00013161       0.00028759       0.00020337
O        2.25643606       3.20734551       3.90820512      -0.00003940       0.00015366      -0.00029671
O        3.77607013       1.05825646       6.54029666       0.00020790      -0.00020450       0.00020945
