9
Lattice="6.592055392287326 -3.15091793165255e-07 3.805925213283018 2.197351452054908 6.215049017889627 3.805925296945838 1.0651289680609124e-07 1.7778171124612446e-07 7.611850242080255" Properties=species:S:1:pos:R:3:forces:R:3 energy=-28.029340744018555 free_energy=-28.029340744018555 stress="1.1544604603841435e-05 1.1200363303487393e-08 -2.3395807513537648e-09 1.1200363303487393e-08 1.1533395081642084e-05 7.61080887201615e-09 -2.3395807513537648e-09 7.61080887201615e-09 1.1528579307196196e-05" pbc="T T T"
Tl       2.19735245       1.55376310       3.80592539      -0.00000017      -0.00000022       0.00000037
Tl       6.59205447       4.66128577      11.41777536       0.00000027       0.00000002       0.00000017
Sn       0.00000300       0.00000164       0.00000268      -0.00001072      -0.00000616      -0.00001114
Te       2.41747231       1.70941093       7.61185021      -0.00078040      -0.00055143       0.00000067
Te       6.37192993       4.50563473       7.61185044       0.00079256       0.00056051       0.00000059
Te       5.38331952       1.70941188       5.89951830       0.00039209      -0.00055516      -0.00067987
Te       3.40608902       4.50563692       9.32418135      -0.00039479       0.00055614       0.00068282
Te       3.40608803       4.50563769       5.89951836      -0.00039241       0.00055392      -0.00067817
Te       5.38331891       1.70941265       9.32418078       0.00039349      -0.00055765       0.00068443
