9
Lattice="5.969473817374058 1.7056108710953222e-07 3.446477633814842 1.989824662445436 5.62807403335736 3.4464778142122787 1.2317053939976263e-07 3.0803548063680976e-07 6.892955054292048" Properties=species:S:1:pos:R:3:forces:R:3 energy=-30.09288787841797 free_energy=-30.09288787841797 stress="-7.765748887322843e-05 -2.8718908140490385e-08 -2.4201341375373886e-08 -2.8718908140490385e-08 -7.771029049763456e-05 -1.3388784303458579e-08 -2.4201341375373886e-08 -1.3388784303458579e-08 -7.780447049299255e-05" pbc="T T T"
Tl       1.98982461       1.40701914       3.44647787      -0.00000087      -0.00000090      -0.00000085
Tl       5.96947340       4.22105593      10.33943277       0.00000137      -0.00000105      -0.00000031
Sn      -0.00000008      -0.00000012       0.00000039       0.00000062      -0.00000021      -0.00000101
Se       2.32104754       1.64122778       6.89295473      -0.00369807      -0.00261682      -0.00000085
Se       5.63825235       3.98684650       6.89295552       0.00370021       0.00261704       0.00000111
Se       4.80894900       1.64122818       5.45656282       0.00184803      -0.00261575      -0.00320461
Se       3.15034856       3.98684712       8.32934876      -0.00184987       0.00261671       0.00320683
Se       3.15034852       3.98684542       5.45656198      -0.00184996       0.00261641      -0.00320498
Se       4.80895032       1.64122819       8.32934741       0.00184856      -0.00261544       0.00320464
