9
Lattice="4.479725915136993 2.472563362721618e-07 2.5863715228175224 1.4932422091938358 4.223526528103948 2.5863715152554674 4.6976496911727394e-08 2.3955752501608157e-08 5.172742964269389" Properties=species:S:1:pos:R:3:forces:R:3 energy=-44.036865234375 free_energy=-44.036865234375 stress="-0.00030347058782353997 7.817498470785722e-08 -9.531422762165676e-09 7.817498470785722e-08 -0.00030311752925626934 -7.131789203640437e-08 -9.531422762165676e-09 -7.131789203640437e-08 -0.00030325783882290125" pbc="T T T"
Tl       1.49324204       1.05588146       2.58637168       0.00000042       0.00000092       0.00000090
Tl       4.47972633       3.16764562       7.75911517       0.00000012      -0.00000179      -0.00000190
S       -0.00000092       0.00000015       0.00000103       0.00000779      -0.00000164      -0.00000624
O        1.32480387       0.93677733       5.17274270      -0.00055909      -0.00039208       0.00000034
O        4.64816435       3.28674886       5.17274241       0.00055516       0.00039721       0.00000256
O        3.81732435       0.93677782       3.73368542       0.00027549      -0.00039279      -0.00048280
O        2.15564409       3.28674922       6.61180114      -0.00027591       0.00039053       0.00048089
O        2.15564434       3.28674838       3.73368540      -0.00028265       0.00039458      -0.00048459
O        3.81732447       0.93677840       6.61180009       0.00027919      -0.00039482       0.00049007
