9
Lattice="5.628214020759618 3.441320552398154e-08 3.249450985846451 1.8760712559240922 5.306331746798289 3.249451188105298 -3.0534832187677774e-07 3.180167881565691e-08 6.498902500571508" Properties=species:S:1:pos:R:3:forces:R:3 energy=-33.26730728149414 free_energy=-33.26730728149414 stress="-2.2345771867549047e-05 1.6226636034843978e-08 -9.83653780650684e-09 1.6226636034843978e-08 -2.2361156879924238e-05 3.3488671391523894e-08 -9.83653780650684e-09 3.3488671391523894e-08 -2.234434214187786e-05" pbc="T T T"
Tl       1.87607129       1.32658276       3.24945100       0.00000022       0.00000063       0.00000202
Tl       5.62821356       3.97974835       9.74835357       0.00000057       0.00000092      -0.00000035
Si      -0.00000045       0.00000066       0.00000012       0.00000314      -0.00000045      -0.00000427
S        1.85657482       1.31279681       6.49890240       0.00105393       0.00074530      -0.00000288
S        5.64771042       3.99353528       6.49890251      -0.00105739      -0.00074714      -0.00000189
S        4.69992737       1.31279611       4.85729236      -0.00053000       0.00074920       0.00091600
S        2.80435837       3.99353414       8.14051305       0.00052589      -0.00074440      -0.00091332
S        2.80435832       3.99353613       4.85729142       0.00052989      -0.00074944       0.00091809
S        4.69992617       1.31279694       8.14051212      -0.00052583       0.00074545      -0.00091356
