9
Lattice="4.525562158232915 -1.3456593520351752e-06 2.6128444788830762 1.5085177161803793 4.266749462779622 2.6128474831775743 -1.7452898414675606e-06 2.445389178166554e-06 5.225691980694624" Properties=species:S:1:pos:R:3:forces:R:3 energy=-46.303585052490234 free_energy=-46.303585052490234 stress="5.781018262496218e-05 6.35785340818984e-07 -7.306436486942403e-07 6.35785340818984e-07 5.761374632129446e-05 6.075315468478948e-07 -7.306436486942403e-07 6.075315468478948e-07 5.672364204656333e-05" pbc="T T T"
Tl       1.50851740       1.06668598       2.61284750       0.00003715       0.00001783       0.00002219
Tl       4.52556627       3.20006331       7.83854011       0.00004092       0.00001937       0.00002377
Si       0.00003374       0.00001718       0.00002114      -0.00061887      -0.00030457      -0.00034519
O        1.44233354       1.01988066       5.22568633      -0.00095558      -0.00070214       0.00002153
O        4.59170940       3.24682462       5.22569716       0.00149500       0.00107956      -0.00001883
O        3.80438254       1.01989767       3.86194763       0.00056428      -0.00081825      -0.00099182
O        2.22968873       3.24685350       6.58942063      -0.00065535       0.00088012       0.00107431
O        2.22968225       3.24686798       3.86194675      -0.00050801       0.00073981      -0.00086308
O        3.80439434       1.01990766       6.58942644       0.00060087      -0.00091136       0.00107670
