9
Lattice="4.650298973407681 1.636751155227703e-07 2.6848512747882674 1.550099784800095 4.384343952460361 2.6848513221022845 -2.529648049289802e-07 -1.2092541648865776e-07 5.369702987724397" Properties=species:S:1:pos:R:3:forces:R:3 energy=-39.82191848754883 free_energy=-39.82191848754883 stress="-0.00017047516303136945 2.3328537679390138e-07 -3.4869302112383593e-08 2.3328537679390138e-07 -0.00017057772492989898 -1.2433032381409248e-08 -3.4869302112383593e-08 -1.2433032381409248e-08 -0.000170803556102328" pbc="T T T"
Tl       1.55009928       1.09608509       2.68485150      -0.00000015      -0.00000008       0.00000123
Tl       4.65029875       3.28825925       8.05455464       0.00000059       0.00000144       0.00000062
Sn       0.00000058       0.00000044       0.00000021      -0.00001132      -0.00001194      -0.00000301
O        1.65833013       1.17261594       5.36970286       0.00456542       0.00322640      -0.00000192
O        4.54206792       3.21172807       5.36970238      -0.00455654      -0.00321758      -0.00000215
O        3.82113546       1.17261567       4.12100669      -0.00228313       0.00323480       0.00395960
O        2.37926403       3.21172826       6.61839837       0.00228211      -0.00322729      -0.00395536
O        2.37926396       3.21172780       4.12100599       0.00228432      -0.00323504       0.00395566
O        3.82113393       1.17261557       6.61839832      -0.00228196       0.00322956      -0.00395465
