9
Lattice="6.367856394370198 -3.431957146975514e-07 3.6764838917844154 2.12261879904897 6.003669192191637 3.676483329745015 4.90968187565977e-07 -3.4118787196511676e-07 7.352966933186879" Properties=species:S:1:pos:R:3:forces:R:3 energy=-28.477272033691406 free_energy=-28.477272033691406 stress="-0.00011050781904486939 3.3283598099842493e-09 1.126488058389441e-08 3.3283598099842493e-09 -0.00011053479829570279 -3.269363890723298e-09 1.126488058389441e-08 -3.269363890723298e-09 -0.00011050931789213791" pbc="T T T"
Tl       2.12261826       1.50091674       3.67648318       0.00000033       0.00000269       0.00000053
Tl       6.36785727       4.50275104      11.02945095      -0.00000016      -0.00000157      -0.00000136
Si       0.00000004       0.00000052      -0.00000130       0.00000047      -0.00000128       0.00000426
Te       2.20443990       1.55876737       7.35296746       0.00219143       0.00154616       0.00000054
Te       6.28603636       4.44490137       7.35296603      -0.00219093      -0.00154679      -0.00000040
Te       5.26563729       1.55876882       5.58558338      -0.00109485       0.00154639       0.00189697
Te       3.22483757       4.44490138       9.12035116       0.00109621      -0.00154791      -0.00189801
Te       3.22483948       4.44489984       5.58558405       0.00109481      -0.00154541       0.00189599
Te       5.26563657       1.55876693       9.12035164      -0.00109735       0.00154770      -0.00189860
