9
Lattice="5.8607670776573615 9.35422989056218e-09 3.38371506738453 1.9535889667522592 5.52558446028108 3.3837151850821816 -1.8791720336761505e-07 1.1271993160485462e-08 6.767430460251243" Properties=species:S:1:pos:R:3:forces:R:3 energy=-30.36870765686035 free_energy=-30.36870765686035 stress="-5.1340430218260735e-05 4.92700635845722e-08 -2.5572523654204815e-08 4.92700635845722e-08 -5.1387538405833766e-05 1.525532944413044e-08 -2.5572523654204815e-08 1.525532944413044e-08 -5.143176167621277e-05" pbc="T T T"
Tl       1.95358893       1.38139620       3.38371519      -0.00000010       0.00000022       0.00000030
Tl       5.86076697       4.14418842      10.15114559       0.00000043       0.00000023      -0.00000029
Se      -0.00000024      -0.00000023      -0.00000024      -0.00000207      -0.00000257       0.00000964
S        1.84075818       1.30161213       6.76743040       0.00323266       0.00228387       0.00000101
S        5.97359735       4.22397160       6.76743053      -0.00322831      -0.00228292       0.00000106
S        4.94038834       1.30161237       4.97785816      -0.00161707       0.00228590       0.00279868
S        2.87396745       4.22397301       8.55700273       0.00161886      -0.00228924      -0.00280470
S        2.87396764       4.22397279       4.97785784       0.00161681      -0.00228667       0.00280154
S        4.94038878       1.30161163       8.55700281      -0.00162056       0.00229138      -0.00280672
