9
Lattice="6.37197571242232 4.093170378333037e-07 3.6788611570508394 2.1239922061535634 6.007555255835335 3.6788613023611934 -9.435999401645993e-08 1.1124555105789104e-07 7.357722477538122" Properties=species:S:1:pos:R:3:forces:R:3 energy=-33.80857849121094 free_energy=-33.80857849121094 stress="-1.818916825868655e-05 7.79728139832514e-08 -1.653593351136351e-08 7.79728139832514e-08 -1.8282842574990354e-05 2.9613234531211674e-08 -1.653593351136351e-08 2.9613234531211674e-08 -1.830874680308625e-05" pbc="T T T"
Tl       2.12399312       1.50188848       3.67886150      -0.00000094       0.00000072      -0.00000004
Tl       6.37197520       4.50566784      11.03658355       0.00000031      -0.00000113      -0.00000041
Ti       0.00000056      -0.00000057      -0.00000188      -0.00000162       0.00000054       0.00000770
Te       2.24391905       1.58668888       7.35772313      -0.00210762      -0.00148877      -0.00000131
Te       6.25204834       4.42086716       7.35772301       0.00210748       0.00148809      -0.00000090
Te       5.25001603       1.58668819       5.62215045       0.00105178      -0.00148459      -0.00182065
Te       3.24595116       4.42086759       9.09329465      -0.00105014       0.00148432       0.00181836
Te       3.24595092       4.42086779       5.62215033      -0.00104915       0.00148256      -0.00181806
Te       5.25001682       1.58668772       9.09329501       0.00104986      -0.00148170       0.00181533
