9
Lattice="5.993733576905267 2.2417142370919477e-07 3.4604834726998512 1.9979113491228049 5.650946093143986 3.46048356714813 -4.319537843057591e-08 8.51312569359062e-08 6.920967020216167" Properties=species:S:1:pos:R:3:forces:R:3 energy=-29.841846466064453 free_energy=-29.841846466064453 stress="-5.072688145446591e-05 2.8885679626000638e-08 -4.383990415135486e-08 2.8885679626000638e-08 -5.077439345768653e-05 4.739264625186479e-08 -4.383990415135486e-08 4.739264625186479e-08 -5.073105057817884e-05" pbc="T T T"
Tl       1.99791116       1.41273696       3.46048354      -0.00000005      -0.00000037       0.00000016
Tl       5.99373369       4.23820965      10.38145044      -0.00000034       0.00000024      -0.00000006
Te      -0.00000001      -0.00000167      -0.00000006       0.00000377       0.00004786      -0.00000042
S        1.95250523       1.38062983       6.92096714       0.00156909       0.00110924       0.00000013
S        6.03914034       4.27031714       6.92096697      -0.00159788      -0.00112772      -0.00000048
S        5.01748099       1.38062978       5.15140236      -0.00078452       0.00111103       0.00136012
S        2.97416341       4.27031718       8.69053175       0.00079739      -0.00112581      -0.00138116
S        2.97416350       4.27031723       5.15140190       0.00080022      -0.00112957       0.00138575
S        5.01748137       1.38062939       8.69053217      -0.00078762       0.00111520      -0.00136393
