9
Lattice="6.447395070029181 3.0445420922556516e-07 3.7224053606259204 2.149131893918774 6.07866253981055 3.7224055046169036 -3.82429904450027e-08 1.4931014979554734e-07 7.444810787490617" Properties=species:S:1:pos:R:3:forces:R:3 energy=-37.17775344848633 free_energy=-37.17775344848633 stress="-2.170211519114673e-05 8.849279531375487e-09 -4.063477998528242e-09 8.849279531375487e-09 -2.1704419850721024e-05 2.9012954261276036e-09 -4.063477998528242e-09 2.9012954261276036e-09 -2.1710788132622838e-05" pbc="T T T"
Tl       2.14913166       1.51966555       3.72240522       0.00000010       0.00000020      -0.00000013
Tl       6.44739525       4.55899705      11.16721618      -0.00000020       0.00000002       0.00000018
Ta      -0.00000049       0.00000016      -0.00000154       0.00000143      -0.00000213       0.00000702
Te       2.26747831       1.60334940       7.44481115      -0.00190023      -0.00134390      -0.00000045
Te       6.32904881       4.47531313       7.44481142       0.00190178       0.00134439      -0.00000084
Te       5.31365548       1.60334977       5.68609967       0.00095030      -0.00134443      -0.00164638
Te       3.28287143       4.47531377       9.20352216      -0.00095062       0.00134347       0.00164598
Te       3.28287151       4.47531332       5.68609994      -0.00095146       0.00134467      -0.00164842
Te       5.31365569       1.60334986       9.20352234       0.00094889      -0.00134233       0.00164292
