9
Lattice="4.554259809229537 2.0870164350295607e-08 2.6294030757982667 1.5180864359438897 4.293798466337852 2.6294033993613994 -7.048976585931018e-07 -1.0215535799846332e-07 5.258807372515051" Properties=species:S:1:pos:R:3:forces:R:3 energy=-48.70928192138672 free_energy=-48.70928192138672 stress="-0.0001255059614777565 1.3529050590932457e-07 -1.0238078118618432e-07 1.3529050590932457e-07 -0.0001252427464351058 2.1084007428839868e-08 -1.0238078118618432e-07 2.1084007428839868e-08 -0.00012547009100671858" pbc="T T T"
Tl       1.51808844       1.07344816       2.62940453      -0.00000129       0.00000375       0.00000047
Tl       4.55425887       3.22035062       7.88820994       0.00000319      -0.00000007       0.00000106
Ti       0.00000020       0.00000072       0.00000023      -0.00000274      -0.00001039       0.00000397
O        1.56305492       1.10524680       5.25880579       0.00723243       0.00510734       0.00000338
O        4.50928947       3.18854975       5.25880681      -0.00721991      -0.00510198       0.00000009
O        3.77273095       1.10524780       3.98304901      -0.00361392       0.00510991       0.00626004
O        2.29961282       3.18855153       6.53456383       0.00361252      -0.00511616      -0.00626063
O        2.29961404       3.18855058       3.98304956       0.00361589      -0.00510824       0.00625932
O        3.77273250       1.10524682       6.53456477      -0.00362524       0.00511551      -0.00626767
