9
Lattice="5.623346730134228 -4.0372358903143457e-07 3.2466418703620907 1.8744483714478688 5.301743992325162 3.246642143960801 -1.4537312348025192e-07 2.32294487719115e-07 6.493283992517661" Properties=species:S:1:pos:R:3:forces:R:3 energy=-42.95943832397461 free_energy=-42.95943832397461 stress="-0.00022590256412513554 -3.0141350748635887e-07 5.7676377451798544e-08 -3.0141350748635887e-07 -0.0002256200386909768 -7.624056053145978e-08 5.7676377451798544e-08 -7.624056053145978e-08 -0.00022540045029018074" pbc="T T T"
Tl       1.87444858       1.32543597       3.24664167       0.00000076      -0.00000155      -0.00000191
Tl       5.62334655       3.97630771       9.73992627      -0.00000092      -0.00000140      -0.00000178
Ta      -0.00000075      -0.00000139      -0.00000165       0.00000352       0.00001506       0.00001961
S        1.96228856       1.38754878       6.49328289       0.00880021       0.00622281       0.00000137
S        5.53550709       3.91419602       6.49328397      -0.00881219      -0.00622693       0.00000231
S        4.64220131       1.38755003       4.94603759      -0.00438794       0.00620547       0.00760204
S        2.85559230       3.91419577       8.04053300       0.00440171      -0.00622135      -0.00761902
S        2.85559433       3.91419323       4.94603695       0.00439002      -0.00620645       0.00760397
S        4.64220199       1.38754929       8.04053138      -0.00439519       0.00621432      -0.00760710
