9
Lattice="5.94111841453649 -1.5877007718593773e-07 3.4301068890560678 1.980372758563188 5.6013396824702095 3.430106709948966 3.171551312592994e-08 -1.969342613004532e-07 6.8602137231794105" Properties=species:S:1:pos:R:3:forces:R:3 energy=-36.414085388183594 free_energy=-36.414085388183594 stress="-7.008144893916324e-05 -6.761532489463207e-08 1.3335637483180562e-08 -6.761532489463207e-08 -6.997726450208575e-05 2.0740494044435565e-10 1.3335637483180562e-08 2.0740494044435565e-10 -7.003412611084059e-05" pbc="T T T"
Tl       1.98037279       1.40033482       3.43010691       0.00000016      -0.00000187       0.00000037
Tl       5.94111845       4.20100442      10.29032048       0.00000029       0.00000047       0.00000037
Ti       0.00000121      -0.00000071      -0.00000117      -0.00000736       0.00000287       0.00000441
Se       2.02942116       1.43501806       6.86021371       0.00206776       0.00146023      -0.00000095
Se       5.89206930       4.16632232       6.86021362      -0.00206417      -0.00145811      -0.00000105
Se       4.92640726       1.43501796       5.18763826      -0.00102986       0.00145565       0.00178371
Se       2.99508340       4.16631983       8.53278987       0.00103280      -0.00145808      -0.00178770
Se       2.99508394       4.16632176       5.18763803       0.00103051      -0.00145814       0.00178647
Se       4.92640733       1.43501882       8.53278955      -0.00103017       0.00145699      -0.00178563
