9
Lattice="4.66774101799502 2.6806870999224867e-07 2.694921689714117 1.555913812966395 4.400789153252805 2.694921884459201 2.4588921009765063e-08 2.5590002987133777e-07 5.389843336838958" Properties=species:S:1:pos:R:3:forces:R:3 energy=-41.196693420410156 free_energy=-41.196693420410156 stress="8.582698501413688e-05 3.120636549169831e-08 8.971047904537954e-09 3.120636549169831e-08 8.590833022026345e-05 -1.931119975040474e-08 8.971047904537954e-09 -1.931119975040474e-08 8.596382394898683e-05" pbc="T T T"
Tl       1.55591393       1.10019856       2.69492179      -0.00000097       0.00000202       0.00000233
Tl       4.66774110       3.30059191       8.08476508       0.00000198      -0.00000002       0.00000240
Te       0.00000007      -0.00000010       0.00000061      -0.00000177      -0.00000126      -0.00001456
O        1.55471574       1.09935090       5.38984311       0.00139669       0.00098732       0.00000175
O        4.66893925       3.30143868       5.38984336      -0.00139663      -0.00098696      -0.00000065
O        3.89038334       1.09935031       4.04134582      -0.00070025       0.00098956       0.00121257
O        2.33327167       3.30143948       6.73834177       0.00070089      -0.00098765      -0.00120884
O        2.33327135       3.30143835       4.04134564       0.00070070      -0.00098777       0.00120878
O        3.89038280       1.09935051       6.73834142      -0.00070029       0.00098473      -0.00120324
