9
Lattice="5.6666600272853955 -1.6215276582183526e-07 3.2716475673562475 1.8888859191615361 5.3425794063862435 3.271648613032062 -3.249431332440097e-07 1.050916718291089e-06 6.543295697530252" Properties=species:S:1:pos:R:3:forces:R:3 energy=-38.614891052246094 free_energy=-38.614891052246094 stress="-0.00013119925279170275 -2.9291055625435547e-07 -9.450760529716717e-08 -2.9291055625435547e-07 -0.00013096020848024637 7.454454475919192e-08 -9.450760529716717e-08 7.454454475919192e-08 -0.00013071041030343622" pbc="T T T"
Tl       1.88888639       1.33564519       3.27164788       0.00000007       0.00000089       0.00000032
Tl       5.66665906       4.00693520       9.81494410      -0.00000099      -0.00000021       0.00000071
Ti      -0.00000062       0.00000097      -0.00000329       0.00000693      -0.00000761       0.00001095
S        1.90881579       1.34973743       6.54329750       0.00604162       0.00427246      -0.00000140
S        5.64673053       3.99284306       6.54329776      -0.00604233      -0.00427386      -0.00000211
S        4.71225088       1.34973822       4.92473280      -0.00301097       0.00425953       0.00521189
S        2.84329598       3.99284033       8.16185777       0.00300884      -0.00425461      -0.00521016
S        2.84329376       3.99284212       4.92473495       0.00301188      -0.00426012       0.00521424
S        4.71225057       1.34973906       8.16185800      -0.00301489       0.00426382      -0.00522470
