9
Lattice="5.93972221216342 -4.158367990879794e-07 3.429300940885134 1.9799072044289092 5.600023805629875 3.429300607588106 4.7347987775558574e-07 -7.340300437773498e-08 6.858601061679297" Properties=species:S:1:pos:R:3:forces:R:3 energy=-40.16899871826172 free_energy=-40.16899871826172 stress="-9.972388215828687e-05 -3.0349463031598134e-07 5.511042999728488e-08 -3.0349463031598134e-07 -9.951974061550573e-05 -1.0380345827343262e-07 5.511042999728488e-08 -1.0380345827343262e-07 -9.932360262610018e-05" pbc="T T T"
Tl       1.97990752       1.40000591       3.42930071      -0.00000069      -0.00000050       0.00000021
Tl       5.93972252       4.20001761      10.28790218       0.00000041       0.00000036      -0.00000077
Ta      -0.00000117      -0.00000078       0.00000042       0.00000986       0.00000662      -0.00000431
Se       2.07806719       1.46941556       6.85860088       0.00221547       0.00156534      -0.00000016
Se       5.84156317       4.13060854       6.85860079      -0.00222512      -0.00157234       0.00000175
Se       4.90068723       1.46941698       5.22896157      -0.00109994       0.00155433       0.00190644
Se       3.01894290       4.13060660       8.48824162       0.00109920      -0.00155487      -0.00190496
Se       3.01894282       4.13060547       5.22896164       0.00109666      -0.00154902       0.00190218
Se       4.90068730       1.46941753       8.48824018      -0.00109586       0.00155010      -0.00190046
