9
Lattice="5.902806301241989 1.1028980123700986e-07 3.40798747646974 1.967602051094579 5.565219945108178 3.407987741995974 -1.2241830017984781e-07 2.386390903491437e-07 6.815975164974111" Properties=species:S:1:pos:R:3:forces:R:3 energy=-36.29350662231445 free_energy=-36.29350662231445 stress="-7.892622306826524e-06 -1.1620087114749822e-08 -2.770837603804921e-08 -1.1620087114749822e-08 -7.86445161793381e-06 5.8587228402018354e-09 -2.770837603804921e-08 5.8587228402018354e-09 -7.840045327611733e-06" pbc="T T T"
Tl       1.96760208       1.39130506       3.40798745       0.00000095      -0.00000018       0.00000096
Tl       5.90280627       4.17391514      10.22396311      -0.00000056       0.00000289       0.00000040
V       -0.00000299      -0.00000133      -0.00000137       0.00000316      -0.00000002      -0.00000087
Se       1.97524196       1.39670830       6.81597530       0.00046897       0.00032897      -0.00000011
Se       5.89516571       4.16851098       6.81597575      -0.00047216      -0.00033438      -0.00000009
Se       4.91518607       1.39670847       5.11859816      -0.00023426       0.00033097       0.00040591
Se       2.95522475       4.16851217       8.51335191       0.00023383      -0.00032958      -0.00040394
Se       2.95522395       4.16851330       5.11859896       0.00023453      -0.00033042       0.00040418
Se       4.91518529       1.39670911       8.51335243      -0.00023451       0.00033177      -0.00040641
