9
Lattice="5.635687027116747 -2.3818176218510655e-07 3.2537653720262365 1.8785624040745341 5.3133764245786885 3.2537648762051945 3.3913784887695606e-07 -3.6744731454734387e-07 6.507530156648426" Properties=species:S:1:pos:R:3:forces:R:3 energy=-39.1433219909668 free_energy=-39.1433219909668 stress="-4.099878060515039e-05 3.5602177206328633e-08 -1.7530387808051273e-08 3.5602177206328633e-08 -4.101499143871479e-05 1.670578009260737e-09 -1.7530387808051273e-08 1.670578009260737e-09 -4.104524487047456e-05" pbc="T T T"
Tl       1.87856244       1.32834408       3.25376545      -0.00000003      -0.00000025      -0.00000058
Tl       5.63568756       3.98503149       9.76129527       0.00000010       0.00000021       0.00000045
V       -0.00000066      -0.00000093       0.00000048       0.00000097       0.00000514       0.00000132
S        1.83818047       1.29978829       6.50752939       0.00300330       0.00212371      -0.00000048
S        5.67606910       4.01358769       6.50753031      -0.00300926      -0.00212675      -0.00000002
S        4.71659826       1.29978977       4.84567558      -0.00150272       0.00212771       0.00260389
S        2.79765265       4.01358715       8.16938467       0.00150663      -0.00212926      -0.00260764
S        2.79765201       4.01358691       4.84567512       0.00150520      -0.00212789       0.00260711
S        4.71659790       1.29978858       8.16938499      -0.00150380       0.00212735      -0.00260442
