9
Lattice="6.2843622887503665 3.37466428817007e-06 3.628278819691417 2.0947905757144203 5.924957624352607 3.628278881237907 1.0041081996788883e-06 7.853904533322607e-07 7.256555900217053" Properties=species:S:1:pos:R:3:forces:R:3 energy=-33.39227294921875 free_energy=-33.39227294921875 stress="-0.00011363098747096956 1.9834808995256026e-07 3.613289001336284e-09 1.9834808995256026e-07 -0.00011379276838852093 -6.305401711870218e-08 3.613289001336284e-09 -6.305401711870218e-08 -0.00011378865747246891" pbc="T T T"
Tl       2.09479034       1.48124165       3.62827809       0.00000381       0.00000173       0.00000129
Tl       6.28436761       4.44372055      10.88483396      -0.00000440       0.00000093       0.00000409
V       -0.00000573      -0.00000306       0.00000261       0.00000644       0.00000249      -0.00000558
Te       2.20580643       1.55974719       7.25656155       0.00627803       0.00443462      -0.00000489
Te       6.17334238       4.36521255       7.25656170      -0.00626843      -0.00443033      -0.00000485
Te       5.18146208       1.55973925       5.53856120      -0.00315504       0.00445332       0.00544851
Te       3.19769628       4.36522287       8.97454756       0.00313788      -0.00444497      -0.00544029
Te       3.19769272       4.36522192       5.53856433       0.00314678      -0.00445447       0.00544181
Te       5.18146475       1.55974484       8.97454515      -0.00314519       0.00443665      -0.00543998
