9
Lattice="5.842721688410012 -6.101140569852562e-07 3.3732963171113135 1.9475736186734192 5.508569552584204 3.373295801379503 3.562215805599819e-07 -3.797531395568436e-07 6.746592017228804" Properties=species:S:1:pos:R:3:forces:R:3 energy=-43.725486755371094 free_energy=-43.725486755371094 stress="8.264664757007267e-06 4.439285383739389e-09 1.5155910304542886e-08 4.439285383739389e-09 8.328100193466526e-06 4.382168850014523e-09 1.5155910304542886e-08 4.382168850014523e-09 8.299751243612263e-06" pbc="T T T"
Tl       1.94757374       1.37714219       3.37329601       0.00000134      -0.00000041       0.00000041
Tl       5.84272101       4.13142646      10.11988843      -0.00000022       0.00000099      -0.00000036
W       -0.00000067       0.00000091       0.00000025       0.00001046      -0.00003189      -0.00000560
S        1.86055510       1.31561246       6.74659236      -0.00092939      -0.00066128      -0.00000099
S        5.92973927       4.19295593       6.74659097       0.00094098       0.00066677       0.00000049
S        4.91244410       1.31561061       4.98458507       0.00045933      -0.00065465      -0.00080014
S        2.87785196       4.19295698       8.50859880      -0.00047294       0.00067046       0.00082263
S        2.87785269       4.19295726       4.98458527      -0.00047223       0.00066812      -0.00082047
S        4.91244542       1.31561155       8.50859954       0.00046270      -0.00065806       0.00080398
