9
Lattice="6.370168022475196 -1.7888796664857809e-06 3.677819165034852 2.1233876643598455 6.0058523574719835 3.677819147529219 -8.274479121427758e-08 -7.994922796727789e-08 7.355638473387952" Properties=species:S:1:pos:R:3:forces:R:3 energy=-36.38126754760742 free_energy=-36.38126754760742 stress="-0.00015412375796586275 -3.3612940342209185e-07 -1.2982751762535827e-08 -3.3612940342209185e-07 -0.00015390444605145603 8.4251077225872e-09 -1.2982751762535827e-08 8.4251077225872e-09 -0.00015367714513558894" pbc="T T T"
Tl       2.12338865       1.50146176       3.67781895       0.00000019       0.00000125       0.00000034
Tl       6.37016685       4.50438813      11.03345735       0.00000033       0.00000005      -0.00000007
W       -0.00000191       0.00000181      -0.00000129       0.00000660      -0.00000889       0.00000013
Te       2.21894611       1.56903108       7.35563898       0.00395279       0.00279555      -0.00000121
Te       6.27460909       4.43681803       7.35563921      -0.00394934      -0.00279465      -0.00000044
Te       5.26069197       1.56903382       5.59948708      -0.00196272       0.00277468       0.00339889
Te       3.23286431       4.43681552       9.11178812       0.00195720      -0.00277021      -0.00339032
Te       3.23286457       4.43681648       5.59948878       0.00195770      -0.00277115       0.00339089
Te       5.26069276       1.56903530       9.11179007      -0.00196272       0.00277331      -0.00339828
