9
Lattice="4.800051376125588 4.2770926980412846e-07 2.7713108624145817 1.6000174272407737 4.52553086383309 2.7713110380142014 -2.2104084278378337e-07 5.8765520520391795e-08 5.542622107683102" Properties=species:S:1:pos:R:3:forces:R:3 energy=-47.59226608276367 free_energy=-47.59226608276367 stress="0.00016854563727974892 -6.537446495258337e-08 -3.232516974094324e-07 -6.537446495258337e-08 0.00016901141498237848 3.884911166096572e-07 -3.232516974094324e-07 3.884911166096572e-07 0.0001692892546998337" pbc="T T T"
Tl       1.60001806       1.13138520       2.77130759      -0.00000226       0.00001923      -0.00002224
Tl       4.80005190       3.39414907       8.31393308       0.00001376       0.00000628      -0.00000744
W        0.00000184       0.00000156      -0.00000093      -0.00001782      -0.00000291      -0.00000009
O        1.58972761       1.12411018       5.54262338       0.00061560       0.00043565      -0.00000113
O        4.81034126       3.40141989       5.54262239      -0.00061250      -0.00042748      -0.00000221
O        4.00518670       1.12410769       4.14806130      -0.00030506       0.00040996       0.00050294
O        2.39488053       3.40141874       6.93718693       0.00029677      -0.00041956      -0.00050247
O        2.39488045       3.40142453       4.14805740       0.00032693      -0.00044447       0.00054574
O        4.00518598       1.12410943       6.93718571      -0.00031376       0.00042331      -0.00051391
