9
Lattice="6.071051696101002 -5.1549953543119647e-08 3.505123280160759 2.0236834861345896 5.723843988046583 3.505123910564637 -2.758792766380649e-07 5.770076286486547e-07 7.010247038158479" Properties=species:S:1:pos:R:3:forces:R:3 energy=-40.339874267578125 free_energy=-40.339874267578125 stress="-7.269702473422512e-05 -1.873701052090837e-07 -8.007692997580307e-08 -1.873701052090837e-07 -7.255379023263231e-05 9.496108788198399e-08 -8.007692997580307e-08 9.496108788198399e-08 -7.242973515531048e-05" pbc="T T T"
Tl       2.02368359       1.43096098       3.50512378       0.00000036       0.00000044      -0.00000016
Tl       6.07105095       4.29288346      10.51537053       0.00000020      -0.00000057       0.00000078
W       -0.00000127      -0.00000009      -0.00000014       0.00002140       0.00000164      -0.00001494
Se       1.96457918       1.38916760       7.01024767       0.00205741       0.00145580      -0.00000002
Se       6.13015636       4.33467745       7.01024721      -0.00207378      -0.00146674      -0.00000074
Se       5.08876156       1.38916782       5.20650071      -0.00102555       0.00145184       0.00177665
Se       3.00597490       4.33467542       8.81399349       0.00101795      -0.00144021      -0.00176345
Se       3.00597319       4.33467669       5.20650023       0.00102884      -0.00145494       0.00178079
Se       5.08876115       1.38916878       8.81399308      -0.00102683       0.00145276      -0.00177887
