9
Lattice="5.77515432312623 5.604331655341008e-08 3.334286758726604 1.9250513889117564 5.4448669304843795 3.334286940537368 -3.334095691392313e-08 1.9909619551131574e-07 6.668573575201521" Properties=species:S:1:pos:R:3:forces:R:3 energy=-39.04962921142578 free_energy=-39.04962921142578 stress="-8.997784607345238e-05 7.184185335518123e-08 -3.30344862575771e-09 7.184185335518123e-08 -9.000087447930127e-05 -1.8819761749000463e-08 -3.30344862575771e-09 -1.8819761749000463e-08 -9.008411143440753e-05" pbc="T T T"
Tl       1.92505140       1.36121682       3.33428676       0.00000030      -0.00000016       0.00000034
Tl       5.77515410       4.08365081      10.00286021       0.00000046       0.00000034       0.00000062
Zr      -0.00000011       0.00000022       0.00000266       0.00000105      -0.00000345      -0.00001561
S        2.05285922       1.45159073       6.66857279       0.00361943       0.00256008       0.00000150
S        5.64734542       3.99327639       6.66857370      -0.00361836      -0.00255567       0.00000028
S        4.74872586       1.45159059       5.11211430      -0.00181198       0.00256276       0.00313926
S        2.95148125       3.99327651       8.22503263       0.00180851      -0.00255805      -0.00313267
S        2.95148005       3.99327642       5.11211437       0.00181130      -0.00256357       0.00313997
S        4.74872558       1.45159039       8.22503214      -0.00181052       0.00255784      -0.00313333
