9
Lattice="6.052991370137979 7.471375217686619e-07 3.4946955886827604 2.017664520381743 5.706815072687734 3.4946955437747387 -4.007317960608387e-09 -5.783449004030913e-08 6.989391184306452" Properties=species:S:1:pos:R:3:forces:R:3 energy=-36.933319091796875 free_energy=-36.933319091796875 stress="2.6947550395561848e-06 1.1061017346492008e-07 2.867585058297095e-09 1.1061017346492008e-07 2.6388611331640277e-06 7.726148609776828e-09 2.867585058297095e-09 7.726148609776828e-09 2.5043914320121985e-06" pbc="T T T"
Tl       2.01766435       1.42670443       3.49469546      -0.00000021      -0.00000095       0.00000109
Tl       6.05299148       4.28011148      10.48408673       0.00000087       0.00000148       0.00000039
Zr       0.00000174      -0.00000104       0.00000271      -0.00001303       0.00000388      -0.00002116
Se       2.17103179       1.53515215       6.98939137       0.00449029       0.00317468       0.00000067
Se       5.89962299       4.17166313       6.98939118      -0.00448422      -0.00317137       0.00000129
Se       4.96747567       1.53515141       5.37486251      -0.00224786       0.00317887       0.00389564
Se       3.10318061       4.17166378       8.60391883       0.00224688      -0.00317702      -0.00389027
Se       3.10317985       4.17166545       5.37486175       0.00225091      -0.00318325       0.00390007
Se       4.96747507       1.53515238       8.60391846      -0.00224361       0.00317366      -0.00388753
