9
Lattice="4.733846648843091 -4.234871088570914e-07 2.733087695356633 1.5779485981429173 4.463112688764765 2.733087497101553 1.4564496822142346e-07 -1.3982525956578845e-07 5.466175138448555" Properties=species:S:1:pos:R:3:forces:R:3 energy=-48.98280334472656 free_energy=-48.98280334472656 stress="9.911881352309138e-05 -3.99289007191328e-07 -2.6991427759526232e-08 -3.99289007191328e-07 9.947592479875311e-05 7.666248791338148e-08 -2.6991427759526232e-08 7.666248791338148e-08 9.972363477572799e-05" pbc="T T T"
Tl       1.57794789       1.11577791       2.73308687      -0.00000344      -0.00000266       0.00000039
Tl       4.73384582       3.34733386       8.19926088      -0.00000268      -0.00000163      -0.00000491
Zr      -0.00000061      -0.00000118       0.00000152       0.00000764       0.00001475      -0.00002698
O        1.69455508       1.19823106       5.46617532       0.00256878       0.00181687       0.00000026
O        4.61724120       3.26488273       5.46617615      -0.00258321      -0.00182247      -0.00000050
O        3.88656901       1.19823083       4.20061685      -0.00127763       0.00181055       0.00221747
O        2.42522786       3.26487930       6.73173476       0.00127694      -0.00180519      -0.00220305
O        2.42522569       3.26488129       4.20061620       0.00128239      -0.00181192       0.00222409
O        3.88656927       1.19823263       6.73173335      -0.00126895       0.00180197      -0.00220716
