9
Lattice="5.368278976842658 -1.7091644168037553e-08 3.0993773901083728 1.789426369092667 5.0612618477085904 3.0993772868909395 7.554217590759494e-08 -7.299860905996014e-08 6.19875464937384" Properties=species:S:1:pos:R:3:forces:R:3 energy=-39.226993560791016 free_energy=-39.226993560791016 stress="-2.3620708816451952e-05 8.980820531689915e-09 -6.369418187324172e-11 8.980820531689915e-09 -2.3529075406258926e-05 2.0332414862878068e-08 -6.369418187324172e-11 2.0332414862878068e-08 -2.36059076996753e-05" pbc="T T T"
V        1.78942625       1.26531524       3.09937767      -0.00000094      -0.00000039       0.00000260
V        5.36827882       3.79594633       9.29813222      -0.00000087       0.00000011       0.00000024
Au       0.00000007      -0.00000012      -0.00000016      -0.00000128       0.00000307      -0.00000298
S        1.91490667       1.35404322       6.19875518      -0.00044525      -0.00031567       0.00000061
S        5.24279871       3.70721854       6.19875469       0.00044590       0.00031763      -0.00000055
S        4.41082569       1.35404329       4.75773517       0.00022084      -0.00031674      -0.00038773
S        2.74687974       3.70721829       7.63977380      -0.00022587       0.00031772       0.00038683
S        2.74687988       3.70721825       4.75773490      -0.00022185       0.00031179      -0.00038850
S        4.41082598       1.35404386       7.63977398       0.00022897      -0.00031793       0.00038958
