9
Lattice="5.518495501548396 -3.593001154529844e-08 3.186104698377719 1.8394984736541404 5.20288730632815 3.1861046862305797 7.705104133643413e-09 -9.428798352895128e-09 6.372209383409803" Properties=species:S:1:pos:R:3:forces:R:3 energy=-36.8481330871582 free_energy=-36.8481330871582 stress="0.00013752278755418956 2.820542910342283e-08 1.6532475388686407e-09 2.820542910342283e-08 0.00013755037798546255 -2.239209884180582e-08 1.6532475388686407e-09 -2.239209884180582e-08 0.0001375153224216774" pbc="T T T"
V        1.83949850       1.30072086       3.18610738      -0.00000033      -0.00000403       0.00001700
V        5.51849946       3.90216529       9.55831645       0.00002448      -0.00000098       0.00001117
Au      -0.00000018      -0.00000021       0.00000001      -0.00000016       0.00000098      -0.00000085
Se       2.08476700       1.47415378       6.37220921      -0.00412111      -0.00290998      -0.00000094
Se       5.27322646       3.72873471       6.37220858       0.00411072       0.00291013      -0.00000300
Se       4.47611150       1.47415361       4.99156538       0.00205633      -0.00290793      -0.00356686
Se       2.88188085       3.72873552       7.75285086      -0.00206289       0.00291521       0.00355540
Se       2.88188006       3.72873348       4.99156594      -0.00206640       0.00290801      -0.00356732
Se       4.47611226       1.47415194       7.75285135       0.00205931      -0.00291150       0.00355539
