9
Lattice="4.440246242828302 1.814372867932937e-08 2.5635773689430064 1.480082108237676 4.186304210369601 2.563577351295417 1.1808769022576594e-08 -1.326372901531299e-08 5.12715471743262" Properties=species:S:1:pos:R:3:forces:R:3 energy=-46.87091064453125 free_energy=-46.87091064453125 stress="0.00023154633527155966 -1.3806460685827915e-07 -7.364628373807136e-08 -1.3806460685827915e-07 0.0002317834150744602 1.0336342448624691e-08 -7.364628373807136e-08 1.0336342448624691e-08 0.0002315976598765701" pbc="T T T"
V        1.48008144       1.04657614       2.56357759      -0.00000740      -0.00000088       0.00000629
V        4.44024592       3.13972900       7.69073225      -0.00000223       0.00001630       0.00000397
Au       0.00000012      -0.00000009       0.00000037      -0.00000198       0.00000940      -0.00003240
O        1.58824647       1.12305884       5.12715465      -0.00212544      -0.00151420       0.00000027
O        4.33208230       3.06324475       5.12715466       0.00212765       0.00150466      -0.00000082
O        3.64612348       1.12305943       3.93903899       0.00106570      -0.00150877      -0.00183618
O        2.27420518       3.06324491       6.31527053      -0.00106904       0.00151289       0.00184935
O        2.27420511       3.06324456       3.93903849      -0.00106061       0.00149858      -0.00184011
O        3.64612343       1.12305937       6.31527023       0.00107336      -0.00151795       0.00184959
