9
Lattice="4.14874855648409 -2.844396563053371e-07 2.3952809293830497 1.3829159848175676 3.9114775846958967 2.395280812478074 2.3180256234021575e-09 -1.4153970211537779e-07 4.790561854751183" Properties=species:S:1:pos:R:3:forces:R:3 energy=-54.11629867553711 free_energy=-54.11629867553711 stress="6.883372407173738e-05 6.376839678523538e-08 -3.6373734246808453e-07 6.376839678523538e-08 6.85393315507099e-05 -2.5734127007126517e-07 -3.6373734246808453e-07 -2.5734127007126517e-07 6.907574424985796e-05" pbc="T T T"
V        1.38291465       0.97787160       2.39527844      -0.00002753       0.00004304      -0.00004270
V        4.14874591       2.93360627       7.18584824      -0.00004764      -0.00003639       0.00010958
Be       0.00000057       0.00000007       0.00000074      -0.00001465      -0.00000926      -0.00000499
O        1.35576501       0.95867125       4.79056293       0.00163382       0.00115746       0.00002297
O        4.17589849       2.95280510       4.79055878      -0.00159419      -0.00115967      -0.00005328
O        3.47086689       0.95867278       3.56940739      -0.00078616       0.00118083       0.00139511
O        2.06079933       2.95280511       6.01171541       0.00080168      -0.00116450      -0.00139070
O        2.06080122       2.95280578       3.56940758       0.00084376      -0.00114918       0.00137997
O        3.47086588       0.95867033       6.01171461      -0.00080982       0.00113744      -0.00141484
