9
Lattice="5.933847023971782 -4.2527789949881644e-08 3.4259080933754458 1.9779489508476182 5.594484445267548 3.4259081229024355 -1.7466142725539592e-08 2.3812610179223543e-08 6.851816217003098" Properties=species:S:1:pos:R:3:forces:R:3 energy=-36.752498626708984 free_energy=-36.752498626708984 stress="5.467816299642436e-05 9.850984916681682e-09 2.4184307334529365e-10 9.850984916681682e-09 5.4734351579099894e-05 7.155354531107605e-09 2.4184307334529365e-10 7.155354531107605e-09 5.4708805691916496e-05" pbc="T T T"
V        1.97794924       1.39862044       3.42590806       0.00000118      -0.00000287       0.00000042
V        5.93384668       4.19586436      10.27772406      -0.00000235       0.00000566      -0.00000058
Be      -0.00000018      -0.00000031       0.00000014       0.00000189       0.00000469      -0.00000113
Te       1.93762788       1.37010922       6.85181614       0.00335656       0.00237016      -0.00000003
Te       5.97416848       4.22437536       6.85181615      -0.00335832      -0.00237355      -0.00000075
Te       4.96503301       1.37010914       5.10394289      -0.00167887       0.00237115       0.00290589
Te       2.94676322       4.22437516       8.59968992       0.00167874      -0.00237228      -0.00290552
Te       2.94676262       4.22437514       5.10394289       0.00167963      -0.00237398       0.00290798
Te       4.96503290       1.37010918       8.59968951      -0.00167833       0.00237083      -0.00290625
