9
Lattice="5.243169609510838 1.0072291753316089e-07 3.0271457124236836 1.7477233648634207 4.943307821721065 3.0271455968428267 -1.8496973828735697e-08 -1.5463643860960393e-07 6.054291456885111" Properties=species:S:1:pos:R:3:forces:R:3 energy=-41.17908477783203 free_energy=-41.17908477783203 stress="0.00011536671809153631 -5.8635915678451056e-08 3.390520575408118e-08 -5.8635915678451056e-08 0.00011533024371601641 1.3262033249361593e-08 3.390520575408118e-08 1.3262033249361593e-08 0.00011525247828103602" pbc="T T T"
V        1.74772068       1.23582610       3.02714616      -0.00000319      -0.00000154       0.00000082
V        5.24317013       3.70748150       9.08143677       0.00000000       0.00000068      -0.00000005
Be       0.00000017      -0.00000013      -0.00000005      -0.00000305       0.00000243      -0.00000261
Se       1.63549821       1.15647157       6.05429178      -0.00317490      -0.00224617       0.00000260
Se       5.35539519       3.78683555       6.05429203       0.00317663       0.00224370       0.00000056
Se       4.42542084       1.15647178       4.44352887       0.00158781      -0.00224400      -0.00275022
Se       2.56547234       3.78683671       7.66505346      -0.00158787       0.00224718       0.00274897
Se       2.56547251       3.78683647       4.44352870      -0.00158429       0.00224462      -0.00274962
Se       4.42542169       1.15647143       7.66505336       0.00158882      -0.00224653       0.00274926
