9
Lattice="4.0557708450455845 1.4255517244714423e-07 2.341600410874336 1.3519237327525935 3.823817496863875 2.341600439738826 1.038989043404451e-07 1.0881925561491587e-07 4.683200641790531" Properties=species:S:1:pos:R:3:forces:R:3 energy=-64.21418762207031 free_energy=-64.21418762207031 stress="-0.00016565916303079575 1.7155548448499758e-07 -9.102708986574726e-08 1.7155548448499758e-07 -0.0001653696526773274 -6.120506412798932e-08 -9.102708986574726e-08 -6.120506412798932e-08 -0.0001655854721320793" pbc="T T T"
V        1.35192364       0.95595430       2.34160048      -0.00000086       0.00000076       0.00000176
V        4.05577079       2.86786376       7.02480074      -0.00000287       0.00000867      -0.00000474
C        0.00000099      -0.00000142      -0.00000057       0.00001586      -0.00002254      -0.00000653
N        1.30494663       0.92273633       4.68320079      -0.00458932      -0.00324786       0.00000224
N        4.10274826       2.90108140       4.68320101       0.00458741       0.00324512       0.00000106
N        3.40329744       0.92273652       3.47171744       0.00229216      -0.00324190      -0.00396872
N        2.00439667       2.90108181       5.89468505      -0.00229394       0.00325024       0.00398159
N        2.00439648       2.90108143       3.47171680      -0.00229853       0.00324953      -0.00397837
N        3.40329755       0.92273670       5.89468416       0.00229102      -0.00324130       0.00397134
