9
Lattice="4.280648411907293 1.517690187899016e-08 2.4714334179361193 1.4268828170968804 4.035833865549257 2.4714334199819477 3.327229118830788e-08 2.603267256942315e-08 4.942866778242943" Properties=species:S:1:pos:R:3:forces:R:3 energy=-53.3118896484375 free_energy=-53.3118896484375 stress="-2.3496453650295734e-05 1.3626469730354529e-08 -9.535690281836651e-08 1.3626469730354529e-08 -2.337636578886304e-05 -5.920544055015853e-08 -9.535690281836651e-08 -5.920544055015853e-08 -2.3378644982585683e-05" pbc="T T T"
V        1.42688290       1.00895816       2.47143355      -0.00000229      -0.00000522       0.00000474
V        4.28064785       3.02687591       7.41430045      -0.00000751       0.00000807       0.00000674
Co      -0.00000008       0.00000001       0.00000048       0.00000305       0.00000001      -0.00000820
O        1.47299244       1.04156237       4.94286673       0.00247145       0.00173944      -0.00000245
O        4.23453907       2.99427131       4.94286643      -0.00246894      -0.00174475      -0.00000297
O        3.54415247       1.04156266       3.74708180      -0.00123787       0.00174624       0.00214034
O        2.16337919       2.99427125       6.13865153       0.00123721      -0.00174052      -0.00213480
O        2.16337916       2.99427137       3.74708195       0.00123698      -0.00174576       0.00213569
O        3.54415222       1.04156272       6.13865132      -0.00123215       0.00174212      -0.00213897
