9
Lattice="3.9335581543473874 -1.883973590133447e-07 2.2710413656676485 1.3111858903441116 3.7085940202016534 2.271041337058106 -5.0562395591198256e-08 -7.079238630948497e-08 4.54208281891195" Properties=species:S:1:pos:R:3:forces:R:3 energy=-58.984596252441406 free_energy=-58.984596252441406 stress="-2.2883137717144564e-05 -3.342600507494353e-07 6.552626530265115e-08 -3.342600507494353e-07 -2.360101461817976e-05 1.5973382616607523e-08 6.552626530265115e-08 1.5973382616607523e-08 -2.268485513923224e-05" pbc="T T T"
V        1.31118064       0.92715089       2.27104431      -0.00007046       0.00000780       0.00002499
V        3.93355340       2.78142957       6.81311844      -0.00006448      -0.00018521      -0.00006109
C       -0.00000141      -0.00000209       0.00000014      -0.00002415      -0.00003027      -0.00000624
O        1.22381156       0.86536870       4.54208115       0.00285077       0.00206077      -0.00001008
O        4.02093369       2.84322890       4.54208462      -0.00283003      -0.00200665       0.00002374
O        3.32165568       0.86536998       3.33089328      -0.00138295       0.00206590       0.00246024
O        1.92309384       2.84322879       5.75327278       0.00145793      -0.00199449      -0.00245738
O        1.92309201       2.84322862       3.33089340       0.00144231      -0.00200570       0.00247371
O        3.32165587       0.86537178       5.75327402      -0.00137687       0.00208831      -0.00244713
