9
Lattice="5.316751913924059 1.546614068118409e-07 3.0696283010929197 1.7722507624390005 5.012681677755501 3.0696283380754124 -1.4433028521308636e-07 -5.676280767133321e-08 6.139256852173155" Properties=species:S:1:pos:R:3:forces:R:3 energy=-43.49906539916992 free_energy=-43.49906539916992 stress="1.4866655874357093e-05 -3.4696030493108765e-09 1.815729611109873e-08 -3.4696030493108765e-09 1.4837235539744142e-05 5.609845477039244e-09 1.815729611109873e-08 5.609845477039244e-09 1.4825081052549649e-05" pbc="T T T"
V        1.77225185       1.25317110       3.06962790       0.00000414       0.00000225      -0.00000202
V        5.31675095       3.75951195       9.20888662      -0.00000336       0.00000218       0.00000371
Co      -0.00000014       0.00000012      -0.00000020       0.00000024      -0.00000105      -0.00000024
Se       1.86248950       1.31697869       6.13925695      -0.00048162      -0.00034036      -0.00000023
Se       5.22651313       3.69570277       6.13925591       0.00048147       0.00033942      -0.00000077
Se       4.38550724       1.31697897       4.68259121       0.00024008      -0.00034086      -0.00041744
Se       2.70349546       3.69570232       7.59592248      -0.00024040       0.00033848       0.00041780
Se       2.70349563       3.69570271       4.68259139      -0.00024147       0.00034028      -0.00041623
Se       4.38550659       1.31697841       7.59592183       0.00024065      -0.00034012       0.00041546
