9
Lattice="5.931484624450847 2.5762874626482935e-08 3.4245441791063245 1.9771615778967266 5.59225721084152 3.4245441581074947 3.8728904206432965e-08 1.6672636383497591e-09 6.849088291132217" Properties=species:S:1:pos:R:3:forces:R:3 energy=-40.93450164794922 free_energy=-40.93450164794922 stress="-0.00031742037390358746 1.8620693875703864e-09 -7.98340682450771e-09 1.8620693875703864e-09 -0.0003173914737999439 -9.556336832972079e-10 -7.98340682450771e-09 -9.556336832972079e-10 -0.0003173967998009175" pbc="T T T"
V        1.97716216       1.39806429       3.42454422       0.00000342       0.00000062      -0.00000066
V        5.93148403       4.19419268      10.27363282      -0.00000239      -0.00000164       0.00000189
Co       0.00000023      -0.00000024       0.00000004      -0.00000187       0.00000315       0.00000130
Te       1.98443202       1.40320534       6.84908824       0.00525611       0.00371625       0.00000023
Te       5.92421418       4.18905186       6.84908814      -0.00525519      -0.00371699      -0.00000089
Te       4.93926830       1.40320568       5.14311229      -0.00262922       0.00371608       0.00454908
Te       2.96937781       4.18905191       8.55506415       0.00262891      -0.00371732      -0.00455278
Te       2.96937791       4.18905204       5.14311247       0.00263020      -0.00371598       0.00455285
Te       4.93926831       1.40320540       8.55506413      -0.00262992       0.00371588      -0.00455111
