9
Lattice="5.096207141818572 3.37444100341865e-08 2.942296604302004 1.6987357535679941 4.804750226349487 2.9422965907678607 3.608521785358068e-09 -1.4024264155922545e-08 5.88459320235386" Properties=species:S:1:pos:R:3:forces:R:3 energy=-47.55560302734375 free_energy=-47.55560302734375 stress="2.0459186998778023e-05 4.22786605724923e-08 -1.0790373039526457e-08 4.22786605724923e-08 2.0436977138160728e-05 7.368992527290175e-09 -1.0790373039526457e-08 7.368992527290175e-09 2.041987499978859e-05" pbc="T T T"
V        1.69873505       1.20118749       2.94229667      -0.00000228      -0.00000051       0.00000019
V        5.09620689       3.60356286       8.82689085      -0.00000116       0.00000005       0.00000344
Co       0.00000049      -0.00000019      -0.00000084      -0.00000534       0.00000027       0.00002139
S        1.75101962       1.23815714       5.88459317      -0.00354728      -0.00251019      -0.00000018
S        5.04392352       3.56659283       5.88459316       0.00355452       0.00251551       0.00000281
S        4.22069770       1.23815831       4.45872354       0.00178121      -0.00251777      -0.00308180
S        2.57424483       3.56659286       7.31046288      -0.00177090       0.00250103       0.00306547
S        2.57424573       3.56659237       4.45872332      -0.00178014       0.00251517      -0.00307837
S        4.22069784       1.23815722       7.31046277       0.00177136      -0.00250350       0.00306737
