9
Lattice="4.004575276021273 -5.224718915156852e-07 2.31204293382767 1.3348581440537133 3.7755480113206294 2.312042567837482 -9.979194244118382e-08 -5.18808222837627e-07 4.624086040500061" Properties=species:S:1:pos:R:3:forces:R:3 energy=-70.52021789550781 free_energy=-70.52021789550781 stress="-0.00021840423869434744 4.825272412745107e-07 6.053852530385484e-07 4.825272412745107e-07 -0.00021923339227214456 -1.2297391549509484e-07 6.053852530385484e-07 -1.2297391549509484e-07 -0.00021881816792301834" pbc="T T T"
V        1.33485768       0.94388257       2.31204496      -0.00000868      -0.00003535       0.00002763
V        4.00457354       2.83166279       6.93612926      -0.00001844       0.00003830       0.00001838
Cr      -0.00000141      -0.00000113      -0.00000459       0.00001013       0.00001067       0.00003692
N        1.49858900       1.05965913       4.62408681      -0.00080118      -0.00060800      -0.00000167
N        3.84084823       2.71588695       4.62408405       0.00080928       0.00056469      -0.00001429
N        3.25527980       1.05966015       3.60985904       0.00039016      -0.00057736      -0.00070977
N        2.08415075       2.71589249       5.63831510      -0.00039585       0.00060982       0.00066826
N        2.08415323       2.71588665       3.60985712      -0.00039576       0.00058591      -0.00071898
N        3.25528269       1.05965855       5.63831487       0.00041057      -0.00058830       0.00069371
