9
Lattice="5.009412954579678 -4.5226282608735575e-08 2.8921857657520236 1.669804294333839 4.722919794076428 2.8921857332235197 4.331208156642812e-08 -9.212890035962556e-09 5.784371456485311" Properties=species:S:1:pos:R:3:forces:R:3 energy=-44.17583465576172 free_energy=-44.17583465576172 stress="-5.814200994791463e-05 -1.3537209131442296e-09 -2.3042284524876777e-08 -1.3537209131442296e-09 -5.813536699861288e-05 -5.4956434958342015e-09 -2.3042284524876777e-08 -5.4956434958342015e-09 -5.805032924399711e-05" pbc="T T T"
V        1.66980439       1.18073026       2.89218590       0.00000236       0.00000113       0.00000469
V        5.00941294       3.54218975       8.67655795       0.00000303      -0.00000003       0.00000558
C       -0.00000914      -0.00000196      -0.00001531      -0.00019094      -0.00004231      -0.00032088
S        1.60015119       1.13147764       5.78437140      -0.00024116      -0.00017059      -0.00000008
S        5.07907362       3.59144701       5.78437109       0.00038636       0.00027066       0.00000072
S        4.20933734       1.13147800       4.27795673       0.00012158      -0.00017142      -0.00021243
S        2.46987602       3.59144713       7.29079154      -0.00019176       0.00027087       0.00032905
S        2.46988116       3.59144039       4.27795877      -0.00010033       0.00014192      -0.00017387
S        4.20934172       1.13147094       7.29079361       0.00021130      -0.00030026       0.00036734
