9
Lattice="5.993918315876454 3.694560374830123e-08 3.460590490372456 1.9979728318804195 5.651120442002513 3.4605904469170734 4.507126057536664e-08 -2.1351566361202882e-08 6.921180902679205" Properties=species:S:1:pos:R:3:forces:R:3 energy=-36.605289459228516 free_energy=-36.605289459228516 stress="-6.293591923167696e-07 9.517108878753788e-09 1.7276093056128872e-10 9.517108878753788e-09 -6.440801598728285e-07 1.0498012237292187e-08 1.7276093056128872e-10 1.0498012237292187e-08 -6.625398327742005e-07" pbc="T T T"
V        1.99797314       1.41278083       3.46059031       0.00000061       0.00000385      -0.00000107
V        5.99391813       4.23834024      10.38177187      -0.00000189      -0.00000115       0.00000293
Cu       0.00000030       0.00000007      -0.00000024      -0.00000107      -0.00000223      -0.00000070
Te       2.09250839       1.47962699       6.92118104      -0.00033091      -0.00023402       0.00000001
Te       5.89938267       4.17149334       6.92118076       0.00033273       0.00023423      -0.00000140
Te       4.94766420       1.47962688       5.27275569       0.00016486      -0.00023244      -0.00028630
Te       3.04422686       4.17149322       8.56960612      -0.00016599       0.00023344       0.00028917
Te       3.04422710       4.17149346       5.27275562      -0.00016436       0.00023280      -0.00028774
Te       4.94766403       1.47962682       8.56960622       0.00016600      -0.00023448       0.00028527
