9
Lattice="5.347863738266634 4.804568120991233e-09 3.087590651644214 1.7826213998791358 5.042014000590717 3.0875903931175164 3.7694094826547133e-07 -5.0091706035429186e-08 6.175180650407512" Properties=species:S:1:pos:R:3:forces:R:3 energy=-39.4956169128418 free_energy=-39.4956169128418 stress="-0.00010678739636205137 7.316427907966272e-09 -3.126839942524384e-08 7.316427907966272e-09 -0.00010675676458049566 -3.4301429252536764e-08 -3.126839942524384e-08 -3.4301429252536764e-08 -0.00010675819066818804" pbc="T T T"
V        1.78261761       1.26050667       3.08759598      -0.00001362       0.00001313       0.00002190
V        5.34786481       3.78150957       9.26277249       0.00000112      -0.00000321       0.00000515
Cu       0.00000012       0.00000030       0.00000022       0.00000133      -0.00000036      -0.00000116
Se       1.96588116       1.39008853       6.17517950      -0.00316104      -0.00223523       0.00000334
Se       5.16460539       3.65192466       6.17518100       0.00316194       0.00223204      -0.00000083
Se       4.36492271       1.39008781       4.79009238       0.00158103      -0.00223941      -0.00274259
Se       2.76556200       3.65192694       7.56026697      -0.00157592       0.00223240       0.00272799
Se       2.76556209       3.65192401       4.79009173      -0.00157858       0.00223491      -0.00274414
Se       4.36492625       1.39008760       7.56026642       0.00158383      -0.00223416       0.00273040
