9
Lattice="4.3226474582685785 -1.6439974448942403e-08 2.495681721477893 1.4408824782084284 4.075431081802271 2.495681708282004 -2.7308976922421195e-08 -3.5471959811936744e-08 4.991363490256323" Properties=species:S:1:pos:R:3:forces:R:3 energy=-50.280548095703125 free_energy=-50.280548095703125 stress="0.0002349318383494392 -8.056596811911731e-08 1.1901030916305899e-07 -8.056596811911731e-08 0.0002347558329347521 -8.131050321935618e-08 1.1901030916305899e-07 -8.131050321935618e-08 0.00023482134565711021" pbc="T T T"
V        1.44088196       1.01885807       2.49568204      -0.00000597       0.00000167       0.00000563
V        4.32264788       3.05657376       7.48704527       0.00000759       0.00000938       0.00000161
Cu       0.00000014      -0.00000007       0.00000019      -0.00000420       0.00000696      -0.00000956
O        1.47231654       1.04108511       4.99136331      -0.00139347      -0.00098413      -0.00000173
O        4.29121313       3.03434591       4.99136376       0.00139779       0.00098222      -0.00000036
O        3.58648924       1.04108492       3.77074530       0.00069508      -0.00098804      -0.00120467
O        2.17704085       3.03434601       6.21198153      -0.00069897       0.00098541       0.00120583
O        2.17704067       3.03434589       3.77074529      -0.00069970       0.00098041      -0.00120226
O        3.58648921       1.04108458       6.21198100       0.00070120      -0.00099322       0.00120577
