9
Lattice="5.132524200290284 -2.3724938904498878e-08 2.963264149488834 1.7108413889044003 4.83899012604735 2.9632641301319187 1.780659167763024e-08 -1.1116094617592163e-08 5.926528268135734" Properties=species:S:1:pos:R:3:forces:R:3 energy=-41.94662094116211 free_energy=-41.94662094116211 stress="0.00015279259241651744 1.1126217280832407e-08 -3.0918125837331445e-09 1.1126217280832407e-08 0.0001527818531030789 1.579668662543554e-08 -3.0918125837331445e-09 1.579668662543554e-08 0.00015267026901710778" pbc="T T T"
V        1.71084063       1.20974718       2.96326442      -0.00000295      -0.00000094       0.00000192
V        5.13252386       3.62924205       8.88979317      -0.00000039      -0.00000248       0.00000312
Cu       0.00000042       0.00000007       0.00000023      -0.00000339      -0.00000113      -0.00000277
S        1.80223685       1.27437407       5.92652832      -0.00490266      -0.00346810       0.00000075
S        5.04112897       3.56461624       5.92652798       0.00490671       0.00347137      -0.00000050
S        4.23140611       1.27437434       4.52404675       0.00245401      -0.00346708      -0.00424963
S        2.61195958       3.56461605       7.32900926      -0.00245389       0.00346875       0.00424796
S        2.61195960       3.56461619       4.52404692      -0.00245282       0.00346816      -0.00424749
S        4.23140633       1.27437413       7.32900900       0.00245506      -0.00346828       0.00424755
