9
Lattice="4.3264058206073726 -0.00010826610236662357 2.4978199538639574 1.4421010781075592 4.0788417457832775 2.497702383900141 4.737376048540554e-06 -0.00014064294680653342 4.995631701541412" Properties=species:S:1:pos:R:3:forces:R:3 energy=-70.68932342529297 free_energy=-70.68932342529297 stress="7.477003964595497e-05 -2.8929169275215827e-05 -2.825383489835076e-05 -2.8929169275215827e-05 3.3589923987165093e-05 -5.7173318054992706e-05 -2.825383489835076e-05 -5.7173318054992706e-05 2.4592633053543977e-05" pbc="T T T"
V        1.44224634       1.01969637       2.49770055      -0.00089375      -0.00081204       0.00090389
V        4.32647280       3.05898715       7.49328800      -0.00054492      -0.00063438       0.00029174
Fe       0.00002869      -0.00001726      -0.00008204       0.00286010       0.00115071       0.00599875
N        1.55137059       1.09679021       4.99553321      -0.00027394      -0.00018287      -0.00020209
N        4.21721579       2.98183409       4.99551429      -0.00041580      -0.00113916      -0.00089185
N        3.55074686       1.09679286       3.84126831       0.00046968       0.00031090      -0.00139737
N        2.21786423       2.98174545       6.14983396       0.00004756      -0.00057173      -0.00176644
N        2.21779201       2.98186492       3.84109820      -0.00047445       0.00113463      -0.00138497
N        3.55082316       1.09668991       6.14995503      -0.00077713       0.00074291      -0.00155187
