9
Lattice="5.521195957539697 -6.664396243973474e-08 3.1876638274868334 1.8403985023427296 5.205433528361526 3.1876639787606313 -1.7277282184675316e-07 6.310306412311928e-08 6.375327954224922" Properties=species:S:1:pos:R:3:forces:R:3 energy=-44.79205322265625 free_energy=-44.79205322265625 stress="-1.0266295248584356e-05 -4.218773952402444e-08 -6.734570234812054e-08 -4.218773952402444e-08 -1.0244042641716078e-05 1.278011865224471e-07 -6.734570234812054e-08 1.278011865224471e-07 -1.022121068672277e-05" pbc="T T T"
V        1.84039775       1.30135924       3.18766390      -0.00000470       0.00000222      -0.00000133
V        5.52119492       3.90407481       9.56299120      -0.00000459      -0.00000076      -0.00000471
Fe       0.00000016       0.00000008       0.00000026       0.00000287       0.00000003      -0.00001193
Se       1.85863311       1.31425263       6.37532848      -0.00549090      -0.00388145       0.00000222
Se       5.50296110       3.89118134       6.37532766       0.00549209       0.00387782      -0.00000010
Se       4.59187881       1.31425240       4.79728781       0.00274546      -0.00388390      -0.00475588
Se       2.76971686       3.89118046       7.95336814      -0.00274490       0.00389063       0.00476825
Se       2.76971493       3.89118145       4.79728744      -0.00274323       0.00387791      -0.00474894
Se       4.59187929       1.31425174       7.95336829       0.00274800      -0.00388250       0.00475204
