9
Lattice="5.935335538541335 1.2602463592525358e-08 3.426767708005604 1.978445167319114 5.595888184066522 3.426767749707069 -3.4949756164649666e-08 2.6360486725441896e-08 6.8535354765459715" Properties=species:S:1:pos:R:3:forces:R:3 energy=-42.221214294433594 free_energy=-42.221214294433594 stress="-5.7753375585889444e-05 -7.582499961245048e-08 5.57096635489529e-09 -7.582499961245048e-08 -5.768698247266002e-05 5.588634444109175e-09 5.57096635489529e-09 5.588634444109175e-09 -5.762284490629099e-05" pbc="T T T"
V        1.97844590       1.39897237       3.42676786       0.00000358       0.00000164       0.00000139
V        5.93533583       4.19691628      10.28030242       0.00000133       0.00000025      -0.00000396
Fe       0.00000020      -0.00000033      -0.00000081      -0.00000156       0.00000792       0.00000835
Te       1.97229902       1.39462644       6.85353561      -0.00689957      -0.00487716       0.00000130
Te       5.94148149       4.20126207       6.85353588       0.00689509       0.00487506       0.00000234
Te       4.94918512       1.39462615       5.13482925       0.00345001      -0.00488668      -0.00598252
Te       2.96459473       4.20126202       8.57224212      -0.00344748       0.00487714       0.00597443
Te       2.96459458       4.20126165       5.13482925      -0.00345199       0.00488003      -0.00597795
Te       4.94918581       1.39462627       8.57224216       0.00345060      -0.00487831       0.00597674
