9
Lattice="4.375822455640316 -2.4037284962772224e-08 2.526382303740114 1.458607459066066 4.125565048479163 2.526382309775944 3.027892298572331e-08 2.880277441929383e-08 5.0527645550356075" Properties=species:S:1:pos:R:3:forces:R:3 energy=-54.146949768066406 free_energy=-54.146949768066406 stress="0.0002911758201662451 2.6827725818634462e-08 2.657523801019579e-08 2.6827725818634462e-08 0.000291375006781891 -7.312353389465898e-09 2.657523801019579e-08 -7.312353389465898e-09 0.00029113900382071733" pbc="T T T"
V        1.45860778       1.03139135       2.52638261       0.00000662       0.00000267       0.00000338
V        4.37582251       3.09417345       7.57914879      -0.00000046      -0.00000598       0.00002379
Fe      -0.00000007       0.00000007       0.00000001       0.00000326      -0.00000086       0.00000507
O        1.44317009       1.02047576       5.05276424      -0.00099412      -0.00070015      -0.00000385
O        4.39125987       3.10508970       5.05276397       0.00098962       0.00069988      -0.00000838
O        3.65423742       1.02047577       3.77620419       0.00049718      -0.00069612      -0.00086291
O        2.18019199       3.10508938       6.32932446      -0.00050213       0.00070165       0.00085351
O        2.18019321       3.10508949       3.77620390      -0.00049053       0.00069900      -0.00086661
O        3.65423698       1.02047534       6.32932472       0.00049108      -0.00070038       0.00085570
