9
Lattice="6.205282190346865 -4.610146881107406e-08 3.582621375742449 2.0684273482159776 5.85039621457669 3.5826213845783497 -2.513609472997299e-09 9.044368792226082e-09 7.16524275583858" Properties=species:S:1:pos:R:3:forces:R:3 energy=-36.22634506225586 free_energy=-36.22634506225586 stress="-9.404611046193168e-05 -6.257566909084744e-09 5.644698486406696e-09 -6.257566909084744e-09 -9.406387835042551e-05 -1.8243827781816435e-08 5.644698486406696e-09 -1.8243827781816435e-08 -9.402824798598886e-05" pbc="T T T"
V        2.06842688       1.46259953       3.58262145      -0.00000292       0.00000277       0.00000042
V        6.20528212       4.38779708      10.74786485      -0.00000140      -0.00000132       0.00000440
Ge      -0.00000011       0.00000016      -0.00000024       0.00000095       0.00000060       0.00000383
Te       2.20208041       1.55710602       7.16524273      -0.00273353      -0.00193299       0.00000069
Te       6.07162928       4.29328998       7.16524243       0.00273286       0.00193156      -0.00000177
Te       5.10424209       1.55710643       5.48967894       0.00136939      -0.00193213      -0.00236905
Te       3.16946742       4.29328994       8.84080650      -0.00136568       0.00193030       0.00236563
Te       3.16946771       4.29328975       5.48967893      -0.00136758       0.00193349      -0.00236930
Te       5.10424234       1.55710576       8.84080647       0.00136776      -0.00193226       0.00236516
