9
Lattice="4.385112575244652 5.422894064001046e-08 2.531746002838286 1.4617042508556815 4.134323630859546 2.531745989016647 4.826853342695991e-08 1.720303180457039e-08 5.063491922073027" Properties=species:S:1:pos:R:3:forces:R:3 energy=-55.72178649902344 free_energy=-55.72178649902344 stress="0.00022680775146000087 3.7174612277368624e-09 3.4361966605445105e-09 3.7174612277368624e-09 0.0002269781252834946 -5.177139072998216e-08 3.4361966605445105e-09 -5.177139072998216e-08 0.00022646661091130227" pbc="T T T"
V        1.46170392       1.03358035       2.53174597      -0.00000099      -0.00000523      -0.00000151
V        4.38511219       3.10074372       7.59523817      -0.00000466       0.00001073       0.00000545
Ge      -0.00000002       0.00000003       0.00000002      -0.00000033       0.00000140       0.00000542
O        1.49731494       1.05876101       5.06349195      -0.00073349      -0.00052202       0.00000077
O        4.34950224       3.07556256       5.06349194       0.00073504       0.00052047      -0.00000098
O        3.63645551       1.05876116       3.82845862       0.00036943      -0.00052238      -0.00063372
O        2.21036160       3.07556261       6.29852522      -0.00036508       0.00051522       0.00062954
O        2.21036193       3.07556251       3.82845838      -0.00036371       0.00052011      -0.00063610
O        3.63645528       1.05876105       6.29852535       0.00036395      -0.00051796       0.00063229
