9
Lattice="4.047590289608807 1.0698447377286873e-06 2.3368812626273057 1.3491974258530819 3.8161077905705953 2.336881861932043 2.2899144834223577e-06 2.3532096074886956e-06 4.6737585590058925" Properties=species:S:1:pos:R:3:forces:R:3 energy=-59.251976013183594 free_energy=-59.251976013183594 stress="-0.00021345684945117682 -9.134169886237942e-06 -2.9342947527766228e-05 -9.134169886237942e-06 -0.0002540099376346916 -2.5096758690779097e-05 -2.9342947527766228e-05 -2.5096758690779097e-05 -0.0002671259571798146" pbc="T T T"
V        1.34919934       0.95402711       2.33688173       0.00012122      -0.00000659       0.00010593
V        4.04759191       2.86208425       7.01063812      -0.00006440       0.00003774      -0.00016722
Ge       0.00000118       0.00001766      -0.00000898      -0.00066455      -0.00720002       0.00402517
N        1.66181764       1.17507713       4.67375467       0.00352955       0.00286102      -0.00073529
N        3.73496797       2.64102588       4.67376891      -0.00182056      -0.00041866      -0.00003866
N        3.21667472       1.17507527       3.77605254      -0.00179338       0.00234890       0.00174809
N        2.18010788       2.64102945       5.57147080       0.00141144      -0.00081730      -0.00222874
N        2.18010905       2.64102389       3.77605725       0.00084829      -0.00028515       0.00066185
N        3.21669053       1.17508424       5.57147212      -0.00156260       0.00348091      -0.00337219
