9
Lattice="4.263261490977113 5.84747167786589e-09 2.461395142495632 1.4210871862219507 4.019441417870688 2.461395112964385 1.7727203493840966e-08 -2.3633196081039457e-08 4.922790254286852" Properties=species:S:1:pos:R:3:forces:R:3 energy=-70.11774444580078 free_energy=-70.11774444580078 stress="8.500007243128493e-05 5.892346166547213e-08 1.831359774939756e-08 5.892346166547213e-08 8.474984497297555e-05 -8.491697656154429e-08 1.831359774939756e-08 -8.491697656154429e-08 8.486571459798142e-05" pbc="T T T"
V        1.42108705       1.00486030       2.46139517      -0.00000064       0.00000176       0.00000117
V        4.26326175       3.01458108       7.38418553       0.00000112      -0.00000358      -0.00000182
Hf       0.00000001      -0.00000005      -0.00000003       0.00000088      -0.00000245       0.00000680
N        1.63943263       1.15925395       4.92279021       0.00125882       0.00089085       0.00000005
N        4.04491607       2.86018743       4.92279031      -0.00126466      -0.00089279       0.00000067
N        3.44354535       1.15925387       3.88118521      -0.00062980       0.00089514       0.00109297
N        2.24080325       2.86018766       5.96439517       0.00063303      -0.00089347      -0.00109884
N        2.24080334       2.86018744       3.88118532       0.00063221      -0.00089195       0.00109404
N        3.44354531       1.15925385       5.96439518      -0.00063160       0.00089636      -0.00109494
