9
Lattice="3.143384258679704 -1.230298597309129 1.5240835626698461 0.4681581350714176 1.7490612620442252 1.0943063548082503 0.9134978635787179 -1.6615914827028948 3.443162062701615" Properties=species:S:1:pos:R:3:forces:R:3 energy=-8033420.5 free_energy=-8033420.5 stress="961995.8125 -152274.875 705048.625 -152274.875 2322078.25 -75227.6484375 705048.625 -75227.6484375 1600733.875" pbc="T T T"
V        0.31977664      -3.08698502       3.98892165 3281829.50000000 7219641.00000000 -9077363.00000000
V        3.79122850      -3.28950461       5.86235747 -23917560.00000000 -926925.12500000 -23677850.00000000
Ir      -0.18252082      -2.16596983       1.86144468 1622472.62500000  751403.50000000 -1152705.50000000
N        2.82231536      -3.50537498       5.18621232 4715193.50000000  312961.00000000 2324182.50000000
N        3.17795565      -2.52752485       5.26073919 1970960.37500000 -13013112.00000000 3798477.50000000
N        3.61823197      -3.40372916       5.45161332 11236361.00000000 3912739.75000000 25930598.00000000
N        2.84769211      -3.11357799       6.19326402 -1864878.25000000  756707.87500000 1774126.87500000
N        1.94548112      -3.09962776       3.89659560 2115965.25000000 -1126934.75000000  762653.81250000
N        2.86988079      -3.87611507       6.10271100  839669.25000000 2113534.00000000 -682116.00000000
