9
Lattice="5.341926178436324 -4.9833530342085906e-08 3.084162135406386 1.7806419777029698 5.0364170371535675 3.0841621956682954 -1.5479812312307754e-07 -3.5653354884580186e-08 6.168324538931027" Properties=species:S:1:pos:R:3:forces:R:3 energy=-37.24906921386719 free_energy=-37.24906921386719 stress="0.00010891832789639011 -9.59289891966364e-08 2.075251614996887e-08 -9.59289891966364e-08 0.00010896079038502648 3.8524817114193866e-08 2.075251614996887e-08 3.8524817114193866e-08 0.00010920146451098844" pbc="T T T"
V        1.78064217       1.25910529       3.08416111       0.00000025       0.00000451      -0.00000470
V        5.34192750       3.77731605       9.25248903       0.00000646       0.00001501       0.00000995
Mg       0.00000011      -0.00000020      -0.00000075      -0.00000284      -0.00000024       0.00001134
Se       1.99347003       1.40959491       6.16832457      -0.00223720      -0.00158349      -0.00000045
Se       5.12909840       3.62682038       6.16832257       0.00223646       0.00157738      -0.00000215
Se       4.34518984       1.40959516       4.81055914       0.00112203      -0.00159815      -0.00194785
Se       2.77737566       3.62681985       7.52609044      -0.00111926       0.00157398       0.00193542
Se       2.77737778       3.62682096       4.81055895      -0.00112230       0.00158966      -0.00194138
Se       4.34519063       1.40959533       7.52609040       0.00111635      -0.00157893       0.00193971
