9
Lattice="5.094076538144975 1.4763320436496176e-07 2.941066415397862 1.6980255848336285 4.80274186007949 2.94106653156863 2.1923109789556714e-07 2.972993126963094e-07 5.882132451076288" Properties=species:S:1:pos:R:3:forces:R:3 energy=-39.923187255859375 free_energy=-39.923187255859375 stress="9.506423521088436e-05 -5.4485298051076825e-08 -4.325596947296617e-08 -5.4485298051076825e-08 9.510893141850829e-05 5.254099377793864e-08 -4.325596947296617e-08 5.254099377793864e-08 9.512497490504757e-05" pbc="T T T"
V        1.69802444       1.20068574       2.94106624      -0.00000243       0.00000102       0.00000279
V        5.09407615       3.60205701       8.82320162      -0.00000044       0.00000154       0.00000179
Mg       0.00000041      -0.00000013      -0.00000099      -0.00001141      -0.00001030       0.00001144
S        1.81664953       1.28456624       5.88213313       0.00732501       0.00518419      -0.00000471
S        4.97545192       3.51817639       5.88213080      -0.00730985      -0.00516760      -0.00000927
S        4.18575276       1.28456655       4.51433141      -0.00365117       0.00516601       0.00633462
S        2.60635135       3.51817483       7.24993401       0.00366057      -0.00517944      -0.00633024
S        2.60635152       3.51817659       4.51433141       0.00365494      -0.00517139       0.00633335
S        4.18575113       1.28456620       7.24993408      -0.00366548       0.00517590      -0.00633995
