9
Lattice="6.219290712838742 4.87461398001703e-08 3.5907090878936336 2.0730969456498736 5.863603539516439 3.5907090958402987 2.9711608832004888e-08 3.0741948512906946e-08 7.181418124325245" Properties=species:S:1:pos:R:3:forces:R:3 energy=-33.94956588745117 free_energy=-33.94956588745117 stress="-2.8255767574592028e-06 2.4736729997698603e-08 -4.347506799007306e-09 2.4736729997698603e-08 -2.84931138594402e-06 -1.033833285646324e-08 -4.347506799007306e-09 -1.033833285646324e-08 -2.843079073500121e-06" pbc="T T T"
V        2.07309634       1.46590017       3.59070941      -0.00000271      -0.00000509       0.00000217
V        6.21929090       4.39770315      10.77212670      -0.00000042       0.00000233      -0.00000082
Mg       0.00000004       0.00000057      -0.00000061      -0.00000103      -0.00000847       0.00001217
Te       2.23080998       1.57742049       7.18141794       0.00002812       0.00001730       0.00000045
Te       6.06157747       4.28618269       7.18141844      -0.00002119      -0.00001476       0.00000079
Te       5.10388576       1.57742059       5.52264738      -0.00001092       0.00001483       0.00002275
Te       3.18850177       4.28618356       8.84018865       0.00001454      -0.00001829      -0.00002500
Te       3.18850223       4.28618250       5.52264763       0.00000950      -0.00001197       0.00001656
Te       5.10388633       1.57742077       8.84018972      -0.00001574       0.00002417      -0.00002895
