9
Lattice="4.348104668367951 -4.4282845952115895e-08 2.5103794289668615 1.4493681667623897 4.099432598640279 2.510379453694752 -3.6989364008497363e-09 2.7669809770597185e-08 5.020758864340472" Properties=species:S:1:pos:R:3:forces:R:3 energy=-48.93339157104492 free_energy=-48.93339157104492 stress="-0.00018829233886208385 -1.227801931236172e-07 -1.6253528656307026e-07 -1.227801931236172e-07 -0.00018831429770216346 1.2140467298138446e-08 -1.6253528656307026e-07 1.2140467298138446e-08 -0.0001881048083305359" pbc="T T T"
V        1.44936851       1.02485870       2.51037892       0.00000442       0.00000612      -0.00000489
V        4.34810432       3.07457365       7.53113879      -0.00000285      -0.00000747       0.00000348
Mg      -0.00000029      -0.00000021      -0.00000035       0.00001625       0.00000663       0.00001403
O        1.54759146       1.09431248       5.02075856      -0.00086516      -0.00060865       0.00000248
O        4.24988159       3.00512020       5.02075890       0.00084934       0.00059631      -0.00000008
O        3.57430894       1.09431301       3.85063306       0.00043820      -0.00060868      -0.00075057
O        2.22316396       3.00511981       6.19088471      -0.00043301       0.00060332       0.00074565
O        2.22316427       3.00511985       3.85063329      -0.00042920       0.00061426      -0.00075242
O        3.57430848       1.09431269       6.19088513       0.00042191      -0.00060230       0.00074175
