9
Lattice="4.356642430003892 -6.138377280057971e-08 2.515308787453422 1.452214089605594 4.107481893687729 2.515308780275573 1.3916328635828886e-08 1.0492908456464581e-09 5.030617550803054" Properties=species:S:1:pos:R:3:forces:R:3 energy=-79.7516860961914 free_energy=-79.7516860961914 stress="4.113666727789678e-05 -3.1741654993311386e-07 -3.710141811552603e-07 -3.1741654993311386e-07 4.225655357004143e-05 5.898154427086411e-07 -3.710141811552603e-07 5.898154427086411e-07 4.213800639263354e-05" pbc="T T T"
V        1.45221414       1.02687038       2.51530874      -0.00001324       0.00001011       0.00000522
V        4.35664260       3.08061119       7.54592631      -0.00001655       0.00001036       0.00002722
Mn      -0.00000186       0.00000016       0.00000025       0.00028281      -0.00004702      -0.00008353
N        1.54290415       1.09099774       5.03061757       0.00074506       0.00056624       0.00000708
N        4.26595290       3.01648388       5.03061728      -0.00081325      -0.00050473       0.00003334
N        3.58519082       1.09099783       3.85150280      -0.00043738       0.00051332       0.00065136
N        2.22366630       3.01648432       6.20973250       0.00036192      -0.00055170      -0.00068593
N        2.22366625       3.01648403       3.85150249       0.00033343      -0.00054216       0.00070214
N        3.58519079       1.09099772       6.20973249      -0.00044143       0.00054431      -0.00065660
