9
Lattice="4.259038589498743 -1.0298625857138944e-07 2.4589570974164765 1.4196794728506477 4.015460127144258 2.458957027936817 -7.381452270769698e-09 -9.031433994113552e-08 4.9179142076179945" Properties=species:S:1:pos:R:3:forces:R:3 energy=-68.29916381835938 free_energy=-68.29916381835938 stress="0.00039375817868858576 9.33112644929679e-08 3.770796652702302e-08 9.33112644929679e-08 0.00039342293166555464 -1.0562087737753245e-07 3.770796652702302e-08 -1.0562087737753245e-07 0.0003936003486160189" pbc="T T T"
V        1.41967964       1.00386525       2.45895712       0.00000171       0.00000125       0.00000203
V        4.25903844       3.01159477       7.37687075       0.00000009      -0.00000168      -0.00000459
Nb      -0.00000016       0.00000023      -0.00000028       0.00000010      -0.00000286       0.00000612
N        1.62938944       1.15215206       4.91791391       0.00246266       0.00173882      -0.00000232
N        4.04932900       2.86330761       4.91791447      -0.00246143      -0.00174227       0.00000514
N        3.44434375       1.15215215       3.87004942      -0.00123277       0.00174111       0.00213194
N        2.23437422       2.86330788       5.96577899       0.00123817      -0.00174379      -0.00213298
N        2.23437374       2.86330764       3.87004970       0.00122535      -0.00173980       0.00213009
N        3.44434412       1.15215206       5.96577933      -0.00123411       0.00174868      -0.00213498
