9
Lattice="5.980966983494722 2.941316092422755e-08 3.453112728357662 1.9936556453784284 5.6389097547068046 3.453112803732139 -1.3892837036703061e-08 8.249079449824953e-08 6.906225480778409" Properties=species:S:1:pos:R:3:forces:R:3 energy=-39.06179428100586 free_energy=-39.06179428100586 stress="3.1263302844308782e-06 4.269487874353217e-09 -1.448670339243563e-08 4.269487874353217e-09 3.1393085464515025e-06 1.9201774392740845e-08 -1.448670339243563e-08 1.9201774392740845e-08 3.1475133255298715e-06" pbc="T T T"
V        1.99365626       1.40972765       3.45311271       0.00000251      -0.00000010      -0.00000123
V        5.98096558       4.22918263      10.35933792      -0.00000702       0.00000159      -0.00000305
Ni       0.00000008      -0.00000021      -0.00000090       0.00000121       0.00000116       0.00000594
Te       2.05289789       1.45161779       6.90622564       0.00027968       0.00019456       0.00000030
Te       5.92172484       4.18729210       6.90622556      -0.00027944      -0.00019687       0.00000108
Te       4.95451782       1.45161791       5.23097439      -0.00013895       0.00019541       0.00023903
Te       3.02010511       4.18729185       8.58147726       0.00014307      -0.00019860      -0.00023916
Te       3.02010473       4.18729190       5.23097412       0.00014000      -0.00019640       0.00024070
Te       4.95451815       1.45161785       8.58147737      -0.00014106       0.00019929      -0.00024365
