9
Lattice="4.055255149143229 1.245628550838096e-07 2.341302356946758 1.351751910819652 3.823330345069748 2.3413022235796475 9.179042372774277e-08 -9.843504526702654e-08 4.682604554907875" Properties=species:S:1:pos:R:3:forces:R:3 energy=-62.80867004394531 free_energy=-62.80867004394531 stress="7.888940308475867e-05 -9.027684200191288e-07 -1.590245801708079e-07 -9.027684200191288e-07 7.996614294825122e-05 -7.769554599690309e-08 -1.590245801708079e-07 -7.769554599690309e-08 7.938430644571781e-05" pbc="T T T"
V        1.35175372       0.95583185       2.34130268       0.00002719      -0.00000769       0.00000058
V        4.05525349       2.86749742       7.02390689      -0.00003250      -0.00001330      -0.00001408
Ni      -0.00000001      -0.00000016       0.00000023      -0.00000113       0.00000197      -0.00001359
N        1.50398810       1.06347972       4.68260530      -0.00130773      -0.00092861       0.00000978
N        3.90301792       2.75985101       4.68260586       0.00129336       0.00093710       0.00001731
N        3.30326062       1.06348139       3.64379396       0.00064278      -0.00091109      -0.00114918
N        2.10374828       2.75984914       5.72141345      -0.00062883       0.00092643       0.00114083
N        2.10374705       2.75984867       3.64379364      -0.00063795       0.00090942      -0.00114655
N        3.30325963       1.06348258       5.72141469       0.00064427      -0.00091425       0.00115532
