9
Lattice="5.114492357685962 7.706403833699874e-09 2.9528534652265717 1.704830799752519 4.821989407856693 2.95285345380977 -3.429761620091492e-08 -3.823482014908138e-08 5.905706989858367" Properties=species:S:1:pos:R:3:forces:R:3 energy=-45.269779205322266 free_energy=-45.269779205322266 stress="-1.6078904081950895e-05 2.100213691846875e-08 -1.3127411158109226e-08 2.100213691846875e-08 -1.6122528904816136e-05 1.1381985132175032e-08 -1.3127411158109226e-08 1.1381985132175032e-08 -1.6099766071420163e-05" pbc="T T T"
V        1.70483105       1.20549782       2.95285294      -0.00000066       0.00000061      -0.00000217
V        5.11449247       3.61649145       8.85856098      -0.00000014      -0.00000113       0.00000149
Ni      -0.00000020      -0.00000012       0.00000037       0.00000055       0.00000272      -0.00001898
S        1.74478630       1.23375027       5.90570686      -0.00161874      -0.00114533      -0.00000213
S        5.07453681       3.58823951       5.90570657       0.00161561       0.00114268      -0.00000026
S        4.24209969       1.23375010       4.46388276       0.00080624      -0.00113910      -0.00139609
S        2.57722383       3.58823863       7.34753139      -0.00081119       0.00114885       0.00140551
S        2.57722377       3.58823964       4.46388253      -0.00080386       0.00113764      -0.00139308
S        4.24209880       1.23375026       7.34753122       0.00081213      -0.00114697       0.00140563
