9
Lattice="4.240749895355395 -2.8443715837637808e-08 2.448397964826995 1.4135832805439392 3.9982170570809297 2.4483979493959227 -1.39753655928211e-08 -2.878120858613187e-08 4.896795953860015" Properties=species:S:1:pos:R:3:forces:R:3 energy=-50.44563674926758 free_energy=-50.44563674926758 stress="-0.00022941286442801356 7.30730533859969e-08 4.012102650108318e-08 7.30730533859969e-08 -0.00022914227156434208 1.2510645319707692e-07 4.012102650108318e-08 1.2510645319707692e-07 -0.00022953495499677956" pbc="T T T"
V        1.41358460       0.99955349       2.44839952       0.00001756      -0.00001115       0.00001805
V        4.24075193       2.99866489       7.34519481       0.00002507       0.00002903       0.00001537
Ni       0.00000000      -0.00000000       0.00000002       0.00000508      -0.00000252       0.00000480
O        1.43202817       1.01259648       4.89679571      -0.00538946      -0.00381472      -0.00000672
O        4.22230471       2.98562062       4.89679529       0.00538103       0.00381415      -0.00000672
O        3.52473441       1.01259627       3.68857032       0.00267748      -0.00381874      -0.00467163
O        2.12959673       2.98562051       6.10502052      -0.00270219       0.00381476       0.00465894
O        2.12959660       2.98562025       3.68857076      -0.00270309       0.00380876      -0.00466421
O        3.52473559       1.01259554       6.10502036       0.00268862      -0.00381958       0.00465138
