9
Lattice="5.33671533484682 -4.675694015209713e-08 3.0811544698024633 1.7789051935707454 5.031503502986736 3.0811542514983463 2.071976055869656e-07 -1.2085616353642445e-07 6.162308580728262" Properties=species:S:1:pos:R:3:forces:R:3 energy=-41.682376861572266 free_energy=-41.682376861572266 stress="0.0001462962245568633 -1.192723431131526e-07 1.6942079739123983e-08 -1.192723431131526e-07 0.0001463634689571336 -5.0552905861422914e-08 1.6942079739123983e-08 -5.0552905861422914e-08 0.00014641766028944403" pbc="T T T"
V        1.77890533       1.25787764       3.08115316      -0.00000059       0.00000841      -0.00000643
V        5.33671412       3.77362721       9.24346176      -0.00000503      -0.00000086      -0.00000572
Ni       0.00000013       0.00000009       0.00000008       0.00000259      -0.00000398      -0.00000320
Se       1.88736311       1.33456690       6.16230845       0.00674906       0.00477318      -0.00000002
Se       5.22825803       3.69693666       6.16230815      -0.00675133      -0.00477186      -0.00000235
Se       4.39303443       1.33456652       4.71566002      -0.00337286       0.00477009       0.00584534
Se       2.72258724       3.69693464       7.60895987       0.00337529      -0.00477184      -0.00583443
Se       2.72258662       3.69693569       4.71565952       0.00337179      -0.00477152       0.00584170
Se       4.39303389       1.33456785       7.60895818      -0.00336900       0.00476828      -0.00583464
