9
Lattice="4.1700929207045485 6.653991676163811e-06 2.4076130344224005 1.3900368092518205 3.931591764648595 2.4076137926443817 9.233258208123175e-06 7.457528579155809e-06 4.815210076371069" Properties=species:S:1:pos:R:3:forces:R:3 energy=-61.74669647216797 free_energy=-61.74669647216797 stress="-0.0005855833878740668 -1.2969316003363929e-06 -1.4789815168114728e-06 -1.2969316003363929e-06 -0.0005826980923302472 -2.323913122381782e-06 -1.4789815168114728e-06 -2.323913122381782e-06 -0.0005865797866135836" pbc="T T T"
V        1.39013433       0.98302543       2.40767438       0.00109177       0.00139955       0.00079776
V        4.17013979       2.94869028       7.22272646       0.00032761      -0.00023360      -0.00116644
Pd      -0.00002535      -0.00002054       0.00000658       0.00102195       0.00085668      -0.00025899
N        1.57146434       1.11122153       4.81522965      -0.00537872      -0.00365108       0.00027136
N        3.98877468       2.82043783       4.81537720       0.00383055       0.00246206       0.00099254
N        3.38428735       1.11118010       3.76843653       0.00171080      -0.00295419      -0.00430676
N        2.17574560       2.82041400       5.86193704      -0.00234550       0.00325039       0.00390628
N        2.17566381       2.82029443       3.76843127      -0.00257322       0.00225532      -0.00423208
N        3.38437189       1.11118174       5.86192859       0.00231448      -0.00338489       0.00399700
