9
Lattice="4.16208172066785 -1.1169990874969029e-08 2.402978925075332 1.3873605921328516 3.9240480443132384 2.402978874658681 2.7316551183682914e-08 -4.2431814282639435e-08 4.80595780283701" Properties=species:S:1:pos:R:3:forces:R:3 energy=-65.66524505615234 free_energy=-65.66524505615234 stress="7.002440543146804e-05 -5.492174537380379e-08 4.64511025199954e-08 -5.492174537380379e-08 6.985692016314715e-05 -1.1935447297162227e-08 4.64511025199954e-08 -1.1935447297162227e-08 7.005040242802352e-05" pbc="T T T"
V        1.38736014       0.98101188       2.40297871      -0.00000354      -0.00000192      -0.00000266
V        4.16208212       2.94303667       7.20893671       0.00000510       0.00000673      -0.00000014
P        0.00000020       0.00000000      -0.00000023      -0.00000156       0.00000086       0.00001314
N        1.36191913       0.96302180       4.80595789       0.00199211       0.00140786       0.00000050
N        4.18752329       2.96102619       4.80595783      -0.00199127      -0.00140792       0.00000041
N        3.48112246       0.96302176       3.58243549      -0.00098681       0.00139832       0.00172079
N        2.06831978       2.96102604       6.02948041       0.00099272      -0.00140840      -0.00172496
N        2.06831993       2.96102597       3.58243549       0.00098819      -0.00140083       0.00171745
N        3.48112230       0.96302171       6.02948037      -0.00099480       0.00140601      -0.00172484
