9
Lattice="3.119815498981459 -0.2687969720419883 2.6010260070728783 1.3724775482497689 1.3999506763610994 1.9792543784794134 1.5349324533513895 -0.6137559703904426 3.5132544038184865" Properties=species:S:1:pos:R:3:forces:R:3 energy=-11801168896.0 free_energy=-11801168896.0 stress="0.0 624076160.0 -1342486656.0 624076160.0 9023217664.0 -688303872.0 -1342486656.0 -688303872.0 8668375040.0" pbc="T T T"
V        2.05866490       0.57366046       0.28984287 -14042194944.00000000 1838863360.00000000 -7359912960.00000000
V        4.83032306       1.35110133       5.81229861 -3182780416.00000000 2194224128.00000000 7307530752.00000000
Pt       0.12346563      -0.40226126      -0.17277896 -461007360.00000000 3346155776.00000000 6575663616.00000000
N        3.40125249       1.24582823       4.08649441 -2937243392.00000000 -5693632512.00000000 -1392261760.00000000
N        4.44409066       0.55350008       3.44968391 1012843776.00000000 -3738461696.00000000 -932706688.00000000
N        4.42417354      -0.12927999       3.04788550 2895875072.00000000 6255037440.00000000 5007276032.00000000
N        2.73603248       2.37492902       3.99635942 5756397568.00000000 -25906272.00000000 -5772224512.00000000
N        3.22678789       0.69329311       4.07699322 345673184.00000000 2102101504.00000000 -4282500608.00000000
N        3.27810429       0.01941548       3.95938761 10612406272.00000000 -6278390272.00000000 849138944.00000000
