9
Lattice="4.268349000203305 7.769291855983433e-08 2.4643325415100743 1.4227830647156057 4.024237914960724 2.464332556408737 4.2985825408994655e-08 4.864264184124157e-08 4.928665008566497" Properties=species:S:1:pos:R:3:forces:R:3 energy=-70.7529525756836 free_energy=-70.7529525756836 stress="7.671088496863376e-06 6.816944164711458e-08 -1.5510536854890233e-08 6.816944164711458e-08 8.025611350603867e-06 9.189255933961249e-08 -1.5510536854890233e-08 9.189255933961249e-08 7.402136361633893e-06" pbc="T T T"
V        1.42278287       1.00605950       2.46433250      -0.00000097       0.00000218       0.00000159
V        4.26834932       3.01817858       7.39299786       0.00000256      -0.00000064       0.00000405
Re      -0.00000005      -0.00000007       0.00000001       0.00000209       0.00000059      -0.00000207
N        1.53386397       1.08460529       4.92866477      -0.00094068      -0.00066948      -0.00000487
N        4.15726873       2.93963230       4.92866462       0.00094557       0.00066328      -0.00000448
N        3.50141726       1.08460559       3.79269770       0.00046992      -0.00066590      -0.00081491
N        2.18971446       2.93963248       6.06463250      -0.00047588       0.00066364       0.00081408
N        2.18971474       2.93963263       3.79269777      -0.00047219       0.00066781      -0.00081336
N        3.50141725       1.08460576       6.06463282       0.00047004      -0.00066197       0.00082052
