9
Lattice="2.5537616199514925 1.2523264381772086 0.17749797705066403 1.3702072117919282 3.5638879058289636 0.22010671747406327 0.18874405121194504 0.2923014120392393 2.8234495119244434" Properties=species:S:1:pos:R:3:forces:R:3 energy=-173589408.0 free_energy=-173589408.0 stress="17226746.0 -9383870.0 -903379.75 -9383870.0 6170243.5 2456455.5 -903379.75 2456455.5 7854157.0" pbc="T T T"
V        0.19677106       2.80177300       0.70486223 -423239904.00000000 -228623712.00000000 757732864.00000000
V        2.88416226       4.38973596       3.72861919 611800448.00000000 72272056.00000000 -757133952.00000000
Rh       1.38681541       2.13034341       0.48966675 -322597056.00000000 72450472.00000000 -11977674.00000000
N        3.08905850       4.58206605       2.48053152 7250862.00000000 -19594294.00000000 -20170932.00000000
N        2.40593594       3.77700024       2.53803270 24002016.00000000 18235086.00000000 -29891578.00000000
N        0.98806489       1.10577669       1.11224912 8127182.00000000 7713253.00000000 -19000094.00000000
N        4.03661684       4.27949571       1.52704711 26184712.00000000 21915764.00000000 -14451393.00000000
N        3.49639884       4.15221871       1.66106738 -37547576.00000000 -14246975.00000000 21519272.00000000
N        3.57849858       3.66287747       3.34611366 106019616.00000000 69878400.00000000 73373664.00000000
