9
Lattice="3.9531518559452326 -0.12653992182297294 3.124171982113385 1.602470767953945 4.079107597551488 2.1384572277179026 0.18491524854563288 -0.7453123477382851 5.114025932206799" Properties=species:S:1:pos:R:3:forces:R:3 energy=-78.59666442871094 free_energy=-78.59666442871094 stress="0.0007083664531819522 -0.0018627481767907739 -0.0009234576718881726 -0.0018627481767907739 0.001025324803777039 -0.0025829693768173456 -0.0009234576718881726 -0.0025829693768173456 0.002490363782271743" pbc="T T T"
V        1.81615269       1.42996499       1.76246461       0.01613646       0.03639092       0.01789290
V        3.90868719       1.77091664       8.61210489       0.00720501      -0.03015561      -0.00353543
Ru      -0.00091811       0.00344883      -0.01069095      -0.02016348      -0.02529734       0.00899808
N        1.55276828       0.90319660       4.79060176       0.06332830       0.02044952      -0.02707219
N        4.18766056       2.28678083       5.59100164       0.04794353       0.05339042      -0.02026397
N        2.32288608       1.11194469       3.83413092      -0.07350442      -0.04082963       0.03811678
N        3.42627003       2.11666886       6.55880813       0.02681607      -0.03071260      -0.04979905
N        2.34601297       3.87899416       3.86282847      -0.00024539      -0.00153456       0.05616179
N        3.40263043      -0.67173809       6.50533451      -0.06751585       0.01829907      -0.02049890
