9
Lattice="4.161269393606314 4.7965768114975914e-08 2.4025102307801394 1.3870898602840127 3.9232828971375135 2.4025102010015464 -1.0164653706038103e-07 -1.0834618157052189e-07 4.8050206376172655" Properties=species:S:1:pos:R:3:forces:R:3 energy=-61.121788024902344 free_energy=-61.121788024902344 stress="0.0005896873772144318 -1.0823756468880674e-07 1.4086290889281372e-07 -1.0823756468880674e-07 0.0005895122303627431 2.4030813960962405e-07 1.4086290889281372e-07 2.4030813960962405e-07 0.0005894574569538236" pbc="T T T"
V        1.38708704       0.98082520       2.40251265      -0.00001566       0.00002536       0.00000939
V        4.16126913       2.94246485       7.20753023      -0.00000306       0.00001383      -0.00000174
Se       0.00000040      -0.00000094      -0.00000025       0.00000557       0.00000184       0.00001472
N        1.50663443       1.06535028       4.80502003       0.00602937       0.00425458      -0.00000169
N        4.04172576       2.85793031       4.80502057      -0.00602186      -0.00427067       0.00000194
N        3.40795273       1.06535033       3.70729396      -0.00301212       0.00425267       0.00521910
N        2.14040707       2.85793066       5.90274743       0.00301611      -0.00426853      -0.00522614
N        2.14040689       2.85793039       3.70729338       0.00301588      -0.00427163       0.00521934
N        3.40795301       1.06535028       5.90274695      -0.00301367       0.00426245      -0.00523484
