9
Lattice="4.178523536107086 -5.084287436149694e-08 2.412471659472193 1.3928411164438885 3.9395497975846654 2.412471684280957 -1.6167967527024807e-07 -8.394038921252903e-08 4.82494359898179" Properties=species:S:1:pos:R:3:forces:R:3 energy=-62.42083740234375 free_energy=-62.42083740234375 stress="-0.00019672595954034477 -1.072610373853422e-07 -8.342026802665714e-08 -1.072610373853422e-07 -0.00019636719662230462 2.5709121942441016e-08 -8.342026802665714e-08 2.5709121942441016e-08 -0.0001969105505850166" pbc="T T T"
V        1.39284128       0.98488847       2.41247196       0.00000207       0.00000668       0.00000372
V        4.17852326       2.95466234       7.23741598      -0.00000050       0.00000313       0.00000666
S       -0.00000042      -0.00000033      -0.00000037      -0.00000155      -0.00000388      -0.00000096
N        1.35646489       0.95916601       4.82494324       0.00236654       0.00167751      -0.00000314
N        4.21489943       2.98038364       4.82494327      -0.00236893      -0.00168014       0.00000075
N        3.50029056       0.95916577       3.58720487      -0.00118566       0.00167394       0.00204957
N        2.07107381       2.98038365       6.06268215       0.00118697      -0.00167656      -0.00204885
N        2.07107411       2.98038402       3.58720505       0.00118649      -0.00167346       0.00204802
N        3.50029071       0.95916520       6.06268151      -0.00118518       0.00167418      -0.00205505
