9
Lattice="4.10217061160914 -4.1583978833216606e-07 2.3683892349126525 1.3673898030430172 3.8675630752963683 2.3683892501012593 2.6313323317323425e-07 2.0466544669029796e-07 4.7367780140651545" Properties=species:S:1:pos:R:3:forces:R:3 energy=-57.428226470947266 free_energy=-57.428226470947266 stress="2.9156017262721434e-05 3.592427901821793e-06 -1.844092025748978e-06 3.592427901821793e-06 3.108871533186175e-05 -9.633250783736003e-07 -1.844092025748978e-06 -9.633250783736003e-07 3.8110014429548755e-05" pbc="T T T"
V        1.36738561       0.96689105       2.36839374      -0.00003442      -0.00000001       0.00002502
V        4.10217326       2.90067528       7.10516977       0.00002690       0.00001813       0.00000878
Sn      -0.00000003      -0.00000006      -0.00000019       0.00001074       0.00000566      -0.00000411
N        1.57660231       1.11483300       4.73678575       0.00082967       0.00073436       0.00013731
N        3.89295516       2.75273538       4.73679065      -0.00091571      -0.00063241       0.00024309
N        3.31386906       1.11482741       3.73376945      -0.00042012       0.00061476       0.00082248
N        2.15568860       2.75274235       5.73977899       0.00035769      -0.00048339      -0.00094378
N        2.15569083       2.75272979       3.73376485       0.00039923      -0.00072193       0.00074854
N        3.31387831       1.11481759       5.73977321      -0.00025405       0.00046536      -0.00103605
