9
Lattice="4.2255638430369125 -3.7947005553486704e-07 2.439629956856151 1.4085210205965293 3.9838993446081425 2.4396297882375113 -2.25556018441432e-07 -3.660069567042011e-07 4.879260304386721" Properties=species:S:1:pos:R:3:forces:R:3 energy=-57.627628326416016 free_energy=-57.627628326416016 stress="0.00011020243255188689 9.309912485377936e-08 8.617502089691698e-08 9.309912485377936e-08 0.00011105954763479531 9.900919195615643e-08 8.617502089691698e-08 9.900919195615643e-08 0.00011116361565655097" pbc="T T T"
V        1.40852305       0.99597387       2.43962925       0.00001842      -0.00000285       0.00000089
V        4.22556703       2.98792502       7.31889334       0.00004976       0.00000690       0.00003959
S       -0.00000068       0.00000010      -0.00000010      -0.00000221      -0.00000263      -0.00002163
O        1.34427509       0.95054803       4.87925967      -0.00485420      -0.00343406      -0.00000595
O        4.28980775       3.03335118       4.87925925       0.00483644       0.00343907      -0.00000982
O        3.55342460       0.95054731       3.60380761       0.00241095      -0.00343466      -0.00421357
O        2.08065778       3.03335071       6.15471053      -0.00244379       0.00344479       0.00421011
O        2.08065921       3.03335164       3.60380774      -0.00242639       0.00343978      -0.00421166
O        3.55342391       0.95054618       6.15471042       0.00241119      -0.00345504       0.00421166
