9
Lattice="4.232312672826286 1.2908040944183543e-07 2.4435267897958295 1.4107709579175625 3.990262825022507 2.443526884578351 -1.0454260939676524e-07 4.2161612787910914e-08 4.887053760664759" Properties=species:S:1:pos:R:3:forces:R:3 energy=-70.29512786865234 free_energy=-70.29512786865234 stress="0.000831300625577569 2.126867713059255e-07 2.220605921365859e-08 2.126867713059255e-07 0.000831088051199913 8.852963162553351e-08 2.220605921365859e-08 8.852963162553351e-08 0.0008308127871714532" pbc="T T T"
V        1.41077049       0.99756591       2.44352690      -0.00000547       0.00000346       0.00000160
V        4.23231260       2.99269767       7.33058047      -0.00000029       0.00000546      -0.00000237
Ta       0.00000005       0.00000016      -0.00000041      -0.00000159       0.00000004       0.00000350
N        1.58903035       1.12361400       4.88705388      -0.00304545      -0.00215675       0.00000052
N        4.05405317       2.86664850       4.88705375       0.00304741       0.00215174       0.00000135
N        3.43779782       1.12361392       3.81966728       0.00152045      -0.00215014      -0.00263347
N        2.20528587       2.86664920       5.95444048      -0.00151926       0.00215156       0.00263280
N        2.20528575       2.86664910       3.81966690      -0.00151587       0.00214506      -0.00262995
N        3.43779793       1.12361351       5.95444034       0.00152026      -0.00215012       0.00262553
