9
Lattice="4.05712052237625 -2.9624273711706905e-07 2.3423794531399005 1.3523733212547446 3.825089033563521 2.3423792918923043 -4.483912724956576e-08 -2.2919320248111146e-07 4.684758983943458" Properties=species:S:1:pos:R:3:forces:R:3 energy=-78.59199523925781 free_energy=-78.59199523925781 stress="0.00011224312765989453 -1.697650873211387e-06 -1.511433879386459e-06 -1.697650873211387e-06 9.95155714917928e-05 -1.2716692481262726e-06 -1.511433879386459e-06 -1.2716692481262726e-06 0.00011049610475311056" pbc="T T T"
V        1.35237097       0.95627408       2.34237745      -0.00011173       0.00011852      -0.00010211
V        4.05711764       2.86881878       7.02713553      -0.00007952       0.00006766      -0.00007018
Ti       0.00000250      -0.00000173       0.00000309       0.00032437      -0.00034548       0.00016993
N        1.59915353       1.13076986       4.68476011      -0.00666857      -0.00451374      -0.00016387
N        3.81034268       2.69431353       4.68475896       0.00628662       0.00537205       0.00009563
N        3.25754525       1.13077234       3.72728951       0.00314569      -0.00503159      -0.00629520
N        2.15194925       2.69431624       5.64223505      -0.00307870       0.00478315       0.00505447
N        2.15194920       2.69431788       3.72728293      -0.00315833       0.00459576      -0.00503731
N        3.25754399       1.13077284       5.64222846       0.00334334      -0.00504398       0.00635481
