9
Lattice="2.3048928202151724 1.3601347944826814 1.4290477453254924 0.18669569501900743 3.287021007385719 1.5931633038669304 -0.6604763676089097 -2.397979263836532 3.29298373746628" Properties=species:S:1:pos:R:3:forces:R:3 energy=-4327027.5 free_energy=-4327027.5 stress="861174.25 -93243.34375 -3315.4189453125 -93243.34375 759035.75 242438.59375 -3315.4189453125 242438.59375 634809.0" pbc="T T T"
V        0.60559936       0.47645659       2.05416657 15911002.00000000 -15632657.00000000 -3866588.75000000
V        0.78225142      -1.77410371       5.94377277 -6272810.00000000 -11433764.00000000 -12038013.00000000
W       -1.21272190      -1.14557576       0.70769344 -16242155.00000000 33775804.00000000 18182522.00000000
N        0.11453383       1.28657046       3.38684027  157846.87500000 -2400093.75000000  978692.25000000
N        0.46495031       2.52405766       2.38104291 -611721.00000000 -917318.50000000  137083.31250000
N        0.88993467       0.18890710       3.02701016 -1819471.25000000  923495.75000000   89563.75000000
N        0.03870969       1.38823014       3.69592869 2586455.00000000  320783.37500000 -4223843.50000000
N       -0.81254856       1.48350680       2.31176644 4272447.00000000 -5637310.00000000 1703347.00000000
N        1.11024758       1.19056293       4.50204844 2018414.25000000 1001063.62500000 -962767.06250000
