9
Lattice="5.289109565917916 -1.1547081468894152e-07 3.053668885698535 1.7630364369751146 4.98662039539813 3.0536688443555495 -8.448358289387445e-08 -1.1037356677512993e-07 6.107337917726935" Properties=species:S:1:pos:R:3:forces:R:3 energy=-38.952392578125 free_energy=-38.952392578125 stress="-7.315022230613977e-05 -8.286831132409134e-08 3.5619972749145745e-08 -8.286831132409134e-08 -7.307176565518603e-05 8.871699819223977e-09 3.5619972749145745e-08 8.871699819223977e-09 -7.307155465241522e-05" pbc="T T T"
V        1.76303611       1.24665518       3.05366938      -0.00000138       0.00000064       0.00000235
V        5.28910860       3.73996563       9.16100523      -0.00000434       0.00000339      -0.00000887
Zn      -0.00000018      -0.00000004       0.00000059       0.00000013      -0.00000074      -0.00001044
S        1.86253523       1.31701049       6.10733790      -0.00289488      -0.00205010      -0.00000171
S        5.18961094       3.66960922       6.10733846       0.00289863       0.00205034       0.00000253
S        4.35784213       1.31701086       4.66667217       0.00144713      -0.00205058      -0.00250795
S        2.69430521       3.66960907       7.54800365      -0.00144884       0.00205636       0.00251603
S        2.69430385       3.66960848       4.66667168      -0.00145137       0.00204551      -0.00250998
S        4.35784179       1.31701184       7.54800351       0.00145477      -0.00205469       0.00251815
