9
Lattice="6.130108716421142 -2.4960383281081828e-08 3.5392198593175612 2.043369554756791 5.779521741832975 3.5392198486666735 -1.895734548315026e-08 -2.6449496193280418e-08 7.078439751470224" Properties=species:S:1:pos:R:3:forces:R:3 energy=-33.51675796508789 free_energy=-33.51675796508789 stress="-0.0001888649130705744 2.2677988376074154e-09 6.444190070453715e-09 2.2677988376074154e-09 -0.00018885843746829778 -4.061443625857919e-09 6.444190070453715e-09 -4.061443625857919e-09 -0.00018884980818256736" pbc="T T T"
V        2.04336961       1.44488029       3.53921970      -0.00000017      -0.00000036      -0.00000121
V        6.13010814       4.33464111      10.61765942      -0.00000359      -0.00000146      -0.00000045
Zn       0.00000021      -0.00000000       0.00000002      -0.00000323       0.00000094      -0.00000018
Te       2.15207787       1.52174878       7.07843975      -0.00598073      -0.00422753       0.00000029
Te       6.02140019       4.25777292       7.07843970       0.00598222       0.00423174       0.00000018
Te       5.05406984       1.52174904       5.40297397       0.00299236      -0.00423005      -0.00518149
Te       3.11940873       4.25777279       8.75390581      -0.00298866       0.00422813       0.00517897
Te       3.11940871       4.25777276       5.40297384      -0.00298986       0.00422870      -0.00517827
Te       5.05406969       1.52174908       8.75390567       0.00299166      -0.00423006       0.00518215
