9
Lattice="5.4116274186174005 4.0803916692437694e-08 3.124404724006353 1.8038758375295607 5.102131042019693 3.1244047363844545 3.2523210265676236e-07 2.451338772298523e-07 6.248808884694193" Properties=species:S:1:pos:R:3:forces:R:3 energy=-36.30803298950195 free_energy=-36.30803298950195 stress="4.3686144636012614e-05 -4.844648771040738e-08 -3.4574679119714347e-08 -4.844648771040738e-08 4.3789656047010794e-05 -6.822946208018266e-09 -3.4574679119714347e-08 -6.822946208018266e-09 4.388795423437841e-05" pbc="T T T"
V        1.80387062       1.27553129       3.12440550      -0.00002504      -0.00000795       0.00000381
V        5.41163362       3.82659825       9.37321418       0.00002846      -0.00000151       0.00000050
Zn       0.00000017      -0.00000013       0.00000020       0.00000207       0.00000141      -0.00000326
Se       1.99293479       1.40921953       6.24880863       0.00083289       0.00059178       0.00000002
Se       5.22256828       3.69291280       6.24881063      -0.00083613      -0.00059181       0.00000621
Se       4.41516118       1.40921874       4.85033820      -0.00041290       0.00059220       0.00072187
Se       2.80034177       3.69291388       7.64727851       0.00040852      -0.00058299      -0.00072366
Se       2.80034241       3.69291330       4.85033870       0.00041333      -0.00058672       0.00072166
Se       4.41516158       1.40921754       7.64727886      -0.00041123       0.00058541      -0.00072727
