9
Lattice="4.094856978139242 -1.4659342056204512e-07 2.3641665361087023 1.3649522380463266 3.860667671446014 2.364166449143265 1.9170932774245677e-08 -9.29545725745817e-08 4.728333039012375" Properties=species:S:1:pos:R:3:forces:R:3 energy=-69.83834075927734 free_energy=-69.83834075927734 stress="-3.4966117254953133e-06 -2.634363909237436e-07 -1.8010652524935722e-07 -2.634363909237436e-07 -2.9191953672125237e-06 -5.2330747735140903e-08 -1.8010652524935722e-07 -5.2330747735140903e-08 -3.01075192510325e-06" pbc="T T T"
W        1.36495268       0.96516691       2.36416678       0.00000520       0.00000158       0.00000385
W        4.09485655       2.89550038       7.09249934      -0.00000231      -0.00000152      -0.00000569
C        0.00000013       0.00000088      -0.00000076       0.00000261       0.00002233      -0.00002933
N        1.29358434       0.91470201       4.72833310       0.00094402       0.00066602       0.00000016
N        4.16622427       2.94596528       4.72833287      -0.00096345      -0.00067604      -0.00000205
N        3.44806489       0.91470218       3.48444294      -0.00047493       0.00067842       0.00082529
N        2.01174460       2.94596553       5.97222305       0.00047791      -0.00066912      -0.00082088
N        2.01174408       2.94596524       3.48444345       0.00047749      -0.00068092       0.00083816
N        3.44806539       0.91470141       5.97222336      -0.00046444       0.00066030      -0.00081193
