9
Lattice="4.221314689637407 1.119157719712524e-08 2.437177272418774 1.407104909891679 3.9798936291000224 2.4371772675788144 9.807857329108383e-09 1.0074827169288869e-09 4.874354527849838" Properties=species:S:1:pos:R:3:forces:R:3 energy=-70.25160217285156 free_energy=-70.25160217285156 stress="3.0582036742998753e-06 2.3164139051345956e-08 6.940266672472717e-08 2.3164139051345956e-08 3.0749019970244262e-06 -9.830119296339035e-08 6.940266672472717e-08 -9.830119296339035e-08 3.1004824450064916e-06" pbc="T T T"
W        1.40710408       0.99497259       2.43717755      -0.00001317      -0.00001243       0.00000480
W        4.22131424       2.98492002       7.31153225      -0.00001077      -0.00000388       0.00000717
Co       0.00000009       0.00000003       0.00000006      -0.00000763      -0.00000198       0.00000456
N        1.46532256       1.03613918       4.87435448      -0.00004345      -0.00003594      -0.00000298
N        4.16309708       2.94375475       4.87435437       0.00005087       0.00004517      -0.00000234
N        3.48865418       1.03613969       3.70618388       0.00003737      -0.00003280      -0.00004113
N        2.13976616       2.94375469       6.04252517      -0.00002185       0.00003774       0.00003329
N        2.13976634       2.94375394       3.70618343      -0.00002202       0.00003581      -0.00004739
N        3.48865377       1.03613963       6.04252516       0.00002973      -0.00003125       0.00004432
