9
Lattice="4.38391735105589 5.66599127932199e-08 2.5310558012285433 1.4613058007563213 4.13319688741057 2.5310558641858987 3.143270354731609e-08 9.933296919226684e-08 5.062111548014057" Properties=species:S:1:pos:R:3:forces:R:3 energy=-74.99401092529297 free_energy=-74.99401092529297 stress="-0.00014265751815401018 -5.106890554884558e-08 -1.0152522378348294e-07 -5.106890554884558e-08 -0.0001422320056008175 3.894665212555992e-08 -1.0152522378348294e-07 3.894665212555992e-08 -0.00014223453763406724" pbc="T T T"
W        1.46130572       1.03329923       2.53105590       0.00000076       0.00000029       0.00000490
W        4.38391732       3.09989722       7.59316821       0.00000154      -0.00000979       0.00001479
Cr       0.00000005       0.00000022       0.00000004      -0.00000748      -0.00002499      -0.00000169
N        1.51730828       1.07289943       5.06211158       0.00056016       0.00039297      -0.00000164
N        4.32791482       3.06029773       5.06211075      -0.00054717      -0.00038177      -0.00001157
N        3.62526296       1.07289937       3.84508332      -0.00028151       0.00039458       0.00048375
N        2.21995999       3.06029734       6.27913973       0.00026995      -0.00038135      -0.00047231
N        2.21996015       3.06029779       3.84508375       0.00027519      -0.00038207       0.00046986
N        3.62526349       1.07289987       6.27913967      -0.00027168       0.00039256      -0.00048625
