9
Lattice="4.35109407816644 4.27797674883164e-08 2.5121053701721157 1.4503646739354918 4.1022511163234 2.5121054725706204 -9.556905112943414e-08 5.783452199301219e-08 5.0242109058746856" Properties=species:S:1:pos:R:3:forces:R:3 energy=-78.81279754638672 free_energy=-78.81279754638672 stress="-2.946348104160279e-05 -1.429901317351323e-07 -3.5140263321409293e-07 -1.429901317351323e-07 -2.9617513064295053e-05 7.928442755655851e-07 -3.5140263321409293e-07 7.928442755655851e-07 -2.9682149033760652e-05" pbc="T T T"
W        1.45036482       1.02556277       2.51210552      -0.00003434      -0.00001616       0.00001247
W        4.35109401       3.07668836       7.53631611      -0.00003001      -0.00000769       0.00002053
Fe       0.00000680       0.00000341      -0.00000254      -0.00176038      -0.00082054       0.00064332
N        1.58871477       1.12339134       5.02421129      -0.00382948      -0.00274575      -0.00006867
N        4.21273992       2.97885735       5.02421090       0.00490642       0.00343394      -0.00005408
N        3.55673475       1.12339277       3.88797543       0.00241601      -0.00312769      -0.00397873
N        2.24472199       2.97885846       6.16044780      -0.00194544       0.00307500       0.00362349
N        2.24472245       2.97885834       3.88797498      -0.00204998       0.00319266      -0.00388491
N        3.55673513       1.12339216       6.16044755       0.00232393      -0.00298548       0.00368798
