9
Lattice="4.185449364960309 8.542812513551044e-09 2.416470523487495 1.3951497726068818 3.9460796443362036 2.4164705646539293 -4.2013811175072556e-08 2.071013730818688e-08 4.832941119745044" Properties=species:S:1:pos:R:3:forces:R:3 energy=-65.57910919189453 free_energy=-65.57910919189453 stress="-0.00035201467107981443 -1.3336601512037305e-07 4.4002462118442054e-08 -1.3336601512037305e-07 -0.0003516611468512565 -5.6878601384369176e-08 4.4002462118442054e-08 -5.6878601384369176e-08 -0.00035189607297070324" pbc="T T T"
W        1.39514912       0.98652090       2.41647145      -0.00001018       0.00001878       0.00000958
W        4.18544837       2.95956121       7.24941157      -0.00001637       0.00002423       0.00000285
Ge      -0.00000002      -0.00000004       0.00000008      -0.00000090      -0.00000138      -0.00000269
N        1.51462066       1.07099821       4.83294142      -0.00758153      -0.00536984       0.00000402
N        4.06597916       2.87508114       4.83294292       0.00759053       0.00535911       0.00002419
N        3.42813892       1.07099942       3.72816941       0.00379491      -0.00535059      -0.00658196
N        2.15246069       2.87508093       5.93771207      -0.00378552       0.00536227       0.00657785
N        2.15246037       2.87508042       3.72816987      -0.00378942       0.00535548      -0.00658351
N        3.42813909       1.07099664       5.93770982       0.00379908      -0.00539738       0.00654995
