9
Lattice="4.3809966602856845 -4.912379162515494e-08 2.5293697740978236 1.4603320565334192 4.130443751156983 2.529369977176427 -9.668920561140867e-08 1.8034987686415045e-07 5.058739715666264" Properties=species:S:1:pos:R:3:forces:R:3 energy=-90.5565414428711 free_energy=-90.5565414428711 stress="4.709854238171829e-06 5.914197913625685e-07 7.673050959056127e-07 5.914197913625685e-07 4.941040970152244e-06 -1.2698443470071652e-06 7.673050959056127e-07 -1.2698443470071652e-06 4.431311936059501e-06" pbc="T T T"
W        1.46033204       1.03261105       2.52936987       0.00001295      -0.00000075       0.00000132
W        4.38099650       3.09783298       7.58810968      -0.00001775      -0.00000458       0.00000322
Mn      -0.00000003       0.00000023      -0.00000004       0.00000233      -0.00005134       0.00000412
N        1.58442288       1.12035648       5.05873994       0.00000000       0.00001964      -0.00000293
N        4.25690563       3.01008720       5.05873996       0.00002074       0.00002092      -0.00001469
N        3.58878517       1.12035585       3.90151989       0.00001472       0.00000674       0.00001705
N        2.25254330       3.01008795       6.21595952      -0.00001478       0.00000429       0.00001121
N        2.25254358       3.01008749       3.90152054      -0.00002134       0.00001502      -0.00002903
N        3.58878507       1.12035641       6.21595907       0.00000435      -0.00001189       0.00000614
