9
Lattice="4.306414715403509 2.787368062283996e-08 2.4863096545680605 1.4354715988432625 4.0601267039775895 2.4863096532473024 2.8212540114160713e-08 1.8331692509821732e-08 4.972619260270575" Properties=species:S:1:pos:R:3:forces:R:3 energy=-75.50946044921875 free_energy=-75.50946044921875 stress="0.0002342753141419962 -2.8314438793586305e-08 -1.0686195039966151e-08 -2.8314438793586305e-08 0.00023454190522897989 7.508597832384112e-08 -1.0686195039966151e-08 7.508597832384112e-08 0.00023430238070432097" pbc="T T T"
W        1.43547146       1.01503153       2.48630983      -0.00000337       0.00000098       0.00000125
W        4.30641458       3.04509512       7.45892918      -0.00000149      -0.00000027       0.00000181
Mo      -0.00000002       0.00000010       0.00000006      -0.00000060      -0.00000057      -0.00000347
N        1.58341099       1.11964057       4.97261938      -0.00670421      -0.00474244       0.00000576
N        4.15847534       2.94048603       4.97261955       0.00670516       0.00474149       0.00000594
N        3.51470923       1.11964097       3.85758369       0.00335407      -0.00474125      -0.00580776
N        2.22717718       2.94048635       6.08765442      -0.00335038       0.00474602       0.00580370
N        2.22717744       2.94048583       3.85758348      -0.00335354       0.00474024      -0.00581253
N        3.51470921       1.11964045       6.08765461       0.00335366      -0.00474441       0.00580513
