9
Lattice="4.269385993608951 -1.0978504244072622e-08 2.4649310558528557 1.4231286760566046 4.025215735633993 2.4649310179713404 -2.16193714108229e-08 -6.168241605676807e-08 4.929862149151573" Properties=species:S:1:pos:R:3:forces:R:3 energy=-67.31543731689453 free_energy=-67.31543731689453 stress="-3.6903040836477885e-06 8.974974718967133e-08 1.005497196615579e-07 8.974974718967133e-08 -3.6909195841872133e-06 -4.231707251278749e-08 1.005497196615579e-07 -4.231707251278749e-08 -3.549639359334833e-06" pbc="T T T"
W        1.42312879       1.00630439       2.46493089      -0.00000178       0.00000814      -0.00000208
W        4.26938593       3.01891216       7.39479323       0.00000090       0.00000403       0.00000195
Ni      -0.00000015       0.00000002      -0.00000012       0.00001502       0.00000350       0.00000035
N        1.50353054       1.06315572       4.92986218       0.00443661       0.00312492       0.00000184
N        4.18898470       2.96205942       4.92986224      -0.00444210      -0.00313866       0.00000262
N        3.51762120       1.06315669       3.76702582      -0.00221604       0.00314561       0.00383949
N        2.17489317       2.96205897       6.09269827       0.00221366      -0.00314346      -0.00383991
N        2.17489330       2.96205931       3.76702627       0.00221235      -0.00313830       0.00384289
N        3.51762118       1.06315595       6.09269784      -0.00221854       0.00313544      -0.00384676
