9
Lattice="4.351177003027001 3.2870861962042666e-08 2.51215325063625 1.450392348174899 4.102328998881597 2.5121532803554127 2.2002185143793686e-08 5.195629301834538e-08 5.024306463163595" Properties=species:S:1:pos:R:3:forces:R:3 energy=-74.3383560180664 free_energy=-74.3383560180664 stress="7.410370017169043e-05 -4.6533788378155805e-08 -8.237127957499979e-08 -4.6533788378155805e-08 7.435454608639702e-05 -9.991435234724122e-09 -8.237127957499979e-08 -9.991435234724122e-09 7.40307878004387e-05" pbc="T T T"
W        1.45039230       1.02558225       2.51215317      -0.00000017      -0.00000136       0.00000192
W        4.35117689       3.07674737       7.53646065      -0.00000620       0.00000833       0.00000866
Os      -0.00000001       0.00000005      -0.00000019      -0.00000372       0.00000477       0.00000686
N        1.51906768       1.07414261       5.02430602       0.00302494       0.00213528      -0.00000431
N        4.28250188       3.02818607       5.02430619      -0.00301957      -0.00213563      -0.00000352
N        3.59164348       1.07414298       3.82770421      -0.00150275       0.00213373       0.00261402
N        2.20992581       3.02818601       6.22090890       0.00151044      -0.00214314      -0.00262225
N        2.20992631       3.02818638       3.82770420       0.00151372      -0.00213766       0.00262046
N        3.59164319       1.07414256       6.22090880      -0.00151694       0.00213623      -0.00262201
