9
Lattice="5.308329081253968 0.7824185492341811 2.193420869775987 0.9636149945502689 4.835857907677829 2.5229733469176923 -0.5595643487444664 -0.29380711863493264 6.110905208086401" Properties=species:S:1:pos:R:3:forces:R:3 energy=-78.25743103027344 free_energy=-78.25743103027344 stress="0.0008430273155681789 -0.0002966384345199913 -0.000530474295374006 -0.0002966384345199913 -0.0004909123526886106 -9.641825454309583e-05 -0.000530474295374006 -9.641825454309583e-05 -0.0005643507465720177" pbc="T T T"
W        2.00354178       2.26809040       0.53604584       0.00900531       0.00319493      -0.00172651
W        4.55816465       3.71321766       9.51701535      -0.01315448      -0.00176972       0.01483080
Pd      -0.03967413       0.76648328      -0.40967381      -0.00239715      -0.01267979      -0.00022116
N       -0.11532996       2.55116915       5.50892397       0.00953940       0.00632158      -0.00262167
N        3.73032235       3.02055401       4.67698642      -0.13150567       0.02393146       0.08579944
N        6.00773465       2.03384267       3.66775925      -0.00951129      -0.02269346       0.00661878
N        1.11364632       3.35963446       7.90209481       0.00297859       0.00433421       0.00437331
N        2.67545568       2.99043886       5.13665625       0.14787820      -0.01163246      -0.10525934
N        2.91592218       0.59457508       6.77327650      -0.01283288       0.01099318      -0.00179371
