9
Lattice="4.172468087643953 4.837645582368534e-08 2.4089755913621302 1.3908227700836708 3.9338405907156573 2.4089755418383136 1.1792192800074697e-07 2.272933913171374e-08 4.817950978477501" Properties=species:S:1:pos:R:3:forces:R:3 energy=-71.52139282226562 free_energy=-71.52139282226562 stress="-0.00025348097551614046 3.859811670281488e-08 -2.9966816583737454e-08 3.859811670281488e-08 -0.00025346133043058217 3.703189577208832e-08 -2.9966816583737454e-08 3.703189577208832e-08 -0.0002532415965106338" pbc="T T T"
W        1.39082273       0.98346119       2.40897574      -0.00000030       0.00001557       0.00000326
W        4.17246708       2.95037920       7.22692590      -0.00002057      -0.00002255      -0.00001363
P        0.00000018      -0.00000005       0.00000012       0.00000038       0.00000226      -0.00000051
N        1.38671322       0.98055458       4.81795146      -0.00652087      -0.00460315       0.00000457
N        4.17657791       2.95328588       4.81795158       0.00652385       0.00460243       0.00000891
N        3.47911132       0.98055430       3.60990418       0.00325733      -0.00460660      -0.00564659
N        2.08417985       2.95328639       6.02599766      -0.00325453       0.00461149       0.00564563
N        2.08418003       2.95328625       3.60990382      -0.00324756       0.00459814      -0.00565135
N        3.47911181       0.98055485       6.02599795       0.00326312      -0.00459719       0.00564873
