9
Lattice="4.3583446920107685 -3.244153764830534e-08 2.5162914226269635 1.452781560889003 4.109086566775151 2.516291375044786 1.4671192474746278e-08 -4.7901926203651216e-08 5.032582819842676" Properties=species:S:1:pos:R:3:forces:R:3 energy=-65.56605529785156 free_energy=-65.56605529785156 stress="-8.618152787676081e-05 2.12991324133327e-07 -3.084576150058638e-08 2.12991324133327e-07 -8.5869622125756e-05 1.1932316112961416e-07 -3.084576150058638e-08 1.1932316112961416e-07 -8.589072240283713e-05" pbc="T T T"
W        1.45278291       1.02727101       2.51629028       0.00001648      -0.00000337      -0.00002268
W        4.35834511       3.08181620       7.54887245       0.00000461       0.00001858      -0.00002634
Pt       0.00000005       0.00000027      -0.00000042       0.00000651       0.00000034       0.00001997
N        1.54672499       1.09369895       5.03258449       0.00105667       0.00073701       0.00002643
N        4.26440173       3.01538732       5.03258436      -0.00105798      -0.00074297       0.00002119
N        3.58498135       1.09369833       3.85579473      -0.00053853       0.00072819       0.00091833
N        2.22614337       3.01538750       6.20937093       0.00052831      -0.00074625      -0.00092995
N        2.22614386       3.01538685       3.85579380       0.00052634      -0.00075036       0.00090861
N        3.58498180       1.09369936       6.20937208      -0.00054237       0.00075811      -0.00091577
