9
Lattice="4.307821620038943 -4.1799521619092775e-08 2.4871220403223635 1.4359405209085687 4.061453129987638 2.487122005153844 3.6386711530237084e-08 -1.734317797204495e-08 4.974244017621096" Properties=species:S:1:pos:R:3:forces:R:3 energy=-76.70697021484375 free_energy=-76.70697021484375 stress="6.012879384797998e-05 9.531335365409177e-08 5.236294065014135e-09 9.531335365409177e-08 6.048906288924627e-05 2.1752028089849773e-07 5.236294065014135e-09 2.1752028089849773e-07 6.017906707711518e-05" pbc="T T T"
W        1.43594004       1.01536378       2.48712176      -0.00000436       0.00000708      -0.00000283
W        4.30782102       3.04609017       7.46136563      -0.00000745       0.00000658      -0.00000286
Re      -0.00000009       0.00000015       0.00000006       0.00000055      -0.00000173      -0.00000079
N        1.55055562       1.09640729       4.97424370       0.00052166       0.00035810      -0.00000463
N        4.19320731       2.96504479       4.97424445      -0.00051355      -0.00037003       0.00000746
N        3.53254450       1.09640815       3.82994227      -0.00025147       0.00036705       0.00044763
N        2.21121802       2.96504466       6.11854619       0.00025588      -0.00036818      -0.00044465
N        2.21121830       2.96504522       3.82994209       0.00025982      -0.00036448       0.00044560
N        3.53254399       1.09640803       6.11854609      -0.00026101       0.00036466      -0.00044608
