9
Lattice="4.188259875796852 -1.681366050370529e-08 2.418092930201584 1.396086659021291 3.94872949356364 2.418092844278462 -1.2520549737695745e-07 -1.937675681132714e-07 4.8361860772654435" Properties=species:S:1:pos:R:3:forces:R:3 energy=-70.204345703125 free_energy=-70.204345703125 stress="7.592859765281901e-05 2.3538555637969694e-07 3.349042856370943e-07 2.3538555637969694e-07 7.558832294307649e-05 3.494955080896034e-07 3.349042856370943e-07 3.494955080896034e-07 7.595846545882523e-05" pbc="T T T"
W        1.39608454       0.98718505       2.41809147      -0.00002695       0.00003396      -0.00002389
W        4.18825831       2.96154885       7.25427521      -0.00002368       0.00002887      -0.00004212
Rh       0.00000038       0.00000058       0.00000046      -0.00000200       0.00000034       0.00000412
N        1.57386723       1.11288978       4.83618735      -0.00053728      -0.00040799       0.00002337
N        4.01048228       2.83583695       4.83618799       0.00057065       0.00037926       0.00002119
N        3.40132716       1.11289107       3.78110151       0.00028390      -0.00039423      -0.00047040
N        2.18302014       2.83583748       5.89127246      -0.00026512       0.00038177       0.00048280
N        2.18301888       2.83583704       3.78109999      -0.00027442       0.00037903      -0.00047588
N        3.40132685       1.11289035       5.89127098       0.00027502      -0.00040114       0.00047994
