9
Lattice="4.285494898451018 1.4102518724818785e-07 2.474231867437138 1.428498292272085 4.040404123798972 2.474232110221141 -2.460030478617832e-07 1.2339805550783897e-07 4.948464160964049" Properties=species:S:1:pos:R:3:forces:R:3 energy=-64.98025512695312 free_energy=-64.98025512695312 stress="0.00021637525060214102 4.5335610820984584e-08 -4.597780289827824e-08 4.5335610820984584e-08 0.00021664085215888917 -4.279608489810016e-08 -4.597780289827824e-08 -4.279608489810016e-08 0.00021669610578101128" pbc="T T T"
W        1.42849783       1.01009669       2.47423155      -0.00002330      -0.00006004      -0.00002356
W        4.28549022       3.03030311       7.42269014      -0.00005956      -0.00001796      -0.00008971
Se       0.00000115       0.00000069       0.00000033       0.00001758       0.00001798       0.00002802
N        1.49623146       1.05799556       4.94846550      -0.00105846      -0.00075936       0.00002550
N        4.21776193       2.98241043       4.94846616       0.00105035       0.00076652       0.00003100
N        3.53737964       1.05799517       3.77000598       0.00054133      -0.00074840      -0.00091946
N        2.17661652       2.98241033       6.12692353      -0.00048101       0.00076306       0.00093377
N        2.17661286       2.98240939       3.77000704      -0.00052947       0.00077081      -0.00090683
N        3.53738051       1.05799587       6.12692235       0.00054216      -0.00073349       0.00092268
