9
Lattice="4.16146836658405 -8.53118532331504e-08 2.402624843219516 1.387156086942174 3.9234699252756275 2.402624764964976 -2.857672442405891e-08 -1.1604863219153285e-07 4.805249735935367" Properties=species:S:1:pos:R:3:forces:R:3 energy=-71.12976837158203 free_energy=-71.12976837158203 stress="-9.892372327158228e-05 1.2502617607879074e-07 1.1678815781124285e-07 1.2502617607879074e-07 -9.896274423226714e-05 9.016284963081489e-08 1.1678815781124285e-07 9.016284963081489e-08 -9.931344538927078e-05" pbc="T T T"
W        1.38715656       0.98086742       2.40262587       0.00000764       0.00000146       0.00001175
W        4.16146793       2.94260251       7.20787347      -0.00000683       0.00000144      -0.00001388
Si       0.00000013       0.00000008      -0.00000015      -0.00000766      -0.00000260       0.00000411
N        1.45282698       1.02730425       4.80524996      -0.00180960      -0.00126880       0.00000292
N        4.09579711       2.89616543       4.80525028       0.00181448       0.00127512       0.00000946
N        3.43505390       1.02730318       3.66080982       0.00088722      -0.00128531      -0.00156254
N        2.11357003       2.89616652       5.94968952      -0.00089300       0.00128222       0.00155538
N        2.11357026       2.89616581       3.66080917      -0.00089622       0.00127220      -0.00156659
N        3.43505486       1.02730352       5.94968944       0.00090367      -0.00127572       0.00156122
