9
Lattice="4.230528669603325 -2.005457615837515e-07 2.442497155199561 1.4101760605352769 3.9885803075043795 2.4424971094551697 -9.567510433372086e-08 -1.2367771318756824e-07 4.884994476113232" Properties=species:S:1:pos:R:3:forces:R:3 energy=-74.55638122558594 free_energy=-74.55638122558594 stress="7.661496056243777e-06 -4.341845993849347e-09 -6.615886150029837e-08 -4.341845993849347e-09 7.666585588594899e-06 -4.786413398960576e-08 -6.615886150029837e-08 -4.786413398960576e-08 7.260651273099938e-06" pbc="T T T"
W        1.41017424       0.99714576       2.44249880      -0.00002743       0.00001197       0.00002340
W        4.23052715       2.99143690       7.32749138      -0.00002778       0.00003004       0.00000010
V       -0.00000033      -0.00000073       0.00000017       0.00000196      -0.00000664       0.00000017
N        1.53029547       1.08208321       4.88499599       0.00149167       0.00107747       0.00002649
N        4.11040683       2.90650020       4.88499622      -0.00152332      -0.00102437       0.00002918
N        3.46538125       1.08208302       3.76777255      -0.00073686       0.00106817       0.00129479
N        2.17532574       2.90649700       6.00221764       0.00077227      -0.00107628      -0.00127894
N        2.17532469       2.90649530       3.76776997       0.00075740      -0.00109601       0.00126398
N        3.46538343       1.08207936       6.00221226      -0.00070715       0.00101531      -0.00135761
