9
Lattice="5.56103086132232 -2.1743239301426506e-08 3.210662597247967 1.8536769330260296 5.242990185250237 3.2106625976781205 3.5476879859546805e-08 2.5612827980619e-08 6.421325133048141" Properties=species:S:1:pos:R:3:forces:R:3 energy=-44.74757385253906 free_energy=-44.74757385253906 stress="7.50633853385807e-06 -8.387993077896283e-10 -1.6153062887269698e-08 -8.387993077896283e-10 7.511418516514823e-06 1.2952728667414704e-08 -1.6153062887269698e-08 1.2952728667414704e-08 7.534455107816029e-06" pbc="T T T"
Y        1.85367698       1.31074784       3.21066266       0.00000038       0.00000008       0.00000000
Y        5.56103070       3.93224256       9.63198760      -0.00000074       0.00000065      -0.00000124
Ag      -0.00000026       0.00000048       0.00000006       0.00000655      -0.00000913       0.00000149
S        1.94999800       1.37885678       6.42132515      -0.00038773      -0.00027436      -0.00000039
S        5.46470981       3.86413331       6.42132519       0.00038803       0.00027329       0.00000044
S        4.58603192       1.37885670       4.89941023       0.00019294      -0.00027215      -0.00033182
S        2.82867628       3.86413320       7.94323996      -0.00019506       0.00027627       0.00033987
S        2.82867587       3.86413320       4.89941029      -0.00019589       0.00027585      -0.00033915
S        4.58603196       1.37885671       7.94324015       0.00019193      -0.00027055       0.00033081
