9
Lattice="5.846197105727592 1.231165712071317e-08 3.375303437853535 1.9487323808824801 5.5118473182059775 3.375303436642728 1.5989719544182977e-08 9.823468723989376e-09 6.750606848012051" Properties=species:S:1:pos:R:3:forces:R:3 energy=-41.61326217651367 free_energy=-41.61326217651367 stress="-0.00029951546457596123 3.755208410893829e-08 -6.471621571968456e-10 3.755208410893829e-08 -0.00029953799094073474 1.1243960429396793e-08 -6.471621571968456e-10 1.1243960429396793e-08 -0.0002996118855662644" pbc="T T T"
Y        1.94873273       1.37796173       3.37530300       0.00000192      -0.00000019      -0.00000162
Y        5.84619673       4.13388569      10.12590978      -0.00000196      -0.00000052      -0.00000327
Ag       0.00000011      -0.00000000       0.00000036      -0.00000105      -0.00000053      -0.00000447
Se       2.08185412       1.47209296       6.75060686      -0.00623289      -0.00440764       0.00000095
Se       5.71307532       4.03975450       6.75060690       0.00623363       0.00440845       0.00000058
Se       4.80527041       1.47209274       5.17824191       0.00311446      -0.00440633      -0.00539488
Se       2.98965932       4.03975425       8.32297216      -0.00311564       0.00440827       0.00539923
Se       2.98965909       4.03975442       5.17824171      -0.00311472       0.00440505      -0.00539511
Se       4.80527016       1.47209310       8.32297220       0.00311632      -0.00440684       0.00539863
