9
Lattice="4.630895548468151 3.4083007574580173e-09 2.673648832784143 1.5436318482974754 4.366050220394252 2.673648840414297 1.21604373051249e-08 1.7943731186228646e-08 5.347297644505797" Properties=species:S:1:pos:R:3:forces:R:3 energy=-58.26909637451172 free_energy=-58.26909637451172 stress="-0.00027086588670499623 2.6846407763514435e-08 7.606969276707787e-09 2.6846407763514435e-08 -0.0002707313688006252 7.219146169745727e-08 7.606969276707787e-09 7.219146169745727e-08 -0.00027083526947535574" pbc="T T T"
Y        1.54363173       1.09151268       2.67364875      -0.00000032      -0.00000139      -0.00000137
Y        4.63089548       3.27453757       8.02094640      -0.00000158       0.00000042      -0.00000227
Ag      -0.00000007      -0.00000020      -0.00000060       0.00000186       0.00000687       0.00001544
O        1.64869179       1.16580119       5.34729754       0.00374168       0.00264710      -0.00000051
O        4.52583569       3.20024913       5.34729785      -0.00374341      -0.00264806       0.00000029
O        3.80654961       1.16580122       4.10145804      -0.00186893       0.00264204       0.00323772
O        2.36797774       3.20024920       6.59313758       0.00187421      -0.00265110      -0.00324571
O        2.36797777       3.20024914       4.10145799       0.00186968      -0.00264418       0.00323933
O        3.80654980       1.16580111       6.59313767      -0.00187287       0.00264931      -0.00324404
