9
Lattice="6.248826886507852 -7.51805783796981e-08 3.607762048568859 2.0829422231697756 5.891450564552739 3.6077620510835944 2.8095876678186914e-08 2.2946703472763642e-08 7.215524048474266" Properties=species:S:1:pos:R:3:forces:R:3 energy=-38.683746337890625 free_energy=-38.683746337890625 stress="9.501697786618024e-05 -5.705085737162108e-09 4.4013153122079984e-09 -5.705085737162108e-09 9.502135071670637e-05 -4.4117484665484596e-10 4.4013153122079984e-09 -4.4117484665484596e-10 9.503289038548246e-05" pbc="T T T"
Y        2.08294222       1.47286249       3.60776212      -0.00000035      -0.00000093       0.00000017
Y        6.24882692       4.41858798      10.82328639       0.00000027       0.00000049       0.00000037
Ag       0.00000010      -0.00000016      -0.00000012       0.00000012      -0.00000015      -0.00000061
Te       2.21732830       1.56788797       7.21552405      -0.00579661      -0.00409807      -0.00000038
Te       6.11444062       4.32356270       7.21552396       0.00579700       0.00409846      -0.00000049
Te       5.14016265       1.56788788       5.52802487       0.00289772      -0.00409895      -0.00502001
Te       3.19160655       4.32356265       8.90302312      -0.00289893       0.00409971       0.00502144
Te       3.19160665       4.32356250       5.52802499      -0.00289866       0.00409882      -0.00502127
Te       5.14016254       1.56788805       8.90302321       0.00289945      -0.00409944       0.00502083
