9
Lattice="5.861571414534027 -3.728101631685841e-08 3.384179821924027 1.953857076845241 5.526342654093632 3.3841798672758663 -7.088446836849216e-08 5.4215439034143376e-09 6.768359766623561" Properties=species:S:1:pos:R:3:forces:R:3 energy=-42.15217971801758 free_energy=-42.15217971801758 stress="-0.00015843390428926796 -1.4219109445434697e-08 -2.2898429818951627e-08 -1.4219109445434697e-08 -0.00015845635789446533 3.664030501226989e-08 -2.2898429818951627e-08 3.664030501226989e-08 -0.00015840301057323813" pbc="T T T"
Y        1.95385681       1.38158591       3.38417996      -0.00000152       0.00000288       0.00000112
Y        5.86157122       4.14475654      10.15254143       0.00000011      -0.00000312       0.00000764
Au      -0.00000009      -0.00000010      -0.00000014       0.00000177      -0.00000038      -0.00000035
Se       2.06228783       1.45825770       6.76835966      -0.00047356      -0.00033465      -0.00000119
Se       5.75314071       4.06808504       6.76835893       0.00047195       0.00033370      -0.00000155
Se       4.83042773       1.45825810       5.17017317       0.00023687      -0.00033355      -0.00041202
Se       2.98500070       4.06808470       8.36654573      -0.00023630       0.00033456       0.00040954
Se       2.98500110       4.06808483       5.17017329      -0.00023609       0.00033584      -0.00041166
Se       4.83042766       1.45825775       8.36654574       0.00023720      -0.00033572       0.00040829
