9
Lattice="5.570532579436914 -1.2105813187258015e-08 3.2161484548487596 1.85684419744854 5.251948321716843 3.2161484276271812 -9.770846155216353e-10 -3.403039855256521e-08 6.432296911389884" Properties=species:S:1:pos:R:3:forces:R:3 energy=-45.76439666748047 free_energy=-45.76439666748047 stress="-0.0001323059550486505 -4.3693098028541044e-09 4.239351536483582e-09 -4.3693098028541044e-09 -0.0001322593161603436 -1.3309456869947667e-09 4.239351536483582e-09 -1.3309456869947667e-09 -0.00013229598698671907" pbc="T T T"
Y        1.85684434       1.31298669       3.21614842       0.00000109      -0.00000159      -0.00000089
Y        5.57053273       3.93896147       9.64844534       0.00000010       0.00000132       0.00000007
Au      -0.00000002       0.00000001       0.00000015       0.00000157      -0.00000115       0.00000051
S        1.94433265       1.37485077       6.43229695      -0.00159621      -0.00112885      -0.00000054
S        5.48304422       3.87709777       6.43229683       0.00159401       0.00112766       0.00000040
S        4.59836658       1.37485048       4.89998977       0.00079647      -0.00112545      -0.00137907
S        2.82901021       3.87709761       7.96460381      -0.00079650       0.00112772       0.00138152
S        2.82901033       3.87709778       4.89998985      -0.00079733       0.00112849      -0.00138259
S        4.59836603       1.37485042       7.96460398       0.00079685      -0.00112796       0.00138021
