9
Lattice="5.446274378075169 1.8793654121399774e-07 3.1444079507278406 1.8154249504856468 5.134797144266468 3.144407984319965 2.738209857904801e-07 2.3476246252869203e-07 6.28881542718384" Properties=species:S:1:pos:R:3:forces:R:3 energy=-45.85663986206055 free_energy=-45.85663986206055 stress="-0.00015268538845703006 -1.3564038781055388e-09 1.9103183035440452e-08 -1.3564038781055388e-09 -0.00015266958507709205 -1.581128650229857e-08 1.9103183035440452e-08 -1.581128650229857e-08 -0.00015265756519511342" pbc="T T T"
Y        1.81542479       1.28369953       3.14440829      -0.00000031       0.00000037      -0.00000097
Y        5.44627461       3.85109795       9.43322344       0.00000042      -0.00000001       0.00000027
Be       0.00000026      -0.00000006      -0.00000030      -0.00000432       0.00000114       0.00000398
Se       1.73877467       1.22949944       6.28881552       0.00427115       0.00301954      -0.00000028
Se       5.52292495       3.90529798       6.28881587      -0.00426894      -0.00301874      -0.00000015
Se       4.57688728       1.22949976       4.65023049      -0.00213480       0.00301841       0.00369713
Se       2.68481227       3.90529789       7.92740079       0.00213587      -0.00302091      -0.00370020
Se       2.68481225       3.90529796       4.65023071       0.00213456      -0.00301799       0.00369722
Se       4.57688732       1.22949976       7.92740075      -0.00213352       0.00301802      -0.00369716
