9
Lattice="5.183419954961877 -8.01390587508579e-09 2.9926488298716394 1.72780667029449 4.886975401812911 2.992648784498581 4.35112969113779e-08 -2.4803282653978046e-08 5.985297584379515" Properties=species:S:1:pos:R:3:forces:R:3 energy=-49.181034088134766 free_energy=-49.181034088134766 stress="7.424431532854214e-05 2.012555455621623e-08 1.4678438464699184e-09 2.012555455621623e-08 7.421355985570699e-05 3.009554205846143e-08 1.4678438464699184e-09 3.009554205846143e-08 7.426153752021492e-05" pbc="T T T"
Y        1.72780689       1.22174365       2.99264865       0.00000017       0.00000082       0.00000021
Y        5.18342012       3.66523140       8.97794630      -0.00000005      -0.00000011       0.00000026
Be      -0.00000011      -0.00000005      -0.00000012      -0.00000224       0.00000092      -0.00000071
S        1.73254071       1.22509131       5.98529760       0.00091852       0.00065044      -0.00000042
S        5.17868571       3.66188386       5.98529787      -0.00091395      -0.00064614       0.00000029
S        4.31714943       1.22509135       4.49307340      -0.00046023       0.00064839       0.00079235
S        2.59407710       3.66188427       7.47752213       0.00045858      -0.00065066      -0.00079460
S        2.59407713       3.66188423       4.49307302       0.00045875      -0.00065156       0.00079498
S        4.31714973       1.22509143       7.47752203      -0.00045937       0.00064775      -0.00079236
