9
Lattice="4.371094851666463 -8.970073256086149e-08 2.5236523945482614 1.4570315681035582 4.121107157318085 2.5236523331434877 5.8002810708305036e-08 -3.41909889911895e-08 5.047304688632686" Properties=species:S:1:pos:R:3:forces:R:3 energy=-64.3000259399414 free_energy=-64.3000259399414 stress="-1.7610091163078323e-05 4.402543396508918e-08 -3.3197462556699975e-08 4.402543396508918e-08 -1.7470516468165442e-05 6.238404637315398e-08 -3.3197462556699975e-08 6.238404637315398e-08 -1.7865811969386414e-05" pbc="T T T"
Y        1.45703182       1.03027678       2.52365236      -0.00000061      -0.00000092       0.00000025
Y        4.37109488       3.09083035       7.57095707       0.00000052      -0.00000059      -0.00000182
Be      -0.00000006      -0.00000010      -0.00000018      -0.00000001      -0.00000038       0.00000068
O        1.39942072       0.98953943       5.04730492       0.00038052       0.00027019      -0.00000127
O        4.42870590       3.13156759       5.04730489      -0.00038135      -0.00027007      -0.00000132
O        3.67138469       0.98953950       3.73558597      -0.00019106       0.00027126       0.00033152
O        2.15674175       3.13156727       6.35902325       0.00019053      -0.00026941      -0.00032949
O        2.15674162       3.13156756       3.73558594       0.00019187      -0.00027102       0.00033087
O        3.67138457       0.98953960       6.35902328      -0.00019008       0.00027061      -0.00032878
