9
Lattice="6.066930866970669 5.035027741457063e-08 3.502744153665535 2.0223103204243493 5.719957562632483 3.5027441814416718 -6.324730216015497e-08 -1.0703937035314275e-08 7.005488416878634" Properties=species:S:1:pos:R:3:forces:R:3 energy=-40.88457107543945 free_energy=-40.88457107543945 stress="0.00022723527217749506 -1.9764367920060977e-09 -3.4287450656478313e-09 -1.9764367920060977e-09 0.00022723563597537577 -2.746689542476588e-09 -3.4287450656478313e-09 -2.746689542476588e-09 0.00022723741130903363" pbc="T T T"
Y        2.02231027       1.42998953       3.50274423       0.00000029       0.00000053      -0.00000001
Y        6.06693101       4.28996806      10.50823230       0.00000035      -0.00000015      -0.00000031
Be      -0.00000022      -0.00000011       0.00000000       0.00000085       0.00000168       0.00000228
Te       1.96624362       1.39034431       7.00548835      -0.00219294      -0.00155068      -0.00000055
Te       6.12299761       4.32961336       7.00548843       0.00219031       0.00154854       0.00000152
Te       5.08380913       1.39034446       5.20556113       0.00109624      -0.00155110      -0.00189823
Te       3.00543199       4.32961331       8.80541566      -0.00109445       0.00154926       0.00189590
Te       3.00543203       4.32961313       5.20556113      -0.00109674       0.00155044      -0.00189769
Te       5.08380908       1.39034431       8.80541579       0.00109605      -0.00154848       0.00189714
