9
Lattice="6.018038778860783 -4.801026959828488e-08 3.474516244587786 2.0060129107785136 5.673861246168226 3.4745161930487214 -5.007179042782576e-08 -9.852831645180493e-08 6.949032575902515" Properties=species:S:1:pos:R:3:forces:R:3 energy=-42.181671142578125 free_energy=-42.181671142578125 stress="-5.24114329891745e-05 -2.389022313309397e-08 5.74201397540719e-09 -2.389022313309397e-08 -5.239399979473092e-05 8.178234089939451e-09 5.74201397540719e-09 8.178234089939451e-09 -5.2395153034012765e-05" pbc="T T T"
Y        2.00601254       1.41846522       3.47451643      -0.00000159      -0.00000052       0.00000165
Y        6.01803873       4.25539674      10.42354814       0.00000065       0.00000456      -0.00000328
Ca      -0.00000019      -0.00000018      -0.00000010       0.00000252       0.00000254       0.00000097
Se       2.18423460       1.54448685       6.94903253      -0.00196577      -0.00139166       0.00000003
Se       5.83981776       4.12937394       6.94903290       0.00196257       0.00138653       0.00000285
Se       4.92592092       1.54448679       5.36611893       0.00098321      -0.00139245      -0.00170117
Se       3.09813019       4.12937425       8.53194610      -0.00098148       0.00138915       0.00170160
Se       3.09813058       4.12937416       5.36611900      -0.00098240       0.00139157      -0.00170251
Se       4.92592141       1.54448669       8.53194607       0.00098244      -0.00138978       0.00170005
