9
Lattice="6.430205855050675 -5.498879474927982e-09 3.712481075327697 2.1434019321084774 6.062456195965602 3.7124811002530764 -4.076440205567298e-08 1.7024204647132993e-09 7.424962221261365" Properties=species:S:1:pos:R:3:forces:R:3 energy=-38.86515808105469 free_energy=-38.86515808105469 stress="-0.00010898741311393678 -3.949715221551742e-08 -7.294613357800017e-09 -3.949715221551742e-08 -0.00010896846652030945 -1.164209706416841e-08 -7.294613357800017e-09 -1.164209706416841e-08 -0.00010893805301748216" pbc="T T T"
Y        2.14340202       1.51561394       3.71248102       0.00000028       0.00000035      -0.00000012
Y        6.43020560       4.54684221      11.13744411       0.00000036      -0.00000047       0.00000205
Ca      -0.00000019      -0.00000013       0.00000050       0.00000270       0.00000010      -0.00000796
Te       2.34339914       1.65703342       7.42496213       0.00256489       0.00181410       0.00000002
Te       6.23020868       4.40542293       7.42496222      -0.00256774      -0.00181573      -0.00000029
Te       5.25850642       1.65703345       5.74192403      -0.00128375       0.00181529       0.00222379
Te       3.31510157       4.40542263       9.10799978       0.00128020      -0.00181077      -0.00221803
Te       3.31510159       4.40542285       5.74192407       0.00128384      -0.00181406       0.00222104
Te       5.25850615       1.65703348       9.10799978      -0.00128077       0.00181123      -0.00222055
