9
Lattice="5.710257747753562 -2.0017998510168378e-08 3.2968185132998076 1.9034192288587362 5.3836822813293415 3.2968185159313195 -4.036538917972954e-08 -2.5319705939304865e-08 6.5936370965145334" Properties=species:S:1:pos:R:3:forces:R:3 energy=-45.266082763671875 free_energy=-45.266082763671875 stress="-0.00010337099229218438 -2.1449890752478495e-08 3.30314655627717e-08 -2.1449890752478495e-08 -0.00010335103434044868 -3.917346802495558e-08 3.30314655627717e-08 -3.917346802495558e-08 -0.0001033348380587995" pbc="T T T"
Y        1.90341941       1.34592059       3.29681934      -0.00000006      -0.00000056       0.00000170
Y        5.71025828       4.03776183       9.89045565       0.00000026       0.00000052      -0.00000201
Ca       0.00000041       0.00000000      -0.00000118      -0.00001477      -0.00000356       0.00001472
S        2.05353679       1.45206981       6.59363677       0.00674010       0.00476690      -0.00000294
S        5.56013859       3.93161191       6.59363724      -0.00672574      -0.00475311       0.00000133
S        4.68348862       1.45207024       5.07523428      -0.00336541       0.00475439       0.00582658
S        2.93018832       3.93161185       8.11204017       0.00336938      -0.00476540      -0.00583506
S        2.93018830       3.93161222       5.07523422       0.00336207      -0.00475802       0.00582846
S        4.68348906       1.45207038       8.11203984      -0.00336581       0.00475860      -0.00583265
