9
Lattice="4.6329676784765885 -3.287511747222263e-08 2.674845219119315 1.5443225088407746 4.368003932913838 2.674845253165337 -3.9284297972097575e-08 1.3919463503834018e-08 5.349690506281046" Properties=species:S:1:pos:R:3:forces:R:3 energy=-59.074005126953125 free_energy=-59.074005126953125 stress="-6.389258487615734e-05 -1.2213577349484694e-07 3.3825365619577497e-08 -1.2213577349484694e-07 -6.389998452505097e-05 -8.376173354918137e-08 3.3825365619577497e-08 -8.376173354918137e-08 -6.384840526152402e-05" pbc="T T T"
Y        1.54432249       1.09200102       2.67484498       0.00000008       0.00000214      -0.00000084
Y        4.63296754       3.27600286       8.02453566       0.00000070      -0.00000001      -0.00000014
Ca      -0.00000014      -0.00000008       0.00000023      -0.00000017       0.00000057      -0.00000313
O        1.70383638       1.20479418       5.34969070      -0.00047088      -0.00033334       0.00000087
O        4.47345379       3.16320977       5.34969057       0.00046933       0.00033176      -0.00000163
O        3.78104939       1.20479427       4.15041079       0.00023510      -0.00033084      -0.00040728
O        2.39624073       3.16320959       6.54897012      -0.00023594       0.00033298       0.00041005
O        2.39624072       3.16320965       4.15041106      -0.00023665       0.00033537      -0.00040990
O        3.78104958       1.20479435       6.54896975       0.00023806      -0.00033844       0.00041178
