9
Lattice="5.560664022536897 -2.646049406052395e-07 3.210450576330684 1.8535544330496647 5.2426441495882266 3.210450561880852 -7.185034968767744e-08 -6.850325642543286e-08 6.420901277109842" Properties=species:S:1:pos:R:3:forces:R:3 energy=-42.95555114746094 free_energy=-42.95555114746094 stress="4.130629531573504e-05 4.048077428819852e-08 4.0910426157836355e-09 4.048077428819852e-08 4.1337614675285295e-05 3.856475672137094e-08 4.0910426157836355e-09 3.856475672137094e-08 4.133117545279674e-05" pbc="T T T"
Y        1.85355442       1.31066118       3.21045053      -0.00000055       0.00000099       0.00000019
Y        5.56066397       3.93198291       9.63135179       0.00000020      -0.00000016       0.00000009
Cd       0.00000003      -0.00000022       0.00000014       0.00000014       0.00000014      -0.00000115
S        1.97876904       1.39920099       6.42090114      -0.00153977      -0.00108775      -0.00000115
S        5.43544935       3.84344283       6.42090122       0.00154090       0.00108811       0.00000056
S        4.57127935       1.39920090       4.92411478       0.00077018      -0.00108829      -0.00133049
S        2.84293904       3.84344277       7.91768761      -0.00077128       0.00108930       0.00133264
S        2.84293916       3.84344300       4.92411461      -0.00077024       0.00108638      -0.00133151
S        4.57127916       1.39920100       7.91768779       0.00076988      -0.00108901       0.00133151
