9
Lattice="4.617007007534598 -5.040486088383398e-08 2.6656301861300875 1.5390023134434232 4.35295580309549 2.66563014261971 1.3420399947647012e-08 -4.379946268814405e-08 5.331260349015356" Properties=species:S:1:pos:R:3:forces:R:3 energy=-55.65773010253906 free_energy=-55.65773010253906 stress="-0.00042586526251398027 1.4243668466917825e-08 1.8029979287348397e-08 1.4243668466917825e-08 -0.0004257659602444619 -2.7284583481446134e-09 1.8029979287348397e-08 -2.7284583481446134e-09 -0.0004258683475200087" pbc="T T T"
Y        1.53900251       1.08823914       2.66563005       0.00000154       0.00000329      -0.00000007
Y        4.61700680       3.26471693       7.99689042      -0.00000024       0.00000021      -0.00000459
Cd       0.00000020       0.00000045      -0.00000042       0.00000090      -0.00002126       0.00001679
O        1.68882112       1.19417661       5.33126026       0.00742972       0.00525016       0.00000132
O        4.46718767       3.15877871       5.33126054      -0.00741613      -0.00524604      -0.00000038
O        3.77259632       1.19417665       4.12819202      -0.00371334       0.00525016       0.00643003
O        2.38341311       3.15877857       6.53432844       0.00371036      -0.00525004      -0.00642455
O        2.38341291       3.15877863       4.12819268       0.00370508      -0.00524062       0.00641662
O        3.77259650       1.19417702       6.53432875      -0.00371784       0.00525421      -0.00643605
