9
Lattice="6.340020155945038 5.322834144785109e-08 3.6604122433182176 2.1133400918583587 5.977428176052493 3.660412261171252 -2.1003094004592e-08 7.014020202150212e-09 7.320824523014866" Properties=species:S:1:pos:R:3:forces:R:3 energy=-36.48519515991211 free_energy=-36.48519515991211 stress="6.086768735258374e-06 -5.917268453003999e-09 3.598592090980901e-09 -5.917268453003999e-09 6.0951474551984575e-06 1.4101731338200807e-08 3.598592090980901e-09 1.4101731338200807e-08 6.093606771173654e-06" pbc="T T T"
Y        2.11334017       1.49435703       3.66041235       0.00000090      -0.00000092      -0.00000010
Y        6.34002017       4.48307136      10.98123672      -0.00000001       0.00000030      -0.00000065
Cd      -0.00000035       0.00000007      -0.00000035       0.00000654      -0.00000371      -0.00000048
Te       2.27277846       1.60709715       7.32082466      -0.00139785      -0.00099020       0.00000001
Te       6.18058183       4.37033153       7.32082452       0.00139403       0.00098491       0.00000045
Te       5.20363097       1.60709690       5.62869560       0.00069745      -0.00098528      -0.00120619
Te       3.24972935       4.37033104       9.01295293      -0.00069931       0.00099017       0.00121331
Te       3.24972922       4.37033126       5.62869631      -0.00069937       0.00098972      -0.00121227
Te       5.20363105       1.60709664       9.01295333       0.00069761      -0.00098495       0.00120571
