9
Lattice="4.472061093233273 -8.374093908222092e-08 2.5819456631667346 1.4906870094004199 4.216299511460434 2.581945563964618 1.0935940222938278e-07 -4.4168505035876644e-08 5.163891136917399" Properties=species:S:1:pos:R:3:forces:R:3 energy=-65.03207397460938 free_energy=-65.03207397460938 stress="-2.394673356320709e-05 -2.361761097802173e-08 7.31088505290245e-08 -2.361761097802173e-08 -2.3823706214898266e-05 4.5727045261401145e-08 7.31088505290245e-08 4.5727045261401145e-08 -2.3629045244888403e-05" pbc="T T T"
Y        1.49068706       1.05407482       2.58194599      -0.00000150       0.00000070       0.00000053
Y        4.47206084       3.16222491       7.74583653       0.00000112      -0.00000003       0.00000060
Co      -0.00000019       0.00000030       0.00000028       0.00000190      -0.00000315      -0.00000536
O        1.48323481       1.04880490       5.16389112      -0.00038841      -0.00027324      -0.00000278
O        4.47951366       3.16749438       5.16389112       0.00038743       0.00027293       0.00000099
O        3.73044387       1.04880513       3.86646426       0.00019224      -0.00027305      -0.00033456
O        2.23230465       3.16749412       6.46131772      -0.00019540       0.00027673       0.00033969
O        2.23230436       3.16749422       3.86646435      -0.00019306       0.00027275      -0.00033560
O        3.73044391       1.04880490       6.46131791       0.00019528      -0.00027366       0.00033543
