9
Lattice="6.095572257806635 -3.74300803402264e-08 3.5192805278621644 2.0318573864713416 5.746960721901953 3.5192805235461515 -2.074294157876909e-08 -1.9953494529596268e-08 7.03856109165214" Properties=species:S:1:pos:R:3:forces:R:3 energy=-44.53216552734375 free_energy=-44.53216552734375 stress="-2.717409370234236e-05 -1.3018661704222723e-09 -1.013455896980986e-08 -1.3018661704222723e-09 -2.7167374355485663e-05 2.247558938961447e-08 -1.013455896980986e-08 2.247558938961447e-08 -2.716248854994774e-05" pbc="T T T"
Y        2.03185709       1.43674107       3.51928054      -0.00000059       0.00000008      -0.00000016
Y        6.09557210       4.31022036      10.55784170      -0.00000007       0.00000003       0.00000007
Co       0.00000007      -0.00000000       0.00000008      -0.00000255      -0.00000060       0.00000048
Te       2.02213100       1.42986257       7.03856099       0.00083919       0.00059295      -0.00000029
Te       6.10529867       4.31709797       7.03856101      -0.00083617      -0.00059185      -0.00000086
Te       5.08450689       1.42986262       5.27049760      -0.00041794       0.00059160       0.00072417
Te       3.04292295       4.31709779       8.80662489       0.00041789      -0.00059196      -0.00072463
Te       3.04292282       4.31709791       5.27049728       0.00041920      -0.00059297       0.00072655
Te       5.08450692       1.42986236       8.80662450      -0.00041901       0.00059266      -0.00072532
