9
Lattice="4.208358540599601 -2.0922438541243387e-08 2.4296970638624535 1.4027861715696137 3.967678489062633 2.429697044644279 -1.0486211067258716e-08 -3.095224447523808e-08 4.8593941458875465" Properties=species:S:1:pos:R:3:forces:R:3 energy=-68.80638885498047 free_energy=-68.80638885498047 stress="2.8119373382651247e-05 -1.7020234110987076e-08 -2.0772141340330563e-08 -1.7020234110987076e-08 2.8154485335107893e-05 -3.0924788063657616e-08 -2.0772141340330563e-08 -3.0924788063657616e-08 2.8083719371352345e-05" pbc="T T T"
Y        1.40278623       0.99191948       2.42969695      -0.00000093      -0.00000028       0.00000158
Y        4.20835862       2.97575887       7.28909151      -0.00000075       0.00000123      -0.00000236
C        0.00000005      -0.00000131       0.00000006      -0.00000113       0.00000475       0.00000100
O        1.28142257       0.90610291       4.85939399      -0.00016677      -0.00012130       0.00000241
O        4.32972247       3.06157601       4.85939424       0.00017142       0.00011855      -0.00000002
O        3.56764708       0.90610292       3.53944178       0.00008494      -0.00011969      -0.00014222
O        2.04349731       3.06157604       6.17934682      -0.00008553       0.00011665       0.00014532
O        2.04349720       3.06157596       3.53944147      -0.00008488       0.00012118      -0.00014710
O        3.56764729       0.90610291       6.17934644       0.00008297      -0.00012082       0.00014102
