9
Lattice="5.342227819879532 -2.19371651960195e-08 3.084336661665419 1.7807425852374246 5.0367006320324945 3.0843366628891986 5.497620125678678e-08 4.037286285081019e-08 6.168673228109259" Properties=species:S:1:pos:R:3:forces:R:3 energy=-52.995296478271484 free_energy=-52.995296478271484 stress="-9.688015416031703e-05 -1.1158115320597517e-08 5.410193404387087e-10 -1.1158115320597517e-08 -9.688523277873173e-05 -2.2935187082850916e-10 5.410193404387087e-10 -2.2935187082850916e-10 -9.691096056485549e-05" pbc="T T T"
Y        1.78074253       1.25917525       3.08433632      -0.00000018      -0.00000053       0.00000014
Y        5.34222814       3.77752530       9.25301040       0.00000069       0.00000030       0.00000161
Co       0.00000013      -0.00000001      -0.00000011      -0.00000004      -0.00000085       0.00000068
S        1.77971348       1.25844771       6.16867309      -0.00049561      -0.00035059       0.00000033
S        5.34325672       3.77825286       6.16867326       0.00049669       0.00035018      -0.00000007
S        4.45237106       1.25844767       4.62561375       0.00024754      -0.00035018      -0.00042835
S        2.67059941       3.77825300       7.71173277      -0.00024778       0.00035006       0.00042853
S        2.67059945       3.77825327       4.62561404      -0.00024852       0.00035167      -0.00043008
S        4.45237092       1.25844756       7.71173267       0.00024754      -0.00034961       0.00042737
