9
Lattice="4.520932099328185 -3.928263262864664e-08 2.6101613632675975 1.5069773566441855 4.262375313074736 2.610161316090875 5.965155460529399e-08 -1.5599419905130475e-08 5.220322623215676" Properties=species:S:1:pos:R:3:forces:R:3 energy=-69.48450469970703 free_energy=-69.48450469970703 stress="-1.2574935681186616e-05 -9.263612099630336e-09 -3.675222903787301e-10 -9.263612099630336e-09 -1.2766259715135675e-05 5.34537676344371e-08 -3.675222903787301e-10 5.34537676344371e-08 -1.2529731066024397e-05" pbc="T T T"
Y        1.50697779       1.06559405       2.61016109      -0.00000016      -0.00000181       0.00000052
Y        4.52093210       3.19678126       7.83048395      -0.00000003       0.00000281       0.00000040
Cr       0.00000006      -0.00000026       0.00000030       0.00000169       0.00000131      -0.00000569
O        1.48570102       1.05054918       5.22032246       0.00048566       0.00034383      -0.00000191
O        4.54220852       3.21182639       5.22032283      -0.00048703      -0.00034827      -0.00000096
O        3.77808167       1.05054908       3.89681608      -0.00024354       0.00034580       0.00042246
O        2.24982786       3.21182634       6.54382900       0.00024091      -0.00034308      -0.00041535
O        2.24982759       3.21182624       3.89681619       0.00024420      -0.00034562       0.00041872
O        3.77808141       1.05054890       6.54382931      -0.00024155       0.00034425      -0.00041808
