9
Lattice="5.67263064418662 -1.1102540852844664e-08 3.275094965626723 1.8908768926155846 5.348207587839971 3.275094928062725 1.2424722793247352e-08 -3.722076315395213e-08 6.5501899097332235" Properties=species:S:1:pos:R:3:forces:R:3 energy=-51.27716827392578 free_energy=-51.27716827392578 stress="8.47278624860337e-06 -1.5220722460185243e-08 -1.3358966377552406e-08 -1.5220722460185243e-08 8.456912837573327e-06 1.809998373403232e-08 -1.3358966377552406e-08 1.809998373403232e-08 8.514844921592157e-06" pbc="T T T"
Y        1.89087736       1.33705132       3.27509492       0.00000177      -0.00000147       0.00000051
Y        5.67263025       4.01115579       9.82528455      -0.00000040       0.00000004       0.00000001
Cr      -0.00000005       0.00000013       0.00000035       0.00000066      -0.00000407      -0.00000434
Se       1.93205669       1.36617039       6.55018989      -0.00016154      -0.00011500       0.00000022
Se       5.63145074       3.98203743       6.55018987       0.00016316       0.00011393      -0.00000097
Se       4.70660212       1.36617041       4.94830546       0.00008083      -0.00011298      -0.00013900
Se       2.85690564       3.98203676       8.15207418      -0.00008404       0.00011874       0.00014538
Se       2.85690524       3.98203713       4.94830553      -0.00008148       0.00011489      -0.00014246
Se       4.70660214       1.36617081       8.15207441       0.00008116      -0.00011435       0.00014056
