9
Lattice="6.15981834646471 1.7630557962369974e-07 3.556372831673973 2.053272923693666 5.807532628908956 3.556372874427416 4.8453560544141017e-08 8.66239218853731e-08 7.112745579423884" Properties=species:S:1:pos:R:3:forces:R:3 energy=-46.766292572021484 free_energy=-46.766292572021484 stress="-2.9601684218505397e-05 -1.0828415497599053e-08 2.286575018217718e-08 -1.0828415497599053e-08 -2.9580240152426995e-05 -1.669297056139385e-08 2.286575018217718e-08 -1.669297056139385e-08 -2.957433753181249e-05" pbc="T T T"
Y        2.05327272       1.45188275       3.55637272      -0.00000039      -0.00000040      -0.00000033
Y        6.15981839       4.35564976      10.66911726       0.00000025       0.00000054      -0.00000230
Cr       0.00000012       0.00000009      -0.00000005      -0.00000322      -0.00000085       0.00000112
Te       2.09269106       1.47975649       7.11274570      -0.00097158      -0.00068602       0.00000061
Te       6.12040015       4.32777652       7.11274610       0.00097528       0.00068901      -0.00000024
Te       5.11347266       1.47975592       5.36869683       0.00048587      -0.00068780      -0.00084381
Te       3.09961874       4.32777679       8.85679493      -0.00048551       0.00068667       0.00084335
Te       3.09961867       4.32777692       5.36869693      -0.00048788       0.00068977      -0.00084461
Te       5.11347278       1.47975634       8.85679474       0.00048712      -0.00069092       0.00084610
