9
Lattice="5.288269504295635 -1.288102671743189e-08 3.0531839347113188 1.7627565086237331 4.9858283028007575 3.0531839012200246 4.78428305788132e-08 -7.188284719408509e-09 6.106367786556407" Properties=species:S:1:pos:R:3:forces:R:3 energy=-50.35274887084961 free_energy=-50.35274887084961 stress="-2.3695600248174742e-05 9.444516280154858e-09 -1.1282746292806678e-08 9.444516280154858e-09 -2.3620879801455885e-05 3.6265237923771565e-08 -1.1282746292806678e-08 3.6265237923771565e-08 -2.3673390387557447e-05" pbc="T T T"
Y        1.76275636       1.24645730       3.05318393      -0.00000007       0.00000109      -0.00000157
Y        5.28826950       3.73937113       9.15955154       0.00000030       0.00000134       0.00000012
C       -0.00000089       0.00000695      -0.00000343      -0.00001948       0.00012857      -0.00006671
S        1.64194757       1.16103236       6.10636756       0.00012383       0.00008817       0.00000147
S        5.40907544       3.82479402       6.10636790      -0.00017425      -0.00012311       0.00000065
S        4.46729530       1.16103287       4.47515257      -0.00006571       0.00009431       0.00011584
S        2.58373141       3.82479471       7.73758141       0.00008136      -0.00011554      -0.00014192
S        2.58373275       3.82479265       4.47515621       0.00010160      -0.00014286       0.00017658
S        4.46729674       1.16103109       7.73758489      -0.00004797       0.00006816      -0.00008437
