9
Lattice="5.377832151274352 2.5937808934430828e-08 3.104892802582526 1.7926107801129898 5.070268763716522 3.1048927357822533 5.177662712965327e-08 -4.520162763173204e-08 6.20978551548524" Properties=species:S:1:pos:R:3:forces:R:3 energy=-47.559364318847656 free_energy=-47.559364318847656 stress="4.28060520789586e-05 6.898961846246721e-09 -4.662274566413771e-09 6.898961846246721e-09 4.2847652366617694e-05 4.941524966994848e-09 -4.662274566413771e-09 4.941524966994848e-09 4.2796440538950264e-05" pbc="T T T"
Y        1.79261074       1.26756701       3.10489225      -0.00000005       0.00000007      -0.00000042
Y        5.37783257       3.80270180       9.31467819       0.00000012       0.00000051      -0.00000111
Cu      -0.00000001      -0.00000009       0.00000030       0.00000066       0.00000047      -0.00000289
S        1.85391537       1.31091613       6.20978543      -0.00147176      -0.00104153       0.00000195
S        5.31652745       3.75935272       6.20978564       0.00147265       0.00104004      -0.00000059
S        4.45087449       1.31091594       4.71043070       0.00073579      -0.00104064      -0.00127339
S        2.71956845       3.75935273       7.70914045      -0.00073656       0.00104088       0.00127745
S        2.71956833       3.75935278       4.71043073      -0.00073630       0.00104064      -0.00127590
S        4.45087459       1.31091600       7.70914063       0.00073537      -0.00104028       0.00127459
