9
Lattice="5.675430600314678 -1.494678414637184e-07 3.2767113504010146 1.891810085216025 5.350847023552705 3.2767113053144215 6.904092226404273e-08 -6.4002961670910415e-09 6.553422581219642" Properties=species:S:1:pos:R:3:forces:R:3 energy=-43.85997772216797 free_energy=-43.85997772216797 stress="-8.43808738864027e-05 -1.0177736431415951e-09 -2.8438693178145513e-08 -1.0177736431415951e-09 -8.431851165369153e-05 -1.9851480459465165e-08 -2.8438693178145513e-08 -1.9851480459465165e-08 -8.429252193309367e-05" pbc="T T T"
Y        1.89181007       1.33771273       3.27671155      -0.00000041       0.00000274       0.00000038
Y        5.67543140       4.01313515       9.83013336       0.00000139      -0.00000058      -0.00000153
Cu      -0.00000009      -0.00000008       0.00000001      -0.00000055      -0.00000180       0.00000009
Se       1.97396970       1.39580720       6.55342265      -0.00013864      -0.00009644      -0.00000005
Se       5.59327054       3.95503948       6.55342288       0.00014073       0.00009781       0.00000115
Se       4.68844552       1.39580714       4.98621946       0.00006992      -0.00009802      -0.00012034
Se       2.87879516       3.95503932       8.12062573      -0.00007159       0.00009763       0.00012118
Se       2.87879517       3.95503912       4.98621942      -0.00007102       0.00009793      -0.00012136
Se       4.68844552       1.39580743       8.12062595       0.00007033      -0.00009930       0.00012016
