9
Lattice="4.456217475610153 -1.0295196168788929e-07 2.572798391320903 1.485405795600881 4.201361750714025 2.5727982744741045 1.03941517035811e-07 -6.960979784762496e-08 5.145596602609874" Properties=species:S:1:pos:R:3:forces:R:3 energy=-62.53495788574219 free_energy=-62.53495788574219 stress="-0.00010587416181806475 -3.26096150082833e-09 7.954664482667795e-08 -3.26096150082833e-09 -0.00010591442696750164 3.6575553696849283e-09 7.954664482667795e-08 3.6575553696849283e-09 -0.00010579891386441886" pbc="T T T"
Y        1.48540571       1.05034015       2.57279868       0.00000003       0.00000029      -0.00000088
Y        4.45621798       3.15102100       7.71839476      -0.00000068       0.00000085       0.00000215
Cu      -0.00000010      -0.00000008       0.00000024       0.00000240       0.00000104      -0.00001367
O        1.53342291       1.08429349       5.14559653       0.00309400       0.00218640       0.00000025
O        4.40820046       3.11706823       5.14559667      -0.00309490      -0.00218850       0.00000005
O        3.68950616       1.08429360       3.90078152      -0.00154794       0.00218946       0.00268240
O        2.25211723       3.11706811       6.39041160       0.00154564      -0.00218584      -0.00267568
O        2.25211705       3.11706801       3.90078143       0.00154756      -0.00219001       0.00268237
O        3.68950624       1.08429367       6.39041168      -0.00154581       0.00218643      -0.00267641
