9
Lattice="6.135466331543612 -4.849501617138466e-08 3.542313148963222 2.0451553909500837 5.784573041306488 3.5423131613928174 -3.7993079087579974e-08 -1.1642067071531113e-08 7.084626363732371" Properties=species:S:1:pos:R:3:forces:R:3 energy=-40.57206726074219 free_energy=-40.57206726074219 stress="7.921202632132918e-05 2.305924784451463e-09 5.362054356083945e-09 2.305924784451463e-09 7.921378710307181e-05 -4.572797696056341e-09 5.362054356083945e-09 -4.572797696056341e-09 7.922267832327634e-05" pbc="T T T"
Y        2.04515513       1.44614330       3.54231310      -0.00000129       0.00000052       0.00000021
Y        6.13546657       4.33842962      10.62693926       0.00000122      -0.00000091      -0.00000077
Cu      -0.00000014      -0.00000007       0.00000024       0.00000155       0.00000106      -0.00000174
Te       2.12594476       1.50326992       7.08462633      -0.00834966      -0.00590390      -0.00000029
Te       6.05467705       4.28130313       7.08462659       0.00834787       0.00590307      -0.00000004
Te       5.07249404       1.50326992       5.38343530       0.00417417      -0.00590217      -0.00722983
Te       3.10812771       4.28130305       8.78581735      -0.00417559       0.00590451       0.00723036
Te       3.10812745       4.28130315       5.38343537      -0.00417392       0.00590260      -0.00722928
Te       5.07249411       1.50326990       8.78581717       0.00417559      -0.00590464       0.00723138
