9
Lattice="6.0603424923876785 -6.813585908768465e-08 3.498940466950197 2.020114113816222 5.713745542193789 3.498940442829494 -9.1339100908997e-08 -9.412823508035296e-08 6.9978810921043975" Properties=species:S:1:pos:R:3:forces:R:3 energy=-46.03183364868164 free_energy=-46.03183364868164 stress="-0.0001133134137489833 8.938788376156026e-09 1.4469725861943061e-08 8.938788376156026e-09 -0.00011331315181450918 -2.756830852490566e-08 1.4469725861943061e-08 -2.756830852490566e-08 -0.00011331516725476831" pbc="T T T"
Y        2.02011418       1.42843637       3.49894062      -0.00000004       0.00000032       0.00000062
Y        6.06034233       4.28530944      10.49682146      -0.00000017       0.00000036      -0.00000024
Fe      -0.00000008      -0.00000009       0.00000013      -0.00000027       0.00000280      -0.00000100
Te       1.96672298       1.39068305       6.99788092       0.00641903       0.00453915       0.00000004
Te       6.11373372       4.32306233       6.99788133      -0.00642064      -0.00453938      -0.00000005
Te       5.07698085       1.39068281       5.20217282      -0.00321097       0.00454060       0.00556071
Te       3.00347558       4.32306232       8.79358915       0.00321120      -0.00454128      -0.00556234
Te       3.00347565       4.32306218       5.20217250       0.00321057      -0.00453992       0.00555960
Te       5.07698086       1.39068309       8.79358909      -0.00320865       0.00453734      -0.00555727
