9
Lattice="5.6846871551332026 -2.1123038021163074e-08 3.28205566427214 1.8948956923329294 5.359574500682223 3.2820556748893632 4.05853414606073e-08 4.170155088887292e-08 6.5641112582484356" Properties=species:S:1:pos:R:3:forces:R:3 energy=-50.01173782348633 free_energy=-50.01173782348633 stress="-0.00013246784510556608 -2.780715391281774e-08 2.1534726002414573e-08 -2.780715391281774e-08 -0.00013243424473330379 5.542780012746107e-09 2.1534726002414573e-08 5.542780012746107e-09 -0.0001324441545875743" pbc="T T T"
Y        1.89489605       1.33989328       3.28205511       0.00000051      -0.00000056      -0.00000334
Y        5.68468651       4.01968162       9.84616733      -0.00000217       0.00000363       0.00000226
Fe       0.00000007      -0.00000008      -0.00000018      -0.00000036       0.00000298       0.00000451
Se       1.86267156       1.31710734       6.56411175       0.00421891       0.00298268       0.00000009
Se       5.71691132       4.04246725       6.56411127      -0.00421935      -0.00298274      -0.00000065
Se       4.75335153       1.31710770       4.89517670      -0.00210665       0.00297961       0.00364953
Se       2.82623144       4.04246674       8.23304607       0.00210939      -0.00298411      -0.00365454
Se       2.82623174       4.04246680       4.89517640       0.00210835      -0.00298122       0.00365219
Se       4.75335137       1.31710745       8.23304596      -0.00210857       0.00297958      -0.00365028
