9
Lattice="5.34946395159048 -3.652818468878976e-08 3.0885143909430584 1.7831546313969022 5.04352276080496 3.0885143644325526 -1.5058916995445738e-08 -4.311683302129285e-08 6.177028807968844" Properties=species:S:1:pos:R:3:forces:R:3 energy=-54.68270492553711 free_energy=-54.68270492553711 stress="1.7201960872625932e-05 7.33784810691418e-09 -1.4974499862319135e-08 7.33784810691418e-09 1.7231377569260076e-05 -4.243501106060421e-09 -1.4974499862319135e-08 -4.243501106060421e-09 1.7198386558447964e-05" pbc="T T T"
Y        1.78315443       1.26088039       3.08851430      -0.00000066      -0.00000026       0.00000012
Y        5.34946356       3.78264213       9.26554256      -0.00000031       0.00000016       0.00000017
Fe       0.00000008      -0.00000003       0.00000018       0.00000175       0.00000008       0.00000101
S        1.77004086       1.25160776       6.17702889      -0.00065887      -0.00046653       0.00000011
S        5.36257795       3.79191496       6.17702898       0.00065786       0.00046548      -0.00000122
S        4.46444357       1.25160769       4.62141473       0.00032941      -0.00046483      -0.00056913
S        2.66817518       3.79191506       7.73264293      -0.00032988       0.00046533       0.00056937
S        2.66817483       3.79191503       4.62141459      -0.00032875       0.00046632      -0.00057063
S        4.46444375       1.25160780       7.73264301       0.00032943      -0.00046596       0.00056967
