9
Lattice="5.5493936648591315 -1.0056829325294376e-08 3.2039439069171416 1.8497978882135686 5.232018296580346 3.2039438906204865 7.0741676870325285e-09 -1.4957011937861058e-08 6.407887801581496" Properties=species:S:1:pos:R:3:forces:R:3 energy=-49.407649993896484 free_energy=-49.407649993896484 stress="-0.00021001444838475436 2.233606011259326e-08 -6.16354167704003e-09 2.233606011259326e-08 -0.0002100592537317425 1.1361263929643428e-08 -6.16354167704003e-09 1.1361263929643428e-08 -0.00021006911993026733" pbc="T T T"
Y        1.84979764       1.30800427       3.20394400      -0.00000038       0.00000080       0.00000089
Y        5.54939358       3.92401347       9.61183223      -0.00000167      -0.00000160       0.00000289
Ge       0.00000001       0.00000009       0.00000005      -0.00000180      -0.00000052       0.00000014
S        1.87747996       1.32757892       6.40788787      -0.00149387      -0.00105554       0.00000007
S        5.52171145       3.90443935       6.40788790       0.00149554       0.00105843       0.00000032
S        4.61065374       1.32757899       4.82988917       0.00074816      -0.00105634      -0.00129509
S        2.78853782       3.90443972       7.98588590      -0.00074798       0.00105682       0.00129110
S        2.78853822       3.90443951       4.82988900      -0.00074521       0.00105539      -0.00129360
S        4.61065386       1.32757877       7.98588630       0.00074744      -0.00105745       0.00129300
