9
Lattice="5.812373209628666 -3.376076638691414e-08 3.3557751951518595 1.9374577042427334 5.479957933088936 3.3557751959662836 -6.755478154822869e-09 -3.7793723595323275e-09 6.711550402004537" Properties=species:S:1:pos:R:3:forces:R:3 energy=-44.779808044433594 free_energy=-44.779808044433594 stress="-5.1112016080878675e-05 3.591984210071786e-10 -2.315580793776917e-08 3.591984210071786e-10 -5.1108112529618666e-05 2.485792405249043e-10 -2.315580793776917e-08 2.485792405249043e-10 -5.110359052196145e-05" pbc="T T T"
Y        1.93745634       1.36998960       3.35577558      -0.00000615       0.00000091       0.00000121
Y        5.81237317       4.10996829      10.06732499       0.00000042      -0.00000064      -0.00000224
Ge       0.00000014       0.00000025       0.00000012      -0.00000002      -0.00000371       0.00000036
Se       1.98662322       1.40475485       6.71155023       0.00028722       0.00020312      -0.00000102
Se       5.76320793       4.07520296       6.71155062      -0.00028500      -0.00020325       0.00000151
Se       4.81906193       1.40475462       5.07624174      -0.00014157       0.00020172       0.00024827
Se       2.93076941       4.07520318       8.34685935       0.00014322      -0.00020041      -0.00024538
Se       2.93076940       4.07520303       5.07624144       0.00014312      -0.00020154       0.00024606
Se       4.81906210       1.40475480       8.34685911      -0.00014117       0.00020386      -0.00024901
