9
Lattice="6.284179495318634 2.996702305956336e-08 3.6281727279911786 2.094726477981727 5.924781340802448 3.6281728123610866 -5.1093511741559955e-08 6.720304394065862e-08 7.2563455444788865" Properties=species:S:1:pos:R:3:forces:R:3 energy=-40.363704681396484 free_energy=-40.363704681396484 stress="-7.111259492376121e-06 -6.558688703250937e-09 8.046766808433858e-09 -6.558688703250937e-09 -7.091613497323124e-06 1.3531079368078736e-08 8.046766808433858e-09 1.3531079368078736e-08 -7.1053368628781755e-06" pbc="T T T"
Y        2.09472622       1.48119535       3.62817276      -0.00000072       0.00000001       0.00000021
Y        6.28417933       4.44358610      10.88451792      -0.00000061      -0.00000022      -0.00000094
Ge      -0.00000014       0.00000003       0.00000002      -0.00000006      -0.00000069      -0.00000169
Te       2.19433202       1.55162716       7.25634548       0.00000730       0.00000393       0.00000081
Te       6.18457385       4.37315435       7.25634560      -0.00000489      -0.00000397       0.00000038
Te       5.18701352       1.55162734       5.52852022      -0.00000221       0.00000389       0.00000499
Te       3.19189280       4.37315410       8.98417090       0.00000272      -0.00000361      -0.00000364
Te       3.19189250       4.37315409       5.52852056       0.00000194      -0.00000352       0.00000440
Te       5.18701356       1.55162724       8.98417088      -0.00000338       0.00000403      -0.00000452
