9
Lattice="4.521977501279974 1.2491850848477463e-07 2.6107649876923613 1.5073259921910112 4.263361046130475 2.610764917272849 2.4762041296903926e-07 8.88481278443931e-08 5.221529546493575" Properties=species:S:1:pos:R:3:forces:R:3 energy=-66.21917724609375 free_energy=-66.21917724609375 stress="-0.0003297518996987492 4.5764423362015805e-08 1.079835456607725e-07 4.5764423362015805e-08 -0.00032956869108602405 1.7495086979124608e-07 1.079835456607725e-07 1.7495086979124608e-07 -0.00033008845639415085" pbc="T T T"
Y        1.50732546       1.06583976       2.61076484       0.00000051      -0.00000017       0.00000031
Y        4.52197775       3.19752106       7.83229469      -0.00000149      -0.00000271       0.00000078
Ge       0.00000012       0.00000001      -0.00000008      -0.00000092       0.00000101      -0.00000085
O        1.52738064       1.08002076       5.22152937      -0.00408411      -0.00288719       0.00000031
O        4.50192341       3.18334031       5.22152968       0.00408411       0.00288910       0.00000215
O        3.75828772       1.08002098       3.93351546       0.00204378      -0.00289267      -0.00354111
O        2.27101612       3.18334029       6.50954450      -0.00204295       0.00289088       0.00353515
O        2.27101640       3.18334022       3.93351493      -0.00204325       0.00288862      -0.00353634
O        3.75828769       1.08002153       6.50954486       0.00204408      -0.00288838       0.00354016
