9
Lattice="5.611765550224339 -1.409768771976965e-08 3.2399542754552635 1.8705885306516965 5.290823265096988 3.239954228340546 4.723761376229413e-08 -2.430145744611715e-08 6.479908469092586" Properties=species:S:1:pos:R:3:forces:R:3 energy=-41.73141860961914 free_energy=-41.73141860961914 stress="-0.00025102446670643985 -1.1149945855493115e-08 1.6431483729206775e-08 -1.1149945855493115e-08 -0.0002510452759452164 -1.2476164101826726e-08 1.6431483729206775e-08 -1.2476164101826726e-08 -0.00025103671941906214" pbc="T T T"
Y        1.87058881       1.32270653       3.23995433      -0.00000008       0.00000291      -0.00000088
Y        5.61176532       3.96811695       9.71986309       0.00000024      -0.00000240       0.00000106
Hg      -0.00000008       0.00000004      -0.00000041       0.00000174      -0.00000508      -0.00000309
S        1.98139436       1.40105725       6.47990890      -0.00469553      -0.00331843       0.00000127
S        5.50095989       3.88976580       6.47990876       0.00469750       0.00332108       0.00000216
S        4.62106833       1.40105761       4.95589175       0.00234702      -0.00331828      -0.00406754
S        2.86128548       3.88976581       8.00392476      -0.00235042       0.00332105       0.00406903
S        2.86128592       3.88976577       4.95589180      -0.00234830       0.00331953      -0.00406945
S        4.62106835       1.40105714       8.00392480       0.00234812      -0.00332037       0.00406724
