9
Lattice="4.65452973613966 6.666845985374355e-08 2.6872940351276267 1.551509966935483 4.388332906255238 2.6872940489263413 6.522747951336253e-08 6.302269362864214e-08 5.374587957277947" Properties=species:S:1:pos:R:3:forces:R:3 energy=-54.39251708984375 free_energy=-54.39251708984375 stress="-0.00010566077253315598 -9.613609108782839e-08 1.2017350670134874e-08 -9.613609108782839e-08 -0.00010578156798146665 -1.311226416333966e-08 1.2017350670134874e-08 -1.311226416333966e-08 -0.0001057359404512681" pbc="T T T"
Y        1.55150953       1.09708326       2.68729399      -0.00000131       0.00000012      -0.00000131
Y        4.65452981       3.29124967       8.06188198      -0.00000002       0.00000038       0.00000094
Hg       0.00000002      -0.00000002       0.00000006       0.00000425       0.00000373       0.00000576
O        1.66561036       1.17776408       5.37458805      -0.00266057      -0.00188303      -0.00000034
O        4.54042963       3.21056892       5.37458807       0.00265694       0.00187916       0.00000104
O        3.82172496       1.17776460       4.12975493       0.00133291      -0.00188372      -0.00230715
O        2.38431489       3.21056864       6.61942105      -0.00133049       0.00187969       0.00230426
O        2.38431516       3.21056877       4.12975484      -0.00133222       0.00188375      -0.00230819
O        3.82172479       1.17776433       6.61942121       0.00133055      -0.00188020       0.00230426
