9
Lattice="5.9079336534452525 1.1239346681970225e-07 3.4109471108397225 1.9693113315486135 5.570053216793463 3.410947097385309 -5.24143145198031e-08 -5.3540737133708077e-08 6.821894312463669" Properties=species:S:1:pos:R:3:forces:R:3 energy=-38.27738952636719 free_energy=-38.27738952636719 stress="-0.00011866020213346928 -7.70108510295131e-09 2.570031298887443e-09 -7.70108510295131e-09 -0.0001186511799460277 9.918319499035988e-09 2.570031298887443e-09 9.918319499035988e-09 -0.0001186702138511464" pbc="T T T"
Y        1.96931126       1.39251372       3.41094691      -0.00000004       0.00000243      -0.00000215
Y        5.90793402       4.17754019      10.23284004       0.00000149       0.00000139      -0.00000738
Hg      -0.00000004      -0.00000018      -0.00000034      -0.00000061       0.00000091       0.00000081
Se       2.13341661       1.50855363       6.82189447      -0.00046837      -0.00033084       0.00000018
Se       5.74382817       4.06149983       6.82189482       0.00046897       0.00033143       0.00000241
Se       4.84122539       1.50855297       5.25854045       0.00023487      -0.00033578      -0.00040314
Se       3.03601974       4.06149965       8.38524871      -0.00023258       0.00033095       0.00040653
Se       3.03601939       4.06149977       5.25854015      -0.00023700       0.00032970      -0.00040439
Se       4.84122518       1.50855351       8.38524885       0.00023334      -0.00033021       0.00040737
