9
Lattice="5.948023629452358 -1.6794839504946441e-07 3.434093070253169 1.9826743738704233 5.607850498048056 3.434093089196824 -1.1536091896589405e-07 -5.8371318180700625e-08 6.868186340317293" Properties=species:S:1:pos:R:3:forces:R:3 energy=-42.12245178222656 free_energy=-42.12245178222656 stress="-0.00010377907165093347 -1.048571185435776e-08 2.1005410744123765e-08 -1.048571185435776e-08 -0.0001037778056343086 7.618856656677053e-09 2.1005410744123765e-08 7.618856656677053e-09 -0.00010377456055721268" pbc="T T T"
Y        1.98267496       1.40196210       3.43409345       0.00000258      -0.00000251       0.00000180
Y        5.94802354       4.20588758      10.30227861       0.00000049       0.00000049      -0.00000439
In      -0.00000019      -0.00000026      -0.00000026      -0.00000030       0.00000480       0.00000004
Se       2.12666550       1.50377930       6.86818624       0.00122982       0.00086913       0.00000064
Se       5.80403258       4.10407119       6.86818653      -0.00123611      -0.00087038       0.00000225
Se       4.88469067       1.50377935       5.27583932      -0.00061616       0.00087094       0.00106290
Se       3.04600700       4.10407118       8.46053348       0.00061803      -0.00087160      -0.00106803
Se       3.04600647       4.10407127       5.27583943       0.00061618      -0.00087163       0.00106871
Se       4.88469101       1.50377938       8.46053318      -0.00061466       0.00087088      -0.00106403
