9
Lattice="4.627832820558977 1.4862678508204984e-07 2.671880539432619 1.5426109841298143 4.363163069307629 2.671880706026775 -6.9796300568102316e-09 1.9910000162070504e-07 5.343761090954289" Properties=species:S:1:pos:R:3:forces:R:3 energy=-59.583892822265625 free_energy=-59.583892822265625 stress="-0.00011790475400630385 -8.915864491143566e-09 -1.4687705274241125e-08 -8.915864491143566e-09 -0.00011791937868110836 3.7535659913601194e-08 -1.4687705274241125e-08 3.7535659913601194e-08 -0.00011780010390793905" pbc="T T T"
Y        1.54261111       1.09079043       2.67188041       0.00000036      -0.00000067      -0.00000174
Y        4.62783305       3.27237250       8.01564161       0.00000014      -0.00000062      -0.00000056
In      -0.00000022       0.00000002      -0.00000007      -0.00000033      -0.00000238       0.00000134
O        1.68273943       1.18987681       5.34376117      -0.00230020      -0.00162679       0.00000087
O        4.48770418       3.17328688       5.34376122       0.00229859       0.00162774       0.00000152
O        3.78646308       1.18987667       4.12917595       0.00115171      -0.00162774      -0.00199330
O        2.38398079       3.17328663       6.55834665      -0.00114906       0.00162578       0.00199163
O        2.38398053       3.17328666       4.12917599      -0.00114930       0.00162780      -0.00199038
O        3.78646303       1.18987704       6.55834670       0.00114807      -0.00162297       0.00199014
