9
Lattice="6.3989443882158215 1.3511151486379389e-09 3.6944322590783667 2.132981465036497 6.032982572721308 3.694432257304586 4.947423514802343e-09 1.325965522880415e-09 7.38886450958752" Properties=species:S:1:pos:R:3:forces:R:3 energy=-38.44639205932617 free_energy=-38.44639205932617 stress="-0.0002772752777673304 3.372218948527461e-09 -1.320582976305218e-09 3.372218948527461e-09 -0.0002772713196463883 -8.411949359299342e-09 -1.320582976305218e-09 -8.411949359299342e-09 -0.0002772970183286816" pbc="T T T"
Y        2.13298144       1.50824572       3.69443213      -0.00000226      -0.00000078      -0.00000143
Y        6.39894425       4.52473682      11.08329693       0.00000068       0.00000095       0.00000144
In      -0.00000013      -0.00000010      -0.00000017       0.00000204      -0.00000041       0.00000161
Te       2.28673586       1.61696667       7.38886462      -0.00480551      -0.00339766       0.00000081
Te       6.24519015       4.41601612       7.38886443       0.00480309       0.00339700       0.00000010
Te       5.25557649       1.61696643       5.67480370       0.00240277      -0.00339659      -0.00416058
Te       3.27634935       4.41601601       9.10292545      -0.00240223       0.00339614       0.00415999
Te       3.27634961       4.41601621       5.67480362      -0.00240067       0.00339761      -0.00416100
Te       5.25557644       1.61696638       9.10292542       0.00240207      -0.00339621       0.00415906
