9
Lattice="5.629973798451251 -1.1269908131369177e-07 3.2504670832727913 1.8766578967650098 5.307990194660164 3.2504669616800137 1.0331161860406948e-07 -7.586784394225013e-08 6.500933987604609" Properties=species:S:1:pos:R:3:forces:R:3 energy=-46.02833557128906 free_energy=-46.02833557128906 stress="-0.00011586402979446575 -5.726800722527514e-08 6.007694253185036e-08 -5.726800722527514e-08 -0.00011585096945054829 -2.57779433354699e-08 6.007694253185036e-08 -2.57779433354699e-08 -0.00011585154425119981" pbc="T T T"
Y        1.87665767       1.32699740       3.25046721      -0.00000008      -0.00000068       0.00000013
Y        5.62997379       3.98099254       9.75140038      -0.00000000       0.00000117      -0.00000363
In      -0.00000049      -0.00000020       0.00000072       0.00000590       0.00000690      -0.00001655
S        1.99363099       1.40970996       6.50093413       0.00201756       0.00142962      -0.00000215
S        5.51300154       3.89828072       6.50093431      -0.00203115      -0.00143558       0.00000164
S        4.63315857       1.40970945       4.97700212      -0.00101325       0.00143468       0.00175589
S        2.87347370       3.89828005       8.02486565       0.00101128      -0.00142634      -0.00174898
S        2.87347331       3.89828024       4.97700219       0.00101453      -0.00143450       0.00175697
S        4.63315817       1.40970988       8.02486549      -0.00100490       0.00142473      -0.00174367
