9
Lattice="5.702565901965344 -1.0835224980796816e-08 3.2923780445567843 1.9008552905085545 5.376430295230495 3.2923780444372355 -8.402776573035664e-08 -5.9563026886357203e-08 6.5847562346539" Properties=species:S:1:pos:R:3:forces:R:3 energy=-41.881935119628906 free_energy=-41.881935119628906 stress="3.385156787771848e-06 -1.6253173251712383e-09 5.185198492796417e-09 -1.6253173251712383e-09 3.3410644846298965e-06 2.049577929597035e-08 5.185198492796417e-09 2.049577929597035e-08 3.2852110507519683e-06" pbc="T T T"
Y        1.90085474       1.34410687       3.29237796      -0.00000111      -0.00000081       0.00000008
Y        5.70256494       4.03232317       9.87713278      -0.00000317       0.00000061      -0.00000515
Mg       0.00000013       0.00000019      -0.00000000      -0.00000138      -0.00000370       0.00000057
Se       2.01828462       1.42714211       6.58475654      -0.00070906      -0.00050287      -0.00000072
Se       5.58513704       3.94928801       6.58475688       0.00071229       0.00050507       0.00000134
Se       4.69342406       1.42714227       5.04026363       0.00035620      -0.00050247      -0.00061229
Se       2.90999786       3.94928796       8.12924910      -0.00035420       0.00050534       0.00061627
Se       2.90999717       3.94928755       5.04026313      -0.00035568       0.00050237      -0.00061485
Se       4.69342388       1.42714267       8.12924930       0.00035614      -0.00050355       0.00061473
