9
Lattice="6.264897833276531 -8.450138528411353e-08 3.617040431899378 2.088299193656608 5.906602116229855 3.617040439578544 -1.848537819507576e-08 -3.666116754381579e-09 7.234080895816363" Properties=species:S:1:pos:R:3:forces:R:3 energy=-38.341793060302734 free_energy=-38.341793060302734 stress="-0.00025113404262810946 4.783183182865969e-09 1.5908062644953702e-09 4.783183182865969e-09 -0.00025111917057074606 2.7121065393487243e-09 1.5908062644953702e-09 2.7121065393487243e-09 -0.000251125922659412" pbc="T T T"
Y        2.08829920       1.47665001       3.61704094       0.00000027      -0.00000165       0.00000054
Y        6.26489804       4.42995206      10.85112094       0.00000075       0.00000169      -0.00000082
Mg      -0.00000006       0.00000017      -0.00000016      -0.00000011      -0.00000143       0.00000632
Te       2.22227722       1.57138680       7.23408085       0.00514224       0.00363538       0.00000074
Te       6.13091957       4.33521514       7.23408119      -0.00514010      -0.00363328       0.00000089
Te       5.15375890       1.57138725       5.54158910      -0.00256887       0.00363251       0.00445083
Te       3.19943782       4.33521516       8.92657255       0.00257065      -0.00363767      -0.00445396
Te       3.19943788       4.33521457       5.54158905       0.00256789      -0.00363296       0.00444989
Te       5.15375947       1.57138696       8.92657258      -0.00257281       0.00363728      -0.00445430
