9
Lattice="4.4504875953565035 -2.534966860539794e-08 2.5694900575918806 1.4834958535143974 4.195959738106323 2.569490036295506 -2.00352265851001e-08 -4.024963711513544e-08 5.138980149885769" Properties=species:S:1:pos:R:3:forces:R:3 energy=-60.954994201660156 free_energy=-60.954994201660156 stress="-5.267619781079702e-05 8.316598965052435e-09 3.037395401861431e-08 8.316598965052435e-09 -5.268380482448265e-05 2.4514179131074343e-08 3.037395401861431e-08 2.4514179131074343e-08 -5.28470118297264e-05" pbc="T T T"
Y        1.48349599       1.04898989       2.56949024      -0.00000120      -0.00000045      -0.00000056
Y        4.45048727       3.14696981       7.70847007       0.00000101      -0.00000006       0.00000044
Mg       0.00000018      -0.00000022       0.00000025      -0.00000170       0.00000470      -0.00000437
O        1.56905281       1.10948769       5.13898013      -0.00199410      -0.00141002      -0.00000049
O        4.36493074       3.08647200       5.13898003       0.00199282       0.00140633      -0.00000007
O        3.66596120       1.10948773       3.92832930       0.00099623      -0.00140861      -0.00172526
O        2.26802244       3.08647189       6.34963070      -0.00099771       0.00141186       0.00172740
O        2.26802212       3.08647210       3.92832942      -0.00099549       0.00140737      -0.00172314
O        3.66596098       1.10948772       6.34963068       0.00100017      -0.00141123       0.00172615
