9
Lattice="5.389465516894645 -1.3582017446844252e-07 3.111609379143842 1.7964883512453311 5.081236859750535 3.1116094247551844 -1.025332343536067e-08 4.861207714302117e-08 6.223218776046968" Properties=species:S:1:pos:R:3:forces:R:3 energy=-45.93061828613281 free_energy=-45.93061828613281 stress="1.107216394302668e-05 -4.6056818803208444e-08 -7.155747661080625e-10 -4.6056818803208444e-08 1.1073434507125057e-05 -4.6305903111942825e-08 -7.155747661080625e-10 -4.6305903111942825e-08 1.1080866897827946e-05" pbc="T T T"
Y        1.79648837       1.27030899       3.11160915      -0.00000053       0.00000121       0.00000024
Y        5.38946542       3.81092722       9.33482785       0.00000098      -0.00000037       0.00000054
Mg      -0.00000013      -0.00000014       0.00000015       0.00000292       0.00000311      -0.00000040
S        1.88609339       1.33366935       6.22321868      -0.00067201      -0.00047754      -0.00000003
S        5.29986079       3.74756741       6.22321873       0.00066721       0.00046961      -0.00000016
S        4.44641892       1.33366920       4.74501441       0.00033529      -0.00047322      -0.00057949
S        2.73953493       3.74756795       7.70142319      -0.00033453       0.00047407       0.00058086
S        2.73953481       3.74756774       4.74501461      -0.00033521       0.00047663      -0.00058304
S        4.44641893       1.33366931       7.70142362       0.00033595      -0.00047347       0.00058173
