9
Lattice="4.488034601971562 9.247389955801356e-08 2.5911677980826604 1.4960115811661443 4.231359865334388 2.5911678673812957 -4.48332837076217e-08 5.317127770574213e-08 5.182335673818831" Properties=species:S:1:pos:R:3:forces:R:3 energy=-69.04075622558594 free_energy=-69.04075622558594 stress="-0.00013351351663004607 1.1079328743335282e-07 -1.0112554349461789e-07 1.1079328743335282e-07 -0.0001332866377197206 9.654672084025151e-08 -1.0112554349461789e-07 9.654672084025151e-08 -0.00013342732563614845" pbc="T T T"
Y        1.49601168       1.05783976       2.59116799      -0.00000142      -0.00000235       0.00000092
Y        4.48803439       3.17352007       7.77350373       0.00000070       0.00000110      -0.00000049
Mn      -0.00000015      -0.00000002      -0.00000028      -0.00000075       0.00000016       0.00000709
O        1.50917758       1.06714963       5.18233574       0.00059712       0.00042218      -0.00000045
O        4.47486846       3.16421050       5.18233583      -0.00059420      -0.00042099      -0.00000188
O        3.73344584       1.06714989       3.89815395      -0.00029784       0.00042233       0.00051633
O        2.25060046       3.16421047       6.46651737       0.00029635      -0.00042385      -0.00052023
O        2.25060042       3.16421016       3.89815376       0.00029984      -0.00042441       0.00051850
O        3.73344576       1.06714986       6.46651729      -0.00030011       0.00042504      -0.00051990
