9
Lattice="5.732528538317684 6.417047834421255e-09 3.309676961861542 1.9108428700577953 5.404679851520121 3.309676930854614 1.0228182742828704e-07 3.4348632973517843e-08 6.619353746565803" Properties=species:S:1:pos:R:3:forces:R:3 energy=-50.76809310913086 free_energy=-50.76809310913086 stress="-6.10947172390297e-05 -2.2922723275087264e-08 -6.100373539652537e-09 -2.2922723275087264e-08 -6.106517685111612e-05 3.0305918365114426e-12 -6.100373539652537e-09 3.0305918365114426e-12 -6.104193744249642e-05" pbc="T T T"
Y        1.91084341       1.35116987       3.30967754       0.00000086      -0.00000045       0.00000160
Y        5.73252802       4.05351000       9.92903004      -0.00000118       0.00000155      -0.00000209
Mn       0.00000013       0.00000009       0.00000102      -0.00000427       0.00000048      -0.00001308
Se       1.90653211       1.34812154       6.61935373       0.00429174       0.00303599      -0.00000153
Se       5.73683945       4.05655827       6.61935435      -0.00429037      -0.00303367       0.00000015
Se       4.77926222       1.34812190       4.96078207      -0.00214763       0.00303760       0.00371599
Se       2.86410957       4.05655781       8.27792524       0.00214471      -0.00303164      -0.00371206
Se       2.86410870       4.05655840       4.96078190       0.00214803      -0.00303861       0.00372207
Se       4.77926249       1.34812170       8.27792470      -0.00214173       0.00302866      -0.00371113
