9
Lattice="5.383087825929524 3.377789771691648e-08 3.107927061414318 1.7943626920808173 5.075223955571261 3.107926972055119 2.6764754376941387e-09 -1.0754968192205242e-07 6.215854118192777" Properties=species:S:1:pos:R:3:forces:R:3 energy=-55.87127685546875 free_energy=-55.87127685546875 stress="-0.00019206947763450444 7.494548093234243e-09 1.5507152895111176e-08 7.494548093234243e-09 -0.00019205824355594814 5.299408467607236e-09 1.5507152895111176e-08 5.299408467607236e-09 -0.00019202784460503608" pbc="T T T"
Y        1.79436218       1.26880525       3.10792699      -0.00000214      -0.00000081      -0.00000041
Y        5.38308818       3.80641826       9.32378081       0.00000143       0.00000033      -0.00000119
Mn      -0.00000021      -0.00000012      -0.00000083       0.00000290       0.00000182       0.00000862
S        1.78899970       1.26501362       6.21585426       0.00134844       0.00095350       0.00000062
S        5.38845096       3.81021041       6.21585437      -0.00135279      -0.00095665       0.00000078
S        4.48858817       1.26501366       4.65724619      -0.00067350       0.00095376       0.00116831
S        2.68886243       3.81021057       7.77446240       0.00067747      -0.00095782      -0.00117248
S        2.68886242       3.81021025       4.65724603       0.00067466      -0.00095212       0.00116789
S        4.48858830       1.26501354       7.77446221      -0.00067639       0.00095803      -0.00117272
