9
Lattice="4.646209103708279 6.186895632239145e-09 2.6824899669753304 1.5487363840662436 4.380487649360406 2.682489949082513 -1.3553703641208568e-08 -3.149804249945345e-08 5.3649799574263355" Properties=species:S:1:pos:R:3:forces:R:3 energy=-74.54480743408203 free_energy=-74.54480743408203 stress="3.030235893675126e-05 -2.7975467276064592e-08 -3.8122927037420595e-08 -2.7975467276064592e-08 3.0215480364859104e-05 -6.994424239792352e-08 -3.8122927037420595e-08 -6.994424239792352e-08 3.0460065318038687e-05" pbc="T T T"
Y        1.54873599       1.09512184       2.68248952      -0.00000017      -0.00000538      -0.00000329
Y        4.64620936       3.28536545       8.04746985      -0.00000069       0.00000064      -0.00000310
Nb       0.00000015      -0.00000028       0.00000008      -0.00000195       0.00000424      -0.00000430
O        1.59586493       1.12844709       5.36498022      -0.00561178      -0.00396264       0.00000008
O        4.59908055       3.25204086       5.36498005       0.00560892       0.00396192      -0.00000333
O        3.84827696       1.12844655       4.06454957       0.00280517      -0.00396049      -0.00485575
O        2.34666909       3.25204073       6.66541024      -0.00280851       0.00396872       0.00486314
O        2.34666867       3.25204132       4.06454979      -0.00280154       0.00396490      -0.00485694
O        3.84827627       1.12844701       6.66541020       0.00281149      -0.00397235       0.00486338
