9
Lattice="6.334079577570885 -7.003829411609422e-08 3.656982611362712 2.1113597364186893 5.971827614756233 3.6569827096373375 -1.0436022624548532e-07 4.656753116359351e-08 7.313965403482603" Properties=species:S:1:pos:R:3:forces:R:3 energy=-47.27276611328125 free_energy=-47.27276611328125 stress="8.176004484994337e-06 -3.5968433564903535e-08 -3.4358382805521615e-08 -3.5968433564903535e-08 8.197023817047011e-06 4.7732321206694905e-08 -3.4358382805521615e-08 4.7732321206694905e-08 8.217112736019772e-06" pbc="T T T"
Y        2.11135983       1.49295693       3.65698269       0.00000079      -0.00000042      -0.00000038
Y        6.33407945       4.47887073      10.97094822      -0.00000011       0.00000058       0.00000017
Nb       0.00000008       0.00000020      -0.00000008       0.00000107      -0.00000095      -0.00000157
Te       2.21430822       1.56575258       7.31396541      -0.00071823      -0.00050988      -0.00000145
Te       6.23113096       4.40607518       7.31396531       0.00071844       0.00050803       0.00000015
Te       5.22692531       1.56575271       5.57463022       0.00036076      -0.00051162      -0.00062457
Te       3.21851404       4.40607466       9.05330026      -0.00036269       0.00051405       0.00062971
Te       3.21851397       4.40607485       5.57463039      -0.00035921       0.00050927      -0.00062437
Te       5.22692499       1.56575254       9.05330045       0.00035918      -0.00050896       0.00062235
