9
Lattice="5.590229436828591 8.750847774576132e-08 3.227520504380722 1.8634098788932678 5.270518977637674 3.227520531897266 1.2888713149634136e-08 4.281450371628186e-08 6.455040986437502" Properties=species:S:1:pos:R:3:forces:R:3 energy=-57.62190246582031 free_energy=-57.62190246582031 stress="-5.754696758231148e-05 5.485928156190312e-08 -2.327804171642356e-09 5.485928156190312e-08 -5.75806298002135e-05 -1.4765951128481447e-08 -2.327804171642356e-09 -1.4765951128481447e-08 -5.760338899563067e-05" pbc="T T T"
Y        1.86341003       1.31762951       3.22752058       0.00000037      -0.00000013      -0.00000017
Y        5.59022952       3.95288944       9.68256107      -0.00000078       0.00000133      -0.00000277
Nb      -0.00000019      -0.00000007      -0.00000033       0.00000240       0.00000342       0.00000857
S        1.93222565       1.36628985       6.45504101      -0.00032552      -0.00022966       0.00000099
S        5.52141381       3.90422941       6.45504130       0.00032054       0.00022740       0.00000196
S        4.62411664       1.36628977       4.90087684       0.00016332      -0.00023016      -0.00027968
S        2.82952243       3.90422941       8.00920540      -0.00015792       0.00022337       0.00027438
S        2.82952250       3.90422938       4.90087678      -0.00016155       0.00022971      -0.00027941
S        4.62411693       1.36628975       8.00920549       0.00015909      -0.00022534       0.00027642
