9
Lattice="5.88318929590965 -2.1271640012795222e-09 3.3966609133970214 1.9610630598825813 5.546724072814939 3.396660977047174 -3.975514266532361e-08 4.984414097848541e-08 6.793321895651899" Properties=species:S:1:pos:R:3:forces:R:3 energy=-52.147674560546875 free_energy=-52.147674560546875 stress="-0.00020605252939276397 -4.92669300911075e-08 1.0293915053694036e-08 -4.92669300911075e-08 -0.00020602322183549404 -8.070137447191428e-09 1.0293915053694036e-08 -8.070137447191428e-09 -0.00020599896379280835" pbc="T T T"
Y        1.96106313       1.38668090       3.39666080      -0.00000006      -0.00000025      -0.00000051
Y        5.88318973       4.16004204      10.18998297       0.00000163      -0.00000586       0.00000139
Nb      -0.00000007      -0.00000013      -0.00000018      -0.00000061       0.00000171      -0.00000253
Se       2.02881651       1.43459072       6.79332203      -0.00513243      -0.00362667       0.00000012
Se       5.81543551       4.11213402       6.79332170       0.00512893       0.00362872      -0.00000163
Se       4.86878085       1.43459028       5.15366804       0.00256616      -0.00362741      -0.00444561
Se       2.97547119       4.11213409       8.43297601      -0.00256680       0.00363135       0.00444465
Se       2.97547143       4.11213408       5.15366769      -0.00256532       0.00362887      -0.00444431
Se       4.86878097       1.43459053       8.43297605       0.00256848      -0.00363027       0.00444864
