9
Lattice="4.456742607950982 -8.127745867674399e-08 2.5731013906028557 1.4855808666178503 4.201856677473281 2.573101262552383 6.611004081991811e-08 -1.1008231170414935e-07 5.146202666699773" Properties=species:S:1:pos:R:3:forces:R:3 energy=-61.462215423583984 free_energy=-61.462215423583984 stress="-2.131825385731645e-05 -5.982251138902939e-08 2.5506059486701815e-08 -5.982251138902939e-08 -2.1298659703461453e-05 2.995187031729074e-08 2.5506059486701815e-08 2.995187031729074e-08 -2.1180005205678754e-05" pbc="T T T"
Y        1.48558089       1.05046407       2.57310148       0.00000066      -0.00000110       0.00000074
Y        4.45674264       3.15139226       7.71930387      -0.00000010      -0.00000054       0.00000127
Ni       0.00000057      -0.00000030       0.00000112      -0.00001411       0.00000636      -0.00003071
O        1.48809905       1.05224473       5.14620282       0.00040842       0.00028918      -0.00000175
O        4.45422396       3.14961166       5.14620278      -0.00040236      -0.00028554       0.00000004
O        3.71269313       1.05224485       3.86183319      -0.00020379       0.00028969       0.00035426
O        2.22963070       3.14961131       6.43057176       0.00020080      -0.00028077      -0.00034319
O        2.22963038       3.14961198       3.86183271       0.00020592      -0.00029601       0.00035871
O        3.71269279       1.05224543       6.43057157      -0.00019547       0.00027878      -0.00033943
