9
Lattice="5.322953128394452 -9.146516983175423e-08 3.073208405513467 1.7743176546569204 5.018528036056548 3.0732083510814983 2.3963335482854105e-08 -4.972057077362028e-08 6.146416769521225" Properties=species:S:1:pos:R:3:forces:R:3 energy=-50.86339569091797 free_energy=-50.86339569091797 stress="-0.00017655878036748618 -2.7170010241661657e-08 1.2413729599813905e-08 -2.7170010241661657e-08 -0.00017650773224886507 -1.5682608989209257e-08 1.2413729599813905e-08 -1.5682608989209257e-08 -0.00017650659719947726" pbc="T T T"
Y        1.77431770       1.25463153       3.07320820       0.00000053       0.00000092       0.00000031
Y        5.32295304       3.76389597       9.21962520      -0.00000010      -0.00000050       0.00000139
Ni       0.00000009      -0.00000006      -0.00000012      -0.00000269       0.00000442      -0.00000004
S        1.79888631       1.27200487       6.14641674       0.00370586       0.00261980       0.00000070
S        5.29838453       3.74652314       6.14641666      -0.00370616      -0.00261915      -0.00000072
S        4.42351010       1.27200480       4.63108984      -0.00185186       0.00261784       0.00320590
S        2.67376073       3.74652315       7.66174390       0.00185418      -0.00262260      -0.00321102
S        2.67376078       3.74652316       4.63108978       0.00185287      -0.00261894       0.00320971
S        4.42350997       1.27200494       7.66174375      -0.00185251       0.00261807      -0.00320601
