9
Lattice="5.667710633775943 1.4110941921837985e-07 3.2722544686455377 1.8892370672600358 5.3435687067598305 3.272254371138955 -2.3085981135714732e-08 -1.3574498040213504e-07 6.544508977277161" Properties=species:S:1:pos:R:3:forces:R:3 energy=-46.574249267578125 free_energy=-46.574249267578125 stress="0.000354927935404703 4.774113104843991e-09 2.090634998452856e-09 4.774113104843991e-09 0.00035492496681399643 -1.0286609786192003e-08 2.090634998452856e-09 -1.0286609786192003e-08 0.00035487095010466874" pbc="T T T"
Y        1.88923830       1.33589300       3.27225517       0.00000366       0.00000163       0.00000304
Y        5.66770962       4.00767580       9.81676248      -0.00000267      -0.00000149      -0.00000195
Ni      -0.00000026      -0.00000006      -0.00000009       0.00000137      -0.00000044      -0.00000090
Se       1.92887130       1.36391751       6.54450878      -0.00078416      -0.00055522       0.00000017
Se       5.62807625       3.97965082       6.54450936       0.00078622       0.00055593       0.00000028
Se       4.70327495       1.36391783       4.94270583       0.00039032      -0.00055343      -0.00068036
Se       2.85367266       3.97965101       8.14631208      -0.00039431       0.00055531       0.00068012
Se       2.85367249       3.97965056       4.94270585      -0.00039314       0.00055265      -0.00068122
Se       4.70327540       1.36391827       8.14631181       0.00039265      -0.00055552       0.00068107
