9
Lattice="6.115283243588071 -6.542465512813508e-10 3.5306604661191305 2.0384277638836545 5.765544195480854 3.5306604373016093 -3.2369596231350777e-10 -3.5523011258583495e-08 7.06132093279889" Properties=species:S:1:pos:R:3:forces:R:3 energy=-43.075584411621094 free_energy=-43.075584411621094 stress="-1.0746418411144987e-05 1.7840566357563148e-08 3.888514399363885e-09 1.7840566357563148e-08 -1.0751640729722567e-05 5.194217972404047e-11 3.888514399363885e-09 5.194217972404047e-11 -1.0769304026325699e-05" pbc="T T T"
Y        2.03842789       1.44138616       3.53066029       0.00000001       0.00000065      -0.00000006
Y        6.11528311       4.32415782      10.59198181      -0.00000003      -0.00000064       0.00000072
Ni       0.00000005      -0.00000004       0.00000015      -0.00000168      -0.00000167      -0.00000053
Te       2.07631714       1.46817800       7.06132094       0.00117204       0.00082874       0.00000005
Te       6.07739384       4.29736627       7.06132084      -0.00117101      -0.00082815      -0.00000030
Te       5.07712483       1.46817797       5.32880375      -0.00058667       0.00083013       0.00101587
Te       3.07658622       4.29736626       8.79383789       0.00058626      -0.00082885      -0.00101541
Te       3.07658637       4.29736632       5.32880372       0.00058711      -0.00082909       0.00101469
Te       5.07712458       1.46817786       8.79383795      -0.00058606       0.00082880      -0.00101517
