9
Lattice="5.498609925797854 2.6271391455334985e-08 3.174623966108421 1.832869996401442 5.184139155265091 3.174623972401644 -1.8326163767483058e-08 -5.250931077143902e-09 6.349247963958697" Properties=species:S:1:pos:R:3:forces:R:3 energy=-49.52992630004883 free_energy=-49.52992630004883 stress="-0.00024252072034869343 -4.273896792028609e-09 -1.8964739112448115e-08 -4.273896792028609e-09 -0.00024256680626422167 -6.3488196921923645e-09 -1.8964739112448115e-08 -6.3488196921923645e-09 -0.00024254713207483292" pbc="T T T"
Y        1.83287004       1.29603489       3.17462384      -0.00000037       0.00000111      -0.00000067
Y        5.49861004       3.88810460       9.52387126       0.00000032       0.00000032      -0.00000277
Pd      -0.00000029      -0.00000003      -0.00000034       0.00000363      -0.00000209       0.00000911
S        1.89621657       1.34082773       6.34924800      -0.00618607      -0.00437492       0.00000098
S        5.43526333       3.84331145       6.34924832       0.00618583       0.00437403       0.00000140
S        4.55050160       1.34082744       4.81679577       0.00309414      -0.00437582      -0.00535625
S        2.78097826       3.84331171       7.88170039      -0.00309297       0.00437176       0.00535619
S        2.78097835       3.84331135       4.81679592      -0.00309482       0.00437754      -0.00536108
S        4.55050162       1.34082748       7.88170042       0.00309014      -0.00437212       0.00535393
