9
Lattice="5.818365654371956 -3.4536055071851264e-08 3.35923499644474 1.9394551830568927 5.48560771021178 3.3592350007855925 2.3411253914097097e-08 2.187067348507021e-08 6.718469952339981" Properties=species:S:1:pos:R:3:forces:R:3 energy=-45.91984939575195 free_energy=-45.91984939575195 stress="-0.00018484304018784314 -2.1356648005621537e-08 -3.236875301126929e-08 -2.1356648005621537e-08 -0.00018487469060346484 -9.355407115663184e-09 -3.236875301126929e-08 -9.355407115663184e-09 -0.0001848372776294127" pbc="T T T"
Y        1.93945562       1.37140183       3.35923514       0.00000088      -0.00000080       0.00000095
Y        5.81836562       4.11420602      10.07770491       0.00000048       0.00000142      -0.00000232
Pd      -0.00000005      -0.00000016      -0.00000017       0.00000058       0.00000171      -0.00000357
Se       2.01267401       1.42317530       6.71847004      -0.00292736      -0.00207046      -0.00000064
Se       5.74514696       4.06243245       6.71846999       0.00292587       0.00206962       0.00000101
Se       4.81202848       1.42317537       5.10226185       0.00146317      -0.00207061      -0.00253630
Se       2.94579228       4.06243236       8.33467809      -0.00146395       0.00207174       0.00253773
Se       2.94579196       4.06243229       5.10226191      -0.00146298       0.00206852      -0.00253493
Se       4.81202860       1.42317533       8.33467807       0.00146346      -0.00207105       0.00253800
