9
Lattice="4.564402541836901 -1.2215106123843925e-07 2.6352589685823813 1.521467427270227 4.303359815500655 2.6352589192366973 -4.180638515413868e-08 -8.999744892836028e-08 5.270518009575528" Properties=species:S:1:pos:R:3:forces:R:3 energy=-63.27837371826172 free_energy=-63.27837371826172 stress="3.338326860102825e-05 -6.57579093399363e-08 6.307681132966536e-08 -6.57579093399363e-08 3.3209085813723505e-05 -5.509238931722393e-08 6.307681132966536e-08 -5.509238931722393e-08 3.3285654353676364e-05" pbc="T T T"
Y        1.52146744       1.07583992       2.63525883       0.00000206      -0.00000135      -0.00000041
Y        4.56440246       3.22751947       7.90577671      -0.00000025      -0.00000112      -0.00000047
Pd       0.00000011      -0.00000017      -0.00000012      -0.00000065       0.00000618       0.00000536
O        1.59660118       1.12896739       5.27051812       0.00307718       0.00217780       0.00000018
O        4.48926876       3.17439240       5.27051808      -0.00308082      -0.00217755       0.00000076
O        3.76610180       1.12896736       4.01795617      -0.00153714       0.00217338       0.00266290
O        2.31976801       3.17439239       6.52307985       0.00154038      -0.00217780      -0.00266758
O        2.31976818       3.17439215       4.01795610       0.00153622      -0.00217462       0.00266358
O        3.76610179       1.12896747       6.52307974      -0.00153631       0.00217508      -0.00266320
