9
Lattice="5.511263287170576 -9.009240694617248e-09 3.1819293199632592 1.837087720836686 5.196069176464799 3.1819293772239985 -7.958122051785407e-08 1.3857382227800747e-08 6.363858777765235" Properties=species:S:1:pos:R:3:forces:R:3 energy=-51.46425247192383 free_energy=-51.46425247192383 stress="-0.00025868864031508565 3.2557913698383345e-08 -1.8360728049060526e-08 3.2557913698383345e-08 -0.00025865843053907156 2.7318723283542568e-08 -1.8360728049060526e-08 2.7318723283542568e-08 -0.00025870956596918404" pbc="T T T"
Y        1.83708834       1.29901712       3.18192907       0.00000174      -0.00000053      -0.00000056
Y        5.51126302       3.89705176       9.54578762      -0.00000152      -0.00000037      -0.00000044
Pt      -0.00000006       0.00000006       0.00000058      -0.00000097      -0.00000139      -0.00000551
S        1.88613915       1.33370207       6.36385872      -0.00425917      -0.00301170       0.00000019
S        5.46221157       3.86236723       6.36385888       0.00426114       0.00301284      -0.00000100
S        4.56819356       1.33370172       4.81537376       0.00212848      -0.00301045      -0.00368619
S        2.78015751       3.86236722       7.91234355      -0.00212976       0.00301307       0.00369024
S        2.78015745       3.86236735       4.81537393      -0.00212783       0.00301033      -0.00368661
S        4.56819322       1.33370210       7.91234377       0.00212795      -0.00301182       0.00368941
