9
Lattice="5.7906464168188805 -2.0236139786312012e-08 3.3432313223177026 1.9302154509977332 5.459473963109893 3.3432313261220292 3.706634225663804e-08 3.08691338352727e-08 6.686462580434647" Properties=species:S:1:pos:R:3:forces:R:3 energy=-47.52490997314453 free_energy=-47.52490997314453 stress="-0.0002885280118789524 7.890632147677934e-09 1.615758904449649e-08 7.890632147677934e-09 -0.0002885182329919189 2.704048540635995e-08 1.615758904449649e-08 2.704048540635995e-08 -0.0002885493740905076" pbc="T T T"
Y        1.93021558       1.36486843       3.34323097      -0.00000031      -0.00000023       0.00000065
Y        5.79064695       4.09460555      10.02969395       0.00000243       0.00000011      -0.00000164
Pt      -0.00000020       0.00000003       0.00000036       0.00000288      -0.00000072      -0.00000336
Se       1.98604674       1.40434729       6.68646251      -0.00341329      -0.00241315       0.00000064
Se       5.73481506       4.05512684       6.68646281       0.00341111       0.00241184      -0.00000042
Se       4.79762278       1.40434723       5.06319841       0.00170512      -0.00241134      -0.00295341
Se       2.92323893       4.05512670       8.30972670      -0.00170705       0.00241295       0.00295597
Se       2.92323882       4.05512674       5.06319843      -0.00170556       0.00241163      -0.00295272
Se       4.79762298       1.40434709       8.30972674       0.00170463      -0.00241107       0.00295419
