9
Lattice="4.599830916842051 -1.2056621238631636e-08 2.655713628223488 1.5332769990271762 4.336762090444005 2.6557135622088377 4.8255220376671e-08 -4.6729513724475944e-08 5.311427172866432" Properties=species:S:1:pos:R:3:forces:R:3 energy=-64.96214294433594 free_energy=-64.96214294433594 stress="-6.407794717233628e-05 1.048816855586665e-08 -5.4052812004101725e-08 1.048816855586665e-08 -6.401754217222333e-05 8.903811021809815e-08 -5.4052812004101725e-08 8.903811021809815e-08 -6.403541920008138e-05" pbc="T T T"
Y        1.53327669       1.08419020       2.65571339       0.00000160       0.00000025      -0.00000120
Y        4.59983104       3.25257167       7.96714074       0.00000020      -0.00000013      -0.00000094
Pt       0.00000006       0.00000006       0.00000016      -0.00000165      -0.00000054      -0.00000407
O        1.59457160       1.12753232       5.31142704      -0.00053535      -0.00037662       0.00000011
O        4.53853664       3.20922977       5.31142745       0.00053340       0.00037830      -0.00000007
O        3.80254503       1.12753247       4.03665316       0.00026892      -0.00037973      -0.00046340
O        2.33056289       3.20922932       6.58620116      -0.00026991       0.00038093       0.00046651
O        2.33056273       3.20922987       4.03665319      -0.00026478       0.00037728      -0.00045884
O        3.80254513       1.12753240       6.58620110       0.00026736      -0.00037972       0.00046165
