9
Lattice="4.561934188753029 -2.899823240429226e-08 2.633834050650605 1.5206446729707772 4.301033174556576 2.633834101354276 -4.722329847365324e-08 2.8707141897719477e-08 5.267668183094367" Properties=species:S:1:pos:R:3:forces:R:3 energy=-68.26461029052734 free_energy=-68.26461029052734 stress="-3.48977955582086e-05 -2.4977140355986194e-07 5.67888385205606e-08 -2.4977140355986194e-07 -3.46548440575134e-05 -5.1686814828144634e-08 5.67888385205606e-08 -5.1686814828144634e-08 -3.434527025092393e-05" pbc="T T T"
Y        1.52064494       1.07525830       2.63383431      -0.00000241       0.00000065      -0.00000052
Y        4.56193413       3.22577473       7.90150234       0.00000229      -0.00000061      -0.00000020
Sc      -0.00000019      -0.00000008       0.00000001       0.00000611       0.00000230      -0.00000070
O        1.61260610       1.14028498       5.26766819      -0.00064522      -0.00045693      -0.00000190
O        4.46997298       3.16074832       5.26766802       0.00064021       0.00045246       0.00000175
O        3.75563086       1.14028513       4.03039216       0.00032356      -0.00046092      -0.00056452
O        2.32694781       3.16074823       6.50494380      -0.00032470       0.00046358       0.00056756
O        2.32694790       3.16074804       4.03039251      -0.00032729       0.00046304      -0.00056916
O        3.75563076       1.14028507       6.50494400       0.00032765      -0.00046346       0.00056779
