9
Lattice="5.5098678874846865 -2.1268157469526886e-08 3.1811238547893623 1.8366225980521413 5.194753279975904 3.181123873941642 4.0513342841597295e-08 5.210396058577255e-08 6.362247639407526" Properties=species:S:1:pos:R:3:forces:R:3 energy=-53.56243133544922 free_energy=-53.56243133544922 stress="-1.6213929256991833e-06 -1.3241119312112914e-08 -1.895871237778124e-09 -1.3241119312112914e-08 -1.5845816960791126e-06 -2.9401611811863404e-08 -1.895871237778124e-09 -2.9401611811863404e-08 -1.6045324855440413e-06" pbc="T T T"
Y        1.83662310       1.29868768       3.18112380       0.00000147      -0.00000105      -0.00000011
Y        5.50986754       3.89606446       9.54337167      -0.00000034      -0.00000001      -0.00000022
Sc      -0.00000003       0.00000007       0.00000015       0.00000181       0.00000764      -0.00000170
S        1.93815936       1.37048523       6.36224807      -0.00048123      -0.00033937       0.00000081
S        5.40833165       3.82426799       6.36224799       0.00047515       0.00033533      -0.00000003
S        4.54078809       1.37048579       4.85961866       0.00023924      -0.00033648      -0.00041592
S        2.80570216       3.82426830       7.86487633      -0.00023912       0.00033820       0.00041176
S        2.80570210       3.82426802       4.85961860      -0.00023840       0.00033620      -0.00041191
S        4.54078815       1.37048565       7.86487626       0.00024176      -0.00034041       0.00041746
