9
Lattice="5.816654832090829 -1.4134040342509535e-08 3.3582473183801365 1.9388849777017922 5.483994686350333 3.358247236978599 9.11084449607298e-08 -3.527267692899659e-08 6.716494478955788" Properties=species:S:1:pos:R:3:forces:R:3 energy=-48.96529006958008 free_energy=-48.96529006958008 stress="1.3297825717017986e-05 -3.4300892792771265e-08 1.0505575076535933e-08 -3.4300892792771265e-08 1.3275019227876328e-05 4.73925609867365e-09 1.0505575076535933e-08 4.73925609867365e-09 1.333881573373219e-05" pbc="T T T"
Y        1.93888470       1.37099846       3.35824769      -0.00000177      -0.00000077       0.00000219
Y        5.81665499       4.11299720      10.07474163       0.00000087       0.00000483      -0.00000189
Sc      -0.00000003      -0.00000003      -0.00000021       0.00000170       0.00000013       0.00000606
Se       2.04723454       1.44761296       6.71649471      -0.00083488      -0.00059202      -0.00000099
Se       5.70830562       4.03638142       6.71649465       0.00083438       0.00059040       0.00000145
Se       4.79303725       1.44761314       5.13120447       0.00041801      -0.00059422      -0.00072528
Se       2.96250230       4.03638148       8.30178445      -0.00041715       0.00059127       0.00072140
Se       2.96250244       4.03638091       5.13120405      -0.00041940       0.00059211      -0.00072590
Se       4.79303775       1.44761310       8.30178468       0.00041859      -0.00059140       0.00072299
