9
Lattice="4.545639705395332 9.912468634365009e-08 2.6244263088983013 1.5152133187067158 4.285670411119703 2.624426326012206 5.9582962030694845e-08 6.309166899623013e-08 5.248852514595881" Properties=species:S:1:pos:R:3:forces:R:3 energy=-64.98248291015625 free_energy=-64.98248291015625 stress="-0.00011068971798522398 8.848272869954599e-08 -5.075195375070507e-09 8.848272869954599e-08 -0.00011072580673499033 -2.9756761499299955e-09 -5.075195375070507e-09 -2.9756761499299955e-09 -0.0001106743366108276" pbc="T T T"
Y        1.51521322       1.07141782       2.62442607       0.00000034      -0.00000093       0.00000066
Y        4.54563999       3.21425265       7.87327842       0.00000049       0.00000038      -0.00000034
Se      -0.00000002       0.00000017       0.00000011       0.00000129      -0.00000671      -0.00000493
O        1.47428196       1.04247493       5.24885279      -0.00100482      -0.00071211      -0.00000159
O        4.58657091       3.24319554       5.24885255       0.00101021       0.00071581       0.00000173
O        3.80849892       1.04247497       3.90119175       0.00049942      -0.00071049      -0.00087015
O        2.25235425       3.24319564       6.59651349      -0.00050407       0.00071345       0.00087562
O        2.25235433       3.24319582       3.90119203      -0.00050411       0.00071107      -0.00087197
O        3.80849889       1.04247484       6.59651341       0.00050148      -0.00071013       0.00087135
