9
Lattice="5.495967837201076 -1.1263942646656772e-08 3.173098428506694 1.8319892592111477 5.181648045152719 3.17309844450411 -2.8620079225783898e-09 1.7568958209357633e-08 6.346196861970548" Properties=species:S:1:pos:R:3:forces:R:3 energy=-46.381412506103516 free_energy=-46.381412506103516 stress="-0.00022949461708776653 3.611802412706311e-08 -3.5427691891243285e-09 3.611802412706311e-08 -0.00022948463447391987 -3.0286122498779378e-09 -3.5427691891243285e-09 -3.0286122498779378e-09 -0.0002295734448125586" pbc="T T T"
Y        1.83198705       1.29541177       3.17309848      -0.00001093       0.00000128       0.00000073
Y        5.49596918       3.88623508       9.51929366       0.00000821      -0.00000640      -0.00000621
Se       0.00000023       0.00000064       0.00000026      -0.00000016      -0.00000727       0.00000087
S        1.88601181       1.33361229       6.34619689      -0.00271749      -0.00191796       0.00000061
S        5.44194533       3.84803592       6.34619757       0.00272095       0.00192049       0.00000296
S        4.55296222       1.33361191       4.80643270       0.00136121      -0.00191867      -0.00234911
S        2.77499507       3.84803604       7.88596117      -0.00136100       0.00192198       0.00235143
S        2.77499447       3.84803619       4.80643313      -0.00136268       0.00192377      -0.00234970
S        4.55296294       1.33361230       7.88596102       0.00136195      -0.00191733       0.00234845
