9
Lattice="5.660353828051662 -1.7699559412710707e-08 3.2680066846453903 1.886784565345188 5.336632512156259 3.2680067319616697 -8.487437005519743e-08 -2.0648696377462833e-09 6.536013516297488" Properties=species:S:1:pos:R:3:forces:R:3 energy=-48.21419143676758 free_energy=-48.21419143676758 stress="-0.0001332194806309417 3.067400555778477e-08 1.7809171026783588e-08 3.067400555778477e-08 -0.00013324010069482028 4.031577294227873e-09 1.7809171026783588e-08 4.031577294227873e-09 -0.00013330329966265708" pbc="T T T"
Y        1.88678395       1.33415789       3.26800660      -0.00000204       0.00000080      -0.00000162
Y        5.66035387       4.00247400       9.80402069      -0.00000048      -0.00000133       0.00000262
Sn       0.00000015      -0.00000004       0.00000021      -0.00000462       0.00000232      -0.00000405
S        1.98024074       1.40024164       6.53601403      -0.00229362      -0.00162113       0.00000186
S        5.56689726       3.93639113       6.53601324       0.00229526       0.00162521      -0.00000354
S        4.67023370       1.40024153       4.98294532       0.00114685      -0.00161955      -0.00198641
S        2.87690496       3.93639099       8.08908138      -0.00114688       0.00162086       0.00198495
S        2.87690473       3.93639088       4.98294490      -0.00114504       0.00161740      -0.00198320
S        4.67023385       1.40024198       8.08908129       0.00115064      -0.00162461       0.00198919
