9
Lattice="4.631199738708919 -4.616867234634567e-08 2.6738243133143094 1.5437332161706268 4.366336798859975 2.673824289996455 -2.604641520962358e-08 -4.697599640559814e-08 5.347648671742324" Properties=species:S:1:pos:R:3:forces:R:3 energy=-63.35407638549805 free_energy=-63.35407638549805 stress="-4.197099042357877e-05 -2.000933285728479e-08 1.0336188793758083e-08 -2.000933285728479e-08 -4.177034497843124e-05 6.560883747397384e-08 1.0336188793758083e-08 6.560883747397384e-08 -4.166431972407736e-05" pbc="T T T"
Y        1.54373345       1.09158451       2.67382483      -0.00000217       0.00000163       0.00000066
Y        4.63119910       3.27475278       8.02147271      -0.00000015       0.00000131       0.00000001
Sn      -0.00000013       0.00000021      -0.00000000       0.00000331      -0.00000636       0.00000787
O        1.64050594       1.16001257       5.34764822      -0.00174308      -0.00123185      -0.00000018
O        4.53442707       3.20632374       5.34764899       0.00174415       0.00123221       0.00000214
O        3.81094633       1.16001348       4.09454372       0.00087494      -0.00123531      -0.00151563
O        2.36398641       3.20632361       6.60075338      -0.00087136       0.00123262       0.00151360
O        2.36398661       3.20632385       4.09454429      -0.00087619       0.00123930      -0.00151610
O        3.81094688       1.16001210       6.60075288       0.00087011      -0.00123364       0.00150621
