9
Lattice="5.974614900437201 6.811794967645744e-08 3.4494455478173216 1.9915383226452694 5.632920833333485 3.449445620083106 6.152553709257758e-08 1.32012295075502e-07 6.898890989069284" Properties=species:S:1:pos:R:3:forces:R:3 energy=-43.739383697509766 free_energy=-43.739383697509766 stress="-4.231799903209321e-05 6.5733858356509245e-09 -1.2466312426795412e-08 6.5733858356509245e-09 -4.2285770177841187e-05 -2.7831548177204013e-09 -1.2466312426795412e-08 -2.7831548177204013e-09 -4.230509148328565e-05" pbc="T T T"
Y        1.99153782       1.40822964       3.44944513      -0.00000300      -0.00000426      -0.00000047
Y        5.97461448       4.22469096      10.34833673      -0.00000134       0.00000064       0.00000273
Sn      -0.00000004      -0.00000002       0.00000020       0.00000028      -0.00000031       0.00000101
Se       2.10851885       1.49094805       6.89889093       0.00007638       0.00005379       0.00000126
Se       5.85763467       4.14197320       6.89889130      -0.00007638      -0.00005403      -0.00000020
Se       4.92035583       1.49094804       5.27547624      -0.00003640       0.00005460       0.00006567
Se       3.04579791       4.14197326       8.52230593       0.00003839      -0.00005227      -0.00006710
Se       3.04579797       4.14197317       5.27547627       0.00004121      -0.00005269       0.00006577
Se       4.92035563       1.49094781       8.52230594      -0.00003902       0.00005449      -0.00006871
