9
Lattice="6.413829391714108 -4.843780112753535e-08 3.7030261796302537 2.1379430852563575 6.047016294943082 3.703026179019495 -6.954459471058541e-10 -1.2397311926914221e-09 7.406052360465037" Properties=species:S:1:pos:R:3:forces:R:3 energy=-39.27438735961914 free_energy=-39.27438735961914 stress="-0.0002274849684908986 -1.1362965679495574e-08 7.504173282768534e-09 -1.1362965679495574e-08 -0.00022750497737433761 -6.294984533639081e-09 7.504173282768534e-09 -6.294984533639081e-09 -0.00022746686590835452" pbc="T T T"
Y        2.13794353       1.51175413       3.70302619       0.00000146      -0.00000017       0.00000045
Y        6.41382919       4.53526220      11.10907857      -0.00000003       0.00000025       0.00000044
Sn      -0.00000019       0.00000004       0.00000042       0.00000262       0.00000070      -0.00000744
Te       2.28047883       1.61254219       7.40605223      -0.00228620      -0.00161669      -0.00000024
Te       6.27129382       4.43447423       7.40605224       0.00228277       0.00161478       0.00000011
Te       5.27358978       1.61254200       5.67797885       0.00114240      -0.00161612      -0.00197864
Te       3.27818262       4.43447403       9.13412580      -0.00114398       0.00161898       0.00198209
Te       3.27818256       4.43447414       5.67797892      -0.00114192       0.00161669      -0.00197852
Te       5.27358973       1.61254204       9.13412570       0.00114283      -0.00161846       0.00198177
