9
Lattice="4.446846997133368 2.4300901965063778e-08 2.567388197760202 1.4822823218303927 4.192527401799104 2.567388255712036 -8.886786139800247e-09 6.46923054040159e-08 5.134776410912779" Properties=species:S:1:pos:R:3:forces:R:3 energy=-67.9643783569336 free_energy=-67.9643783569336 stress="-0.0004964805557392538 -3.099064826983522e-08 -8.680085983314711e-08 -3.099064826983522e-08 -0.0004966568085364997 3.388562674899731e-08 -8.680085983314711e-08 3.388562674899731e-08 -0.0004965502885170281" pbc="T T T"
Y        1.48228242       1.04813184       2.56738830       0.00000008       0.00000111      -0.00000071
Y        4.44684714       3.14439575       7.70216455       0.00000082       0.00000117       0.00000010
S        0.00000009      -0.00000008       0.00000016       0.00000153       0.00000845      -0.00000758
O        1.37474105       0.97208831       5.13477649       0.00341851       0.00242543       0.00000033
O        4.55438830       3.22043922       5.13477666      -0.00343114      -0.00242719      -0.00000017
O        3.75947651       0.97208843       3.75794854      -0.00170937       0.00242585       0.00296241
O        2.16965242       3.22043903       6.51160409       0.00171426      -0.00242576      -0.00297022
O        2.16965271       3.22043906       3.75794847       0.00171492      -0.00243014       0.00297499
O        3.75947657       0.97208853       6.51160402      -0.00170866       0.00242186      -0.00295871
