9
Lattice="4.552399470900866 3.3724424743060104e-08 2.628329117093972 1.5174664949626402 4.292043900821121 2.628329164090288 -1.29895790224191e-07 -3.429169821877179e-08 5.256658459174043" Properties=species:S:1:pos:R:3:forces:R:3 energy=-72.7762680053711 free_energy=-72.7762680053711 stress="-0.00035071835736744106 1.7192647305819264e-07 2.1149986650925712e-08 1.7192647305819264e-07 -0.0003505549393594265 7.735223306326588e-08 2.1149986650925712e-08 7.735223306326588e-08 -0.00035108590964227915" pbc="T T T"
Y        1.51746677       1.07301083       2.62832932      -0.00000092      -0.00000047       0.00000156
Y        4.55239934       3.21903290       7.88498746       0.00000139      -0.00000176      -0.00000056
Ti      -0.00000013       0.00000007       0.00000013      -0.00000063      -0.00000151      -0.00000129
O        1.55267112       1.09790430       5.25665852      -0.00516081      -0.00364965       0.00000152
O        4.51719490       3.19413960       5.25665834       0.00516170       0.00365061       0.00000097
O        3.77606379       1.09790457       3.97298161       0.00257975      -0.00364858      -0.00446916
O        2.29380199       3.19413975       6.54033498      -0.00257820       0.00364983       0.00446832
O        2.29380172       3.19413923       3.97298208      -0.00258073       0.00364947      -0.00446886
O        3.77606396       1.09790431       6.54033501       0.00257871      -0.00364822       0.00446808
