9
Lattice="5.49131648280385 -8.695890393783833e-08 3.1704131090573724 1.830438792009061 5.177262533976713 3.1704130287015775 8.5349080612243e-09 -9.238026210025303e-08 6.34082620333183" Properties=species:S:1:pos:R:3:forces:R:3 energy=-56.1544303894043 free_energy=-56.1544303894043 stress="8.730806257517543e-06 -3.835067730051378e-08 3.7455252788198834e-10 -3.835067730051378e-08 8.799645002000034e-06 2.2343240146938115e-08 3.7455252788198834e-10 2.2343240146938115e-08 8.780500138527714e-06" pbc="T T T"
Y        1.83043879       1.29431617       3.17041316      -0.00000039       0.00000119      -0.00000105
Y        5.49131637       3.88294646       9.51123920       0.00000006      -0.00000068       0.00000001
Ti      -0.00000012      -0.00000010       0.00000018       0.00000286      -0.00000009      -0.00000294
S        1.87980242       1.32922092       6.34082625      -0.00046499      -0.00032915       0.00000036
S        5.44195286       3.84804134       6.34082626       0.00046477       0.00032856       0.00000032
S        4.55141524       1.32922114       4.79836999       0.00023301      -0.00033028      -0.00040439
S        2.77034019       3.84804109       7.88328214      -0.00023593       0.00033166       0.00040826
S        2.77034010       3.84804122       4.79836995      -0.00023368       0.00032944      -0.00040516
S        4.55141529       1.32922116       7.88328218       0.00023434      -0.00033065       0.00040463
