9
Lattice="5.785427288246201 -6.162990171175668e-08 3.3402179903924294 1.9284757209406354 5.454553030351781 3.3402179621649406 5.2293795736105727e-08 2.40585217475378e-09 6.680435890209321" Properties=species:S:1:pos:R:3:forces:R:3 energy=-50.8270149230957 free_energy=-50.8270149230957 stress="-2.399601726210676e-05 1.150909700875502e-09 -1.0604041200679148e-08 1.150909700875502e-09 -2.396190211584326e-05 8.994757827451849e-09 -1.0604041200679148e-08 8.994757827451849e-09 -2.401871643087361e-05" pbc="T T T"
Y        1.92847610       1.36363893       3.34021797       0.00000002       0.00000265       0.00000042
Y        5.78542776       4.09091445      10.02065391       0.00000218      -0.00000141      -0.00000085
Ti      -0.00000017      -0.00000008      -0.00000020       0.00000124      -0.00000111       0.00000310
Se       1.98901554       1.40644688       6.68043587      -0.00052567      -0.00037102       0.00000050
Se       5.72488723       4.04810610       6.68043599       0.00052490       0.00037035       0.00000082
Se       4.79091910       1.40644666       5.06275634       0.00026327      -0.00037280      -0.00045519
Se       2.92298364       4.04810634       8.29811551      -0.00026148       0.00037030       0.00045560
Se       2.92298370       4.04810623       5.06275649      -0.00026412       0.00037286      -0.00045734
Se       4.79091942       1.40644633       8.29811549       0.00025969      -0.00036980       0.00045300
