9
Lattice="6.275388144718731 3.6540814316564624e-08 3.6230969758318534 2.09179607204573 5.916492704933363 3.6230969942692632 -2.6947681594792106e-08 3.5263264675898376e-09 7.246193998338399" Properties=species:S:1:pos:R:3:forces:R:3 energy=-46.01668167114258 free_energy=-46.01668167114258 stress="-8.693517156643793e-05 -1.610456878964328e-09 2.9729951833701307e-09 -1.610456878964328e-09 -8.693191921338439e-05 2.106949281710513e-09 2.9729951833701307e-09 2.106949281710513e-09 -8.693637937540188e-05" pbc="T T T"
Y        2.09179612       1.47912311       3.62309691       0.00000023       0.00000084       0.00000007
Y        6.27538800       4.43736952      10.86929099      -0.00000071      -0.00000087       0.00000078
Ti      -0.00000001       0.00000001       0.00000019      -0.00000115      -0.00000089      -0.00000166
Te       2.17545950       1.53828226       7.24619402       0.00140692       0.00099457       0.00000011
Te       6.19172474       4.37821065       7.24619401      -0.00140616      -0.00099479      -0.00000068
Te       5.18765834       1.53828221       5.50710018      -0.00070357       0.00099576       0.00121861
Te       3.17952592       4.37821046       8.98528763       0.00070309      -0.00099355      -0.00121747
Te       3.17952588       4.37821050       5.50710023       0.00070418      -0.00099491       0.00121790
Te       5.18765827       1.53828224       8.98528771      -0.00070283       0.00099387      -0.00121771
