9
Lattice="5.7307402134958005 2.303391294925334e-09 3.3086445072370783 1.910246759439399 5.402993621729053 3.3086444735733416 3.533044416236199e-08 -1.624716767123301e-08 6.617288953280101" Properties=species:S:1:pos:R:3:forces:R:3 energy=-51.04874038696289 free_energy=-51.04874038696289 stress="5.292171044857241e-05 -1.821283213132574e-08 1.8114748812081416e-08 -1.821283213132574e-08 5.292294736136682e-05 -3.3224085704830486e-09 1.8114748812081416e-08 -3.3224085704830486e-09 5.2941220928914845e-05" pbc="T T T"
Y        1.91024688       1.35074861       3.30864457       0.00000091       0.00000108       0.00000063
Y        5.73074024       4.05224534       9.92593435      -0.00000103      -0.00000048       0.00000480
V       -0.00000005      -0.00000012      -0.00000015       0.00000100       0.00000052      -0.00000065
Se       1.94710648       1.37681186       6.61728918      -0.00164157      -0.00116086       0.00000118
Se       5.69388069       4.02618180       6.61728879       0.00164071       0.00115941      -0.00000070
Se       4.75718681       1.37681217       4.99488770       0.00082098      -0.00115941      -0.00142168
Se       2.88379971       4.02618163       8.23968979      -0.00082061       0.00116107       0.00141941
Se       2.88380021       4.02618139       4.99488779      -0.00082032       0.00115947      -0.00142334
Se       4.75718710       1.37681177       8.23968966       0.00081994      -0.00116074       0.00142048
