9
Lattice="5.448487146957727 7.433379481219214e-08 3.145685593568843 1.8161624401505967 5.136883231803232 3.145685614788516 -5.122875767149457e-08 -1.0235478601228465e-08 6.29137127586847" Properties=species:S:1:pos:R:3:forces:R:3 energy=-56.364009857177734 free_energy=-56.364009857177734 stress="1.523792616353603e-05 -5.068101671668046e-08 3.256409542018446e-08 -5.068101671668046e-08 1.52980319398921e-05 -8.76731842680556e-09 3.256409542018446e-08 -8.76731842680556e-09 1.5290197552531026e-05" pbc="T T T"
Y        1.81616291       1.28422181       3.14568548       0.00000006       0.00000170      -0.00000083
Y        5.44848716       3.85266169       9.43705701       0.00000156      -0.00000180       0.00000074
V       -0.00000014      -0.00000005      -0.00000007       0.00000134       0.00000171      -0.00000508
S        1.84287433       1.30310942       6.29137117       0.00298896       0.00211543      -0.00000176
S        5.42177511       3.83377435       6.29137079      -0.00299257      -0.00211415      -0.00000053
S        4.52705034       1.30310913       4.74166230      -0.00149457       0.00211304       0.00258613
S        2.73759950       3.83377363       7.84108082       0.00149305      -0.00211182      -0.00258353
S        2.73759968       3.83377368       4.74166202       0.00149341      -0.00211346       0.00258502
S        4.52704939       1.30310965       7.84108038      -0.00149143       0.00210911      -0.00257975
