9
Lattice="6.184896430196452 2.5678026434258772e-08 3.5708515696254155 2.061632175970502 5.83117622852458 3.57085155514163 1.0273732389778644e-08 -1.0474272617143451e-08 7.141703121456151" Properties=species:S:1:pos:R:3:forces:R:3 energy=-46.4315299987793 free_energy=-46.4315299987793 stress="0.00012783476267941296 -2.208673244297188e-08 -1.328206655770714e-09 -2.208673244297188e-08 0.0001278474082937464 -8.16674816661589e-09 -1.328206655770714e-09 -8.16674816661589e-09 0.00012785480066668242" pbc="T T T"
Y        2.06163224       1.45779410       3.57085086      -0.00000041      -0.00000003      -0.00000095
Y        6.18489559       4.37338198      10.71255524      -0.00000137      -0.00000033       0.00000122
V       -0.00000001       0.00000003      -0.00000003       0.00000142       0.00000137      -0.00000110
Te       2.12829636       1.50493232       7.14170304       0.00143586       0.00101493       0.00000000
Te       6.11823255       4.32624365       7.14170287      -0.00143691      -0.00101560       0.00000006
Te       5.12074868       1.50493280       5.41401006      -0.00071729       0.00101481       0.00124222
Te       3.12578015       4.32624329       8.86939636       0.00071762      -0.00101402      -0.00124218
Te       3.12578048       4.32624402       5.41401019       0.00071723      -0.00101498       0.00124258
Te       5.12074845       1.50493281       8.86939635      -0.00071619       0.00101393      -0.00124189
