9
Lattice="6.2227096155228745 8.912350644158067e-08 3.592683054215982 2.0742365487428223 5.866826980802031 3.5926831820261764 -5.1680094995446587e-08 1.1999154208792206e-07 7.185366197944523" Properties=species:S:1:pos:R:3:forces:R:3 energy=-37.83616256713867 free_energy=-37.83616256713867 stress="-8.500372132402845e-06 -2.5386956981066078e-09 -5.250403667389492e-09 -2.5386956981066078e-09 -8.497931958117988e-06 1.592271559047731e-08 -5.250403667389492e-09 1.592271559047731e-08 -8.49765092425514e-06" pbc="T T T"
Y        2.07423676       1.46670684       3.59268289       0.00000111      -0.00000043      -0.00000083
Y        6.22270932       4.40012015      10.77805010      -0.00000027      -0.00000011       0.00000207
Zn      -0.00000001       0.00000016      -0.00000015      -0.00000344       0.00000078      -0.00000170
Te       2.16427442       1.53037341       7.18536617      -0.00100887      -0.00071308       0.00000072
Te       6.13267158       4.33645371       7.18536568       0.00101182       0.00071526      -0.00000145
Te       5.14057206       1.53037351       5.46699978       0.00050445      -0.00071415      -0.00087534
Te       3.15637395       4.33645383       8.90373270      -0.00050499       0.00071338       0.00087485
Te       3.15637408       4.33645386       5.46699992      -0.00050456       0.00071372      -0.00087404
Te       5.14057227       1.53037329       8.90373263       0.00050473      -0.00071535       0.00087568
