9
Lattice="5.429586330109057 8.187323535658893e-08 3.1347731001423345 1.8098622186335303 5.119062951376588 3.1347730457449736 8.174147813189198e-08 -8.822955196936214e-09 6.269546058704325" Properties=species:S:1:pos:R:3:forces:R:3 energy=-45.258853912353516 free_energy=-45.258853912353516 stress="0.00035575457150116563 6.9758807619280105e-09 -6.173624389482768e-10 6.9758807619280105e-09 0.0003557541931513697 -2.63990962423577e-08 -6.173624389482768e-10 -2.63990962423577e-08 0.0003558252356015146" pbc="T T T"
Y        1.80986190       1.27976575       3.13477319      -0.00000112      -0.00000054       0.00000068
Y        5.42958644       3.83929731       9.40431902      -0.00000038      -0.00000020      -0.00000069
Zn       0.00000003       0.00000005       0.00000017      -0.00000144       0.00000007       0.00000076
S        1.88260296       1.33120084       6.26954605      -0.00479543      -0.00339079      -0.00000051
S        5.35684561       3.78786198       6.26954631       0.00479823       0.00339240      -0.00000035
S        4.48828505       1.33120108       4.76515477       0.00239849      -0.00339097      -0.00415331
S        2.75116375       3.78786182       7.77393728      -0.00239864       0.00339079       0.00415298
S        2.75116368       3.78786189       4.76515499      -0.00239843       0.00339076      -0.00415340
S        4.48828508       1.33120144       7.77393703       0.00239912      -0.00339165       0.00415358
