9
Lattice="5.7344719761547704 -2.481304208643025e-08 3.3107989373947073 1.9114906440251636 5.406512032589933 3.3107989223243104 -1.0483363621409417e-08 -2.5870208650222876e-08 6.6215978929470865" Properties=species:S:1:pos:R:3:forces:R:3 energy=-41.49406433105469 free_energy=-41.49406433105469 stress="1.0183466656599194e-05 -1.1486979367703043e-08 4.379550500033247e-09 -1.1486979367703043e-08 1.0155682502954733e-05 -1.0620465396016243e-08 4.379550500033247e-09 -1.0620465396016243e-08 1.0180792742175981e-05" pbc="T T T"
Y        1.91149080       1.35162775       3.31079941       0.00000086      -0.00000139       0.00000247
Y        5.73447181       4.05488475       9.93239705      -0.00000090       0.00000245       0.00000041
Zn      -0.00000014      -0.00000027      -0.00000018       0.00000321       0.00000019      -0.00000340
Se       2.00618953       1.41859006       6.62159787      -0.00106505      -0.00075501       0.00000019
Se       5.63977324       3.98792195       6.62159771       0.00106281       0.00075236      -0.00000039
Se       4.73137707       1.41858986       5.04820990       0.00053109      -0.00075209      -0.00092059
Se       2.91458544       3.98792200       8.19498579      -0.00053215       0.00075504       0.00092193
Se       2.91458531       3.98792178       5.04820982      -0.00053236       0.00075236      -0.00092262
Se       4.73137734       1.41859006       8.19498568       0.00053237      -0.00075388       0.00092226
