9
Lattice="4.46147728077281 9.498918963816035e-08 2.5758350571615907 1.4871591187187838 4.206321525273302 2.5758351687555954 -8.439525817615872e-08 7.699769979436837e-08 5.151670260500087" Properties=species:S:1:pos:R:3:forces:R:3 energy=-58.73970031738281 free_energy=-58.73970031738281 stress="-0.0005775500321760774 2.7155360626807123e-08 -6.790901352360379e-08 2.7155360626807123e-08 -0.0005772633012384176 6.126082752189177e-08 -6.790901352360379e-08 6.126082752189177e-08 -0.0005773756420239806" pbc="T T T"
Y        1.48715919       1.05158096       2.57583489       0.00000058      -0.00000074      -0.00000025
Y        4.46147732       3.15474117       7.72750522       0.00000116      -0.00000035      -0.00000057
Zn       0.00000033      -0.00000010      -0.00000000      -0.00001071       0.00000086      -0.00000242
O        1.56387124       1.10582422       5.15167030       0.00051486       0.00036374       0.00000083
O        4.38476498       3.10049717       5.15167024      -0.00051004      -0.00035933      -0.00000078
O        3.67954139       1.10582423       3.93018740      -0.00025506       0.00036192       0.00044274
O        2.26909466       3.10049746       6.37315334       0.00025676      -0.00036266      -0.00044492
O        2.26909458       3.10049741       3.93018750       0.00025780      -0.00036365       0.00044596
O        3.67954153       1.10582439       6.37315298      -0.00025541       0.00036049      -0.00044101
