9
Lattice="4.595726346186736 -5.286842723910068e-09 2.6533439985641554 1.5319087793404602 4.33289248911404 2.6533439946450366 -2.2477734653398624e-08 -2.0694078263664325e-08 5.306688036060882" Properties=species:S:1:pos:R:3:forces:R:3 energy=-29.861543655395508 free_energy=-29.861543655395508 stress="0.0004040240019094199 2.9726782813099817e-08 4.3457781373490434e-08 2.9726782813099817e-08 0.00040390060166828334 -1.6171490813121636e-08 4.3457781373490434e-08 -1.6171490813121636e-08 0.0004038715560454875" pbc="T T T"
Zn       1.53190851       1.08322341       2.65334448      -0.00000105       0.00000151       0.00000271
Zn       4.59572624       3.24966942       7.96003215      -0.00000266       0.00000094       0.00000073
Ag       0.00000011       0.00000031       0.00000016      -0.00000129      -0.00000519       0.00000372
O        1.62772900       1.15097805       5.30668844      -0.00368541      -0.00260675       0.00000131
O        4.49990626       3.18191385       5.30668784       0.00368929       0.00260609      -0.00000204
O        3.78186139       1.15097791       4.06299847       0.00183949      -0.00260705      -0.00319451
O        2.34577331       3.18191440       6.55037723      -0.00184146       0.00260711       0.00319403
O        2.34577315       3.18191431       4.06299855      -0.00184327       0.00260907      -0.00319445
O        3.78186238       1.15097814       6.55037704       0.00184676      -0.00260556       0.00318962
