9
Lattice="5.676844348074028 1.0932754424185436e-07 3.2775276963101914 1.8922815375403177 5.352180293757997 3.277527722105041 -3.540701915621173e-08 6.555570957703038e-09 6.5550554539471655" Properties=species:S:1:pos:R:3:forces:R:3 energy=-22.726654052734375 free_energy=-22.726654052734375 stress="7.909700070740655e-05 -3.179526331109628e-08 -4.331369485299774e-09 -3.179526331109628e-08 7.908682164270431e-05 -1.3974352341961094e-08 -4.331369485299774e-09 -1.3974352341961094e-08 7.909639680292457e-05" pbc="T T T"
Zn       1.89228219       1.33804554       3.27752851       0.00000373       0.00000275       0.00000511
Zn       5.67684445       4.01413544       9.83258246       0.00000107      -0.00000083      -0.00000470
Ag       0.00000016       0.00000016       0.00000023      -0.00000173      -0.00000303      -0.00000453
S        2.02399010       1.43117741       6.55505512      -0.00113115      -0.00079945      -0.00000207
S        5.54513543       3.92100299       6.55505602       0.00113234       0.00080162       0.00000397
S        4.66484872       1.43117735       5.03035449       0.00056322      -0.00080025      -0.00098059
S        2.90427686       3.92100294       8.07975600      -0.00056610       0.00080207       0.00098258
S        2.90427649       3.92100229       5.03035454      -0.00056778       0.00079679      -0.00098175
S        4.66484901       1.43117757       8.07975614       0.00056648      -0.00079975       0.00098228
