9
Lattice="6.274748346425475 3.732991541700608e-08 3.6227276920396987 2.091582784839514 5.915889466109092 3.6227277483266747 -3.566833367629283e-08 4.371586564075594e-08 7.245455445858774" Properties=species:S:1:pos:R:3:forces:R:3 energy=-21.64154052734375 free_energy=-21.64154052734375 stress="9.408850928593893e-06 -1.2986308917106726e-08 4.0160608172357115e-09 -1.2986308917106726e-08 9.425892130821012e-06 5.590983231940072e-10 4.0160608172357115e-09 5.590983231940072e-10 9.400331691722386e-06" pbc="T T T"
Zn       2.09158292       1.47897263       3.62272776       0.00000019       0.00000022       0.00000013
Zn       6.27474803       4.43691704      10.86818331      -0.00000038       0.00000005       0.00000011
Ag      -0.00000006       0.00000033      -0.00000024      -0.00000016      -0.00000129       0.00000050
Te       2.32980323       1.64742001       7.24545548      -0.00067112      -0.00047462       0.00000010
Te       6.03652784       4.26846932       7.24545527       0.00067255       0.00047550      -0.00000045
Te       5.10984648       1.64742007       5.64039650       0.00033570      -0.00047469      -0.00058172
Te       3.25648469       4.26846923       8.85051450      -0.00033574       0.00047458       0.00058219
Te       3.25648474       4.26846936       5.64039650      -0.00033613       0.00047512      -0.00058252
Te       5.10984650       1.64742017       8.85051450       0.00033508      -0.00047487       0.00058165
