9
Lattice="5.738640789568137 -1.6314265839928278e-07 3.3132057682918674 1.9128799073699143 5.41044217919623 3.3132061181786026 2.1615457717617946e-07 5.813662605119587e-07 6.626411162193117" Properties=species:S:1:pos:R:3:forces:R:3 energy=-23.194250106811523 free_energy=-23.194250106811523 stress="-5.239452889327367e-07 5.1780645549115434e-08 -2.3688437877922297e-08 5.1780645549115434e-08 -5.926874564465834e-07 -3.218342570221466e-08 -2.3688437877922297e-08 -3.218342570221466e-08 -3.6151888593849435e-07" pbc="T T T"
Zn       1.91288033       1.35260956       3.31320554       0.00000101       0.00000051       0.00000002
Zn       5.73864015       4.05783185       9.93961789      -0.00000062      -0.00000156      -0.00000129
Ag      -0.00000015      -0.00000036      -0.00000067       0.00000092       0.00000311       0.00000255
Se       2.24955093       1.59067302       6.62641193      -0.00646012      -0.00456811       0.00000012
Se       5.40197159       3.81977124       6.62641330       0.00645469       0.00456344       0.00000537
Se       4.61386546       1.59067107       5.26137385       0.00322839      -0.00456627      -0.00558951
Se       3.03765415       3.81977249       7.99144889      -0.00322828       0.00457007       0.00558853
Se       3.03765384       3.81977066       5.26137295      -0.00322955       0.00456598      -0.00559169
Se       4.61386737       1.59067084       7.99144845       0.00323360      -0.00456709       0.00558595
