9
Lattice="4.588407621990045 1.2950000901924858e-07 2.649118396415697 1.529469255648939 4.325992569617147 2.649118524197491 -8.074426332747355e-08 9.940530281139016e-08 5.298236932684559" Properties=species:S:1:pos:R:3:forces:R:3 energy=-31.636266708374023 free_energy=-31.636266708374023 stress="-6.529152869916288e-06 3.135192727654612e-08 -1.7448043010404035e-08 3.135192727654612e-08 -6.596967068617232e-06 3.353817890072719e-09 -1.7448043010404035e-08 3.353817890072719e-09 -6.483952802227577e-06" pbc="T T T"
Zn       1.52947025       1.08149901       2.64911784       0.00000717       0.00000483      -0.00000433
Zn       4.58840786       3.24449496       7.94735492       0.00000378       0.00000252      -0.00000292
Au      -0.00000004       0.00000006      -0.00000010       0.00000582       0.00000080       0.00000227
O        1.59911998       1.13074873       5.29823749      -0.00006685      -0.00004661       0.00000196
O        4.51875746       3.19524412       5.29823754       0.00006086       0.00004211       0.00000270
O        3.78884706       1.13074856       4.03399646       0.00002816      -0.00004536      -0.00005570
O        2.32902883       3.19524344       6.56247730      -0.00003248       0.00004192       0.00005722
O        2.32902880       3.19524399       4.03399689      -0.00003347       0.00004475      -0.00005457
O        3.78884704       1.13074838       6.56247697       0.00002718      -0.00004511       0.00005284
