9
Lattice="5.4067071387011065 -1.3309821652878492e-07 3.121563660036272 1.8022356714568877 5.0974921860923015 3.1215635144700014 4.741945950520918e-08 -1.4475087756991998e-07 6.243127237939694" Properties=species:S:1:pos:R:3:forces:R:3 energy=-25.107776641845703 free_energy=-25.107776641845703 stress="-0.00015954559785313904 -1.0388228055546733e-08 1.3408018695315604e-08 -1.0388228055546733e-08 -0.00015953363617882133 2.9633985931809548e-08 1.3408018695315604e-08 2.9633985931809548e-08 -0.00015945208724588156" pbc="T T T"
Zn       1.80223476       1.27437099       3.12156368      -0.00000924      -0.00001864       0.00000126
Zn       5.40670814       3.82312027       9.36469097       0.00000814       0.00001535      -0.00000155
Cu      -0.00000026       0.00000016       0.00000015       0.00000211      -0.00000336       0.00000027
S        1.86800033       1.32087473       6.24312741      -0.00195211      -0.00138497       0.00000035
S        5.34094247       3.77661734       6.24312715       0.00195152       0.00138658       0.00000017
S        4.47270730       1.32087420       4.73929961       0.00097746      -0.00138760      -0.00168371
S        2.73623576       3.77661787       7.74695425      -0.00097871       0.00139123       0.00168586
S        2.73623579       3.77661799       4.73929973      -0.00097817       0.00139034      -0.00168645
S        4.47270723       1.32087417       7.74695469       0.00097874      -0.00138873       0.00168413
