9
Lattice="5.928489537688247 -2.070896135876303e-07 3.422814949198886 1.9761630365661158 5.589433537257495 3.422814858123168 -8.086453414069209e-08 -1.6872446506018046e-07 6.845630038459326" Properties=species:S:1:pos:R:3:forces:R:3 energy=-21.62152099609375 free_energy=-21.62152099609375 stress="-3.573153662728146e-05 3.060801390120105e-08 2.9944278168159144e-09 3.060801390120105e-08 -3.57615172106307e-05 2.1100575509080954e-08 2.9944278168159144e-09 2.1100575509080954e-08 -3.578904579626396e-05" pbc="T T T"
Zn       1.97616323       1.39735794       3.42281455      -0.00000030      -0.00000030      -0.00000053
Zn       5.92848989       4.19207475      10.26844431       0.00000036       0.00000064       0.00000091
Cd      -0.00000015      -0.00000000       0.00000050      -0.00000048       0.00000030      -0.00000144
Se       2.38705626       1.68790306       6.84563046      -0.00137138      -0.00096874      -0.00000027
Se       5.51759676       3.90152978       6.84563028       0.00136773       0.00097024      -0.00000207
Se       4.73496200       1.68790337       5.49006544       0.00068676      -0.00096664      -0.00118992
Se       3.16969118       3.90153022       8.20119498      -0.00068568       0.00097100       0.00118747
Se       3.16968976       3.90153129       5.49006414      -0.00068356       0.00096676      -0.00118512
Se       4.73496097       1.68790224       8.20119471       0.00068658      -0.00097324       0.00119109
