9
Lattice="6.152775399372065 -2.7345994214339126e-07 3.552306562215863 2.050924839646455 5.8008924754106825 3.552306623975636 -1.9677796538844526e-08 6.172569977716058e-08 7.104613158514567" Properties=species:S:1:pos:R:3:forces:R:3 energy=-28.923805236816406 free_energy=-28.923805236816406 stress="-0.00024270874564535916 -4.6994557578727836e-08 1.0598239619241667e-08 -4.6994557578727836e-08 -0.00024268320703413337 -3.918416258130719e-09 1.0598239619241667e-08 -3.918416258130719e-09 -0.00024263626255560666" pbc="T T T"
Zn       2.05092522       1.45022327       3.55230650      -0.00000004       0.00000026       0.00000043
Zn       6.15277517       4.35066980      10.65691993      -0.00000005       0.00000073       0.00000055
Cr      -0.00000105      -0.00000099       0.00000175       0.00000859       0.00000802      -0.00001203
Te       2.17585076       1.53855835       7.10461323      -0.00640488      -0.00452930      -0.00000029
Te       6.02785115       4.26233461       7.10461270       0.00639328       0.00452031      -0.00000028
Te       5.06484992       1.53855838       5.43664811       0.00320063      -0.00452504      -0.00554286
Te       3.13885015       4.26233329       8.77257774      -0.00320302       0.00453034       0.00554777
Te       3.13885010       4.26233373       5.43664805      -0.00319901       0.00452524      -0.00554210
Te       5.06484941       1.53855865       8.77257739       0.00320449      -0.00453055       0.00554888
