9
Lattice="5.808137797910181 -2.8782285374802916e-07 3.3533299457604437 1.9360457309626629 5.4759645400775705 3.353329825057288 9.15929007262969e-08 -8.306450671689834e-08 6.706659732877355" Properties=species:S:1:pos:R:3:forces:R:3 energy=-20.339811325073242 free_energy=-20.339811325073242 stress="1.8903483578469604e-05 8.117138960983539e-09 -4.531861108603152e-09 8.117138960983539e-09 1.8814551367540844e-05 -1.8044712390974382e-08 -4.531861108603152e-09 -1.8044712390974382e-08 1.8893721062340774e-05" pbc="T T T"
Zn       1.93604595       1.36898911       3.35333103       0.00000013      -0.00000849       0.00000422
Zn       5.80813834       4.10697437      10.05999142       0.00000158       0.00000792       0.00000759
Cd      -0.00000026      -0.00000016       0.00000112       0.00000083      -0.00000039      -0.00000020
S        2.16641202       1.53188335       6.70666042       0.00050297       0.00034901       0.00000144
S        5.57777255       3.94408036       6.70665974      -0.00050160      -0.00035290      -0.00000139
S        4.72493105       1.53188308       5.22949587      -0.00025403       0.00035191       0.00042939
S        3.01925156       3.94408156       8.18382150       0.00024869      -0.00034703      -0.00043947
S        3.01925124       3.94408226       5.22949626       0.00025116      -0.00034720       0.00043610
S        4.72493226       1.53188259       8.18382069      -0.00024967       0.00034717      -0.00043753
