9
Lattice="5.673988257259338 -5.561658932999174e-08 3.2758787073528177 1.8913293857140936 5.349487649521878 3.2758786743339674 -1.230307690363198e-08 -4.9139269421154936e-08 6.551757436015153" Properties=species:S:1:pos:R:3:forces:R:3 energy=-28.739826202392578 free_energy=-28.739826202392578 stress="4.2665751607273705e-06 -1.542242777929914e-08 6.346487335662232e-09 -1.542242777929914e-08 4.238176188664511e-06 1.0768376412784164e-08 6.346487335662232e-09 1.0768376412784164e-08 4.259769411874004e-06" pbc="T T T"
Zn       1.89132960       1.33737236       3.27587864       0.00000130       0.00000095       0.00000005
Zn       5.67398831       4.01211592       9.82763568       0.00000008       0.00000089      -0.00000091
Co      -0.00000006      -0.00000020       0.00000042       0.00000058      -0.00000007      -0.00000059
Se       1.89117614       1.33726345       6.55175752       0.00016263       0.00011493       0.00000020
Se       5.67414155       4.01222405       6.55175733      -0.00016375      -0.00011577      -0.00000065
Se       4.72840011       1.33726339       4.91368525      -0.00008182       0.00011507       0.00014253
Se       2.83691783       4.01222396       8.18982946       0.00008235      -0.00011466      -0.00014050
Se       2.83691715       4.01222388       4.91368542       0.00008128      -0.00011664       0.00014143
Se       4.72839988       1.33726337       8.18982952      -0.00008274       0.00011520      -0.00014158
