9
Lattice="5.030718122275263 -2.1258605645629298e-07 2.9044866343547637 1.6769058419772174 4.743007924968072 2.904486631502428 -1.2752585647116687e-07 -9.366780307799578e-08 5.80897348959076" Properties=species:S:1:pos:R:3:forces:R:3 energy=-28.341197967529297 free_energy=-28.341197967529297 stress="0.0004600859247148037 -1.262922353362228e-07 7.201501261988597e-08 -1.262922353362228e-07 0.00045973420492373407 1.9057615929796157e-08 7.201501261988597e-08 1.9057615929796157e-08 0.00046003409079276025" pbc="T T T"
Zn       1.67690718       1.18575370       2.90448730       0.00000534       0.00000979       0.00000900
Zn       5.03071850       3.55725808       8.71345695      -0.00000225       0.00000964      -0.00001936
C       -0.00000143       0.00000058      -0.00000078      -0.00000698       0.00001146      -0.00003291
S        1.58888452       1.12350961       5.80897050      -0.00345349      -0.00244465      -0.00000985
S        5.11874029       3.61949595       5.80897653       0.00345278       0.00244126       0.00001866
S        4.23627214       1.12351004       4.28050037       0.00170726      -0.00244713      -0.00299489
S        2.47134916       3.61949705       7.33744791      -0.00172010       0.00244036       0.00299639
S        2.47134713       3.61949412       4.28050044      -0.00172460       0.00242293      -0.00297743
S        4.23627790       1.12351119       7.33744739       0.00174218      -0.00244328       0.00300997
