9
Lattice="5.5294648565327345 -2.058360862068286e-07 3.1924378836261402 1.8431547447154768 5.213230120204078 3.1924379068322435 -2.9221635791701812e-08 7.75865496009424e-09 6.384875817865685" Properties=species:S:1:pos:R:3:forces:R:3 energy=-24.486244201660156 free_energy=-24.486244201660156 stress="-0.00038522499380633235 -1.9127462280721375e-08 -2.1684355644424613e-08 -1.9127462280721375e-08 -0.0003853596281260252 -1.8866193940425546e-08 -2.1684355644424613e-08 -1.8866193940425546e-08 -0.00038519781082868576" pbc="T T T"
Zn       1.84315439       1.30330682       3.19243850      -0.00000102      -0.00000147       0.00000048
Zn       5.52946434       3.90992323       9.57731321      -0.00000053       0.00000104       0.00000051
Cu      -0.00000035      -0.00000013      -0.00000020       0.00000121       0.00000021       0.00000068
Se       2.10712742       1.48996399       6.38487570       0.00113058       0.00079834      -0.00000056
Se       5.26549279       3.72326666       6.38487586      -0.00113204      -0.00079969      -0.00000041
Se       4.47590090       1.48996332       5.01726354      -0.00056529       0.00079998       0.00098021
Se       2.89671897       3.72326655       7.75248778       0.00056691      -0.00079802      -0.00098038
Se       2.89671837       3.72326626       5.01726401       0.00056613      -0.00079924       0.00098076
Se       4.47590133       1.48996296       7.75248815      -0.00056589       0.00079882      -0.00098127
