9
Lattice="4.071239452245722 -9.74211329668074e-08 2.3505311133793185 1.3570797222439033 3.8384013683608553 2.3505311191328238 -9.489610406973797e-08 -6.005506119188879e-08 4.70106239112347" Properties=species:S:1:pos:R:3:forces:R:3 energy=-41.182037353515625 free_energy=-41.182037353515625 stress="-2.921362829511054e-05 -7.032354432112697e-08 2.6619503046276805e-07 -7.032354432112697e-08 -2.94405035674572e-05 1.3017989886066061e-07 2.6619503046276805e-07 1.3017989886066061e-07 -2.940891863545403e-05" pbc="T T T"
Zn       1.35707967       0.95960008       2.35053122       0.00000046       0.00000047      -0.00000030
Zn       4.07123933       2.87880075       7.05159336      -0.00000078       0.00000039       0.00000004
C       -0.00000003      -0.00000010      -0.00000013       0.00000085      -0.00000103       0.00000442
O        1.22466070       0.86596614       4.70106218       0.00086296       0.00061333      -0.00000626
O        4.20365836       2.97243529       4.70106232      -0.00086689      -0.00061703       0.00000443
O        3.45890916       0.86596567       3.41111853      -0.00043380       0.00060880       0.00075805
O        1.96940997       2.97243547       5.99100618       0.00043482      -0.00060999      -0.00075817
O        1.96941038       2.97243577       3.41111818       0.00043231      -0.00061250       0.00075471
O        3.45890863       0.86596583       5.99100666      -0.00042999       0.00061929      -0.00075877
