9
Lattice="5.378868514441144 7.523112504842304e-08 3.105491416738815 1.792956234186609 5.071245864332255 3.10549143098033 3.362652409446844e-08 4.121980871540084e-08 6.210982775234717" Properties=species:S:1:pos:R:3:forces:R:3 energy=-33.4291877746582 free_energy=-33.4291877746582 stress="-0.00038392742862924933 -8.065602230544755e-08 1.0984051890261526e-08 -8.065602230544755e-08 -0.0003839885466732085 -1.2966637541467207e-08 1.0984051890261526e-08 -1.2966637541467207e-08 -0.0003839221899397671" pbc="T T T"
Zn       1.79295862       1.26780956       3.10549167       0.00001846      -0.00001601       0.00000009
Zn       5.37886791       3.80343361       9.31647425      -0.00000388      -0.00000442      -0.00000133
Cr       0.00000021      -0.00000015      -0.00000001       0.00000328      -0.00000122      -0.00000192
S        1.80222607       1.27436725       6.21098311       0.00450400       0.00319052       0.00000205
S        5.36959771       3.79688011       6.21098277      -0.00451297      -0.00318381       0.00000007
S        4.47775435       1.27436702       4.66626502      -0.00226116       0.00318956       0.00389832
S        2.69407045       3.79688004       7.75569920       0.00225599      -0.00317845      -0.00390217
S        2.69407003       3.79687939       4.66626594       0.00225556      -0.00318253       0.00390124
S        4.47775383       1.27436723       7.75570024      -0.00225930       0.00318643      -0.00389594
