9
Lattice="5.765081943965323 -3.612502576381241e-08 3.3284715802631566 1.9216939173208436 5.435371278875519 3.3284716321240113 -8.555750610397638e-08 3.018084623849811e-09 6.656943308716257" Properties=species:S:1:pos:R:3:forces:R:3 energy=-31.163169860839844 free_energy=-31.163169860839844 stress="-0.00020044816483277828 -1.7436122545788635e-09 -3.2691083173830293e-09 -1.7436122545788635e-09 -0.00020045078417751938 4.247757257047624e-09 -3.2691083173830293e-09 4.247757257047624e-09 -0.00020044758275616914" pbc="T T T"
Zn       1.92169413       1.35884258       3.32847168       0.00000041      -0.00000017      -0.00000004
Zn       5.76508173       4.07652827       9.98541441       0.00000023      -0.00000080      -0.00000067
Cr      -0.00000007       0.00000009       0.00000023       0.00000038       0.00000091       0.00000091
Se       1.96876686       1.39212854       6.65694353      -0.00590131      -0.00417233      -0.00000030
Se       5.71800914       4.04324281       6.65694347       0.00590050       0.00417242       0.00000039
Se       4.78069824       1.39212848       5.03347376       0.00295012      -0.00417294      -0.00511053
Se       2.90607729       4.04324280       8.28041243      -0.00294986       0.00417249       0.00510992
Se       2.90607749       4.04324285       5.03347375      -0.00295060       0.00417257      -0.00510986
Se       4.78069829       1.39212858       8.28041281       0.00295012      -0.00417219       0.00511019
