9
Lattice="4.448207070145593 -1.2202150695170418e-07 2.5681735152884766 1.4827356236010234 4.193809613622041 2.5681734311186393 4.04551721332044e-08 -7.448042504070786e-08 5.136346960506541" Properties=species:S:1:pos:R:3:forces:R:3 energy=-42.35979461669922 free_energy=-42.35979461669922 stress="3.6697706491395365e-06 1.4242161228139594e-08 -1.2273358329650819e-08 1.4242161228139594e-08 3.869985448545776e-06 -7.464573315019152e-08 -1.2273358329650819e-08 -7.464573315019152e-08 3.8241437323449645e-06" pbc="T T T"
Zn       1.48273458       1.04845246       2.56817371      -0.00001037       0.00000231       0.00000134
Zn       4.44820718       3.14535791       7.70451908       0.00000269       0.00000520      -0.00000843
Cr       0.00000017      -0.00000000       0.00000014      -0.00000065       0.00000233       0.00000241
O        1.51901778       1.07410734       5.13634689      -0.00026439      -0.00019037       0.00000115
O        4.41192514       3.11970169       5.13634793       0.00026527       0.00018746       0.00000435
O        3.68869845       1.07410725       3.88368143       0.00013760      -0.00019026      -0.00022654
O        2.24224443       3.11970210       6.38901250      -0.00013193       0.00018584       0.00022590
O        2.24224449       3.11970171       3.88368126      -0.00013236       0.00018668      -0.00022845
O        3.68869876       1.07410735       6.38901257       0.00013428      -0.00018920       0.00022884
