9
Lattice="6.060948010554771 -2.2529149492349363e-07 3.499289959258037 2.0203155753860624 5.7143147409797 3.4992903329054017 -7.30344390506729e-07 -5.8808874562034955e-08 6.998581183509392" Properties=species:S:1:pos:R:3:forces:R:3 energy=-26.95970344543457 free_energy=-26.95970344543457 stress="-8.689607784617692e-05 -4.497951877624473e-08 -1.5498591299234477e-09 -4.497951877624473e-08 -8.675741992192343e-05 3.266867310003363e-08 -1.5498591299234477e-09 3.266867310003363e-08 -8.682606130605564e-05" pbc="T T T"
Zn       2.02031512       1.42857815       3.49929092      -0.00000129      -0.00000198       0.00000022
Zn       6.06094757       4.28573645      10.49787151       0.00000129       0.00000087      -0.00000075
Co       0.00000070      -0.00000134      -0.00000204      -0.00000668       0.00000722       0.00002029
Te       2.00887778       1.42049226       6.99858130       0.00273168       0.00193240      -0.00000072
Te       6.07238295       4.29382292       6.99858099      -0.00273046      -0.00193112       0.00000002
Te       5.05650781       1.42049127       5.23903252      -0.00136010       0.00192147       0.00235627
Te       3.02475532       4.29382380       8.75812938       0.00136639      -0.00193238      -0.00236971
Te       3.02475582       4.29382321       5.23903264       0.00136269      -0.00192625       0.00236171
Te       5.05650847       1.42049116       8.75812870      -0.00136348       0.00192972      -0.00236737
