9
Lattice="4.367915702459845 9.992768946817913e-08 2.52181735344608 1.4559719629758698 4.118110758516915 2.5218174089701137 3.550701652424924e-08 9.311003617265034e-08 5.043634645392218" Properties=species:S:1:pos:R:3:forces:R:3 energy=-34.33938217163086 free_energy=-34.33938217163086 stress="-5.31716832483653e-05 3.4185465125347037e-08 4.0697326397776123e-08 3.4185465125347037e-08 -5.318833427736536e-05 -1.545255701174142e-09 4.0697326397776123e-08 -1.545255701174142e-09 -5.321104981703684e-05" pbc="T T T"
Zn       1.45597240       1.02952773       2.52181825       0.00000165       0.00000144       0.00000458
Zn       4.36791602       3.08858346       7.56545272       0.00000151      -0.00000076       0.00000331
Cu      -0.00000009       0.00000010      -0.00000004      -0.00000105       0.00000052       0.00000283
O        1.49490316       1.05705631       5.04363403      -0.00343984      -0.00243244      -0.00000091
O        4.32898450       3.06105438       5.04363416       0.00343961       0.00243381      -0.00000459
O        3.62046405       1.05705628       3.81644161       0.00172018      -0.00243355      -0.00297904
O        2.20342348       3.06105486       6.27082772      -0.00171787       0.00243056       0.00297463
O        2.20342333       3.06105403       3.81644159      -0.00172248       0.00243096      -0.00297958
O        3.62046402       1.05705666       6.27082778       0.00171848      -0.00243066       0.00297862
