9
Lattice="5.284787117064608 -5.58814920320466e-09 3.0511731839911227 1.7615957615895028 4.982544341145185 3.051173078041854 2.2862839122454768e-08 -1.1359433648395145e-07 6.1023463283826755" Properties=species:S:1:pos:R:3:forces:R:3 energy=-31.11357879638672 free_energy=-31.11357879638672 stress="-0.00018120343156624585 -9.883802221111182e-09 4.569030931378393e-09 -9.883802221111182e-09 -0.0001811257388908416 -3.512275270622922e-08 4.569030931378393e-09 -3.512275270622922e-08 -0.00018119615560863167" pbc="T T T"
Zn       1.76159464       1.24563804       3.05117198      -0.00000511       0.00001680      -0.00000868
Zn       5.28478603       3.73690578       9.15351923      -0.00000914      -0.00001859      -0.00000089
Co      -0.00000021       0.00000021       0.00000060       0.00000234      -0.00000441      -0.00000754
S        1.76650587       1.24910871       6.10234604       0.00427106       0.00302562      -0.00000174
S        5.27987750       3.73343501       6.10234580      -0.00426468      -0.00302759      -0.00000419
S        4.40153541       1.24910836       4.58101162      -0.00213248       0.00303087       0.00370461
S        2.64484974       3.73343494       7.62368157       0.00213595      -0.00302464      -0.00368950
S        2.64484885       3.73343615       4.58101211       0.00213777      -0.00302258       0.00370044
S        4.40153378       1.24910977       7.62368137      -0.00213569       0.00302449      -0.00369230
