9
Lattice="5.446885810708061 -8.34121972094722e-08 3.144760837686568 1.8156285194096222 5.135372512457374 3.1447608472438424 -2.8043439442920956e-08 -8.124464873397243e-09 6.289521723945825" Properties=species:S:1:pos:R:3:forces:R:3 energy=-32.59717559814453 free_energy=-32.59717559814453 stress="-2.7834370484924875e-05 8.83238726601121e-08 -5.717829765217175e-08 8.83238726601121e-08 -2.7841097107739188e-05 -1.8877090113278427e-08 -5.717829765217175e-08 -1.8877090113278427e-08 -2.7955251425737515e-05" pbc="T T T"
Zn       1.81562875       1.28384325       3.14476141       0.00000153       0.00000213       0.00000448
Zn       5.44688621       3.85152820       9.43428025       0.00000067      -0.00001237      -0.00001656
Fe      -0.00000018       0.00000005       0.00000050       0.00000059      -0.00000529      -0.00000170
S        1.77617150       1.25594372       6.28952200      -0.00094163      -0.00065958       0.00000249
S        5.48634199       3.87942865       6.28952301       0.00094676       0.00066644       0.00000740
S        4.55879922       1.25594337       4.68297014       0.00046405      -0.00066015      -0.00081038
S        2.70371541       3.87943026       7.89607270      -0.00046617       0.00066653       0.00081289
S        2.70371404       3.87942904       4.68297048      -0.00047204       0.00065973      -0.00080967
S        4.55880023       1.25594324       7.89607338       0.00046700      -0.00065699       0.00081027
