9
Lattice="6.3545532158444615 -2.5969280453975206e-09 3.6688044663751764 2.118184263957235 5.991133897969994 3.6688047069144667 -1.8834949979126088e-07 1.6141603115726588e-07 7.337609258981651" Properties=species:S:1:pos:R:3:forces:R:3 energy=-28.676298141479492 free_energy=-28.676298141479492 stress="0.0001351928513031453 -2.8599430379472324e-07 1.9150526497924147e-08 -2.8599430379472324e-07 0.00013538007624447346 -6.126807949868862e-09 1.9150526497924147e-08 -6.126807949868862e-09 0.00013548735296353698" pbc="T T T"
Zn       2.11818341       1.49778430       3.66880451      -0.00000127       0.00000034       0.00000008
Zn       6.35455263       4.49335104      11.00641523      -0.00000015       0.00000168       0.00000072
Fe      -0.00000265       0.00000039      -0.00000230       0.00006472       0.00001168       0.00004692
Te       1.93624919       1.36913333       7.33760968      -0.00432774      -0.00306220       0.00000019
Te       6.53649155       4.62200095       7.33761019       0.00428346       0.00302858       0.00000040
Te       5.38642923       1.36913413       5.34564845       0.00216947      -0.00306940      -0.00375569
Te       3.08630778       4.62200029       9.32957145      -0.00216687       0.00306229       0.00374757
Te       3.08630893       4.62199751       5.34564598      -0.00217970       0.00307954      -0.00377333
Te       5.38642928       1.36913449       9.32957031       0.00215805      -0.00305253       0.00373313
