9
Lattice="4.43986550404941 6.932255304237604e-10 2.563357558663514 1.4799551781772244 4.185945233520895 2.5633575421966053 1.540896387983455e-09 -1.907818653635216e-08 5.126715114658129" Properties=species:S:1:pos:R:3:forces:R:3 energy=-39.468624114990234 free_energy=-39.468624114990234 stress="6.117196608101949e-05 1.1914845288174547e-07 3.344356969137152e-08 1.1914845288174547e-07 6.104802741901949e-05 6.824963350027247e-08 3.344356969137152e-08 6.824963350027247e-08 6.115202268119901e-05" pbc="T T T"
Zn       1.47995514       1.04648628       2.56335793      -0.00000093      -0.00000125       0.00000068
Zn       4.43986551       3.13945895       7.69007268      -0.00000039       0.00000097       0.00000038
Fe       0.00000020      -0.00000023      -0.00000019      -0.00001651       0.00002084      -0.00001112
O        1.52370525       1.07742219       5.12671522      -0.00295466      -0.00208774      -0.00000051
O        4.39611543       3.10852296       5.12671521       0.00296074       0.00209054       0.00000031
O        3.67801274       1.07742219       3.88292464       0.00147679      -0.00208920      -0.00256082
O        2.24180762       3.10852311       6.37050547      -0.00147504       0.00208312       0.00255513
O        2.24180766       3.10852337       3.88292476      -0.00147235       0.00207636      -0.00254801
O        3.67801314       1.07742203       6.37050519       0.00148177      -0.00209391       0.00256404
