9
Lattice="5.815608997127763 2.576361247654837e-07 3.357643079495524 1.9385365122946159 5.483008691338101 3.357643188585211 -2.7987397979150882e-08 1.1381698118979796e-07 6.715286207466606" Properties=species:S:1:pos:R:3:forces:R:3 energy=-30.867717742919922 free_energy=-30.867717742919922 stress="-0.00019654436619020998 7.313436611866564e-08 1.9692391717285318e-08 7.313436611866564e-08 -0.00019663749844767153 -3.680866811350825e-08 1.9692391717285318e-08 -3.680866811350825e-08 -0.00019667147716972977" pbc="T T T"
Zn       1.93853633       1.37075204       3.35764316      -0.00000110      -0.00000062       0.00000002
Zn       5.81560931       4.11225685      10.07292913       0.00000122       0.00000035       0.00000015
Fe      -0.00000021       0.00000030      -0.00000032      -0.00000138      -0.00000723       0.00000557
Se       1.86656320       1.31986013       6.71528629       0.00486362       0.00344019       0.00000012
Se       5.88758201       4.16314913       6.71528670      -0.00486067      -0.00343625       0.00000017
Se       4.88232732       1.31985917       4.97413423      -0.00243473       0.00344390       0.00421771
Se       2.87181792       4.16314990       8.45643816       0.00243469      -0.00344384      -0.00421807
Se       2.87181855       4.16314920       4.97413387       0.00243334      -0.00344037       0.00421163
Se       4.88232745       1.31985945       8.45643850      -0.00243516       0.00344378      -0.00421724
