9
Lattice="4.431930529330509 2.761054468354645e-08 2.558776344518227 1.4773101905852124 4.178464317829225 2.558776365111906 1.190513991641109e-08 3.364017343076862e-08 5.117552668416193" Properties=species:S:1:pos:R:3:forces:R:3 energy=-38.22087860107422 free_energy=-38.22087860107422 stress="-6.617733015445992e-05 3.146125848729753e-08 -1.925329584651081e-08 3.146125848729753e-08 -6.636687612626702e-05 7.540963409269352e-09 -1.925329584651081e-08 7.540963409269352e-09 -6.626423419220373e-05" pbc="T T T"
Zn       1.47730994       1.04461611       2.55877644      -0.00000056      -0.00000088      -0.00000038
Zn       4.43193060       3.13384815       7.67632885       0.00000010      -0.00000020      -0.00000169
Ge       0.00000002      -0.00000008      -0.00000028      -0.00000025       0.00000050       0.00000462
O        1.52709432       1.07981862       5.11755275      -0.00056124      -0.00039607       0.00000142
O        4.38214649       3.09864593       5.11755263       0.00055885       0.00039589      -0.00000082
O        3.66838345       1.07981849       3.88127894       0.00028241      -0.00039685      -0.00048536
O        2.24085744       3.09864585       6.35382671      -0.00027978       0.00039536       0.00048399
O        2.24085714       3.09864560       3.88127855      -0.00027996       0.00039494      -0.00048518
O        3.66838367       1.07981865       6.35382683       0.00027966      -0.00039214       0.00048482
