9
Lattice="6.3098805084858025 -7.00542076140946e-08 3.643011285573043 2.1032934968973107 5.949012323827454 3.643011181448362 1.0068790303552696e-07 -5.632905294490475e-08 7.286022396749547" Properties=species:S:1:pos:R:3:forces:R:3 energy=-23.505517959594727 free_energy=-23.505517959594727 stress="-7.615155027451692e-06 4.32400781846809e-09 -8.804677542606498e-10 4.32400781846809e-09 -7.608036867168266e-06 -2.529178644294916e-09 -8.804677542606498e-10 -2.529178644294916e-09 -7.617104984092293e-06" pbc="T T T"
Zn       2.10329339       1.48725301       3.64301122       0.00000003      -0.00000007      -0.00000016
Zn       6.30988064       4.46175924      10.92903376       0.00000007      -0.00000016      -0.00000016
Ge       0.00000033       0.00000005      -0.00000013       0.00000041       0.00000013      -0.00000023
Te       2.33757282       1.65291341       7.28602227      -0.00052927      -0.00037371       0.00000001
Te       6.07560054       4.29609805       7.28602220       0.00052923       0.00037406       0.00000018
Te       5.14109415       1.65291390       5.66740902       0.00026457      -0.00037433      -0.00045830
Te       3.27208002       4.29609900       8.90463615      -0.00026474       0.00037406       0.00045827
Te       3.27208024       4.29609861       5.66740901      -0.00026494       0.00037415      -0.00045815
Te       5.14109435       1.65291350       8.90463596       0.00026461      -0.00037414       0.00045857
