9
Lattice="5.8615059364340505 -2.2157248581968268e-08 3.3841419929101124 1.953835358776844 5.526280572330404 3.3841418759581963 1.7722725472420658e-07 -1.7917626516126985e-08 6.768283678853603" Properties=species:S:1:pos:R:3:forces:R:3 energy=-25.453893661499023 free_energy=-25.453893661499023 stress="-4.364719643490389e-05 -1.6147313486314374e-09 8.205928159199516e-10 -1.6147313486314374e-09 -4.3659911170834675e-05 -1.4997066699606876e-08 8.205928159199516e-10 -1.4997066699606876e-08 -4.370009992271662e-05" pbc="T T T"
Zn       1.95383566       1.38157028       3.38414184       0.00000003       0.00000015       0.00000017
Zn       5.86150617       4.14471039      10.15242517       0.00000011       0.00000066      -0.00000139
Ge       0.00000017      -0.00000016       0.00000034      -0.00000414       0.00000188      -0.00000513
Se       2.01202600       1.42271710       6.76828386      -0.00308771      -0.00218341      -0.00000041
Se       5.80331525       4.10356322       6.76828416       0.00309013       0.00218494       0.00000058
Se       4.85549313       1.42271683       5.12660710       0.00154281      -0.00218258      -0.00267418
Se       2.95984832       4.10356369       8.40996016      -0.00154424       0.00218410       0.00267491
Se       2.95984814       4.10356355       5.12660738      -0.00154269       0.00218114      -0.00267224
Se       4.85549306       1.42271719       8.40996024       0.00154573      -0.00218681       0.00267772
