9
Lattice="5.670094953851372 2.3569239529972665e-07 3.2736307577618655 1.8900318204456172 5.3458168043325935 3.273630849648912 1.3520584231985577e-07 2.081432527460005e-07 6.547261281340368" Properties=species:S:1:pos:R:3:forces:R:3 energy=-27.042221069335938 free_energy=-27.042221069335938 stress="0.00014025624841451645 -2.282703626121929e-08 -2.4089269246019285e-08 -2.282703626121929e-08 0.00014022891991771758 -5.392123370029367e-08 -2.4089269246019285e-08 -5.392123370029367e-08 0.0001402735651936382" pbc="T T T"
Zn       1.89003239       1.33645455       3.27363139       0.00000283       0.00000086       0.00000471
Zn       5.67009475       4.00936260       9.82088968      -0.00000113      -0.00000143      -0.00001420
Ge      -0.00000014      -0.00000034      -0.00000007       0.00000391       0.00000836      -0.00000194
S        1.89492824       1.33991725       6.54726136      -0.00160271      -0.00113261      -0.00000039
S        5.66519822       4.00590106       6.54726328       0.00159281       0.00112879       0.00000634
S        4.72263027       1.33991649       4.91468682       0.00079760      -0.00113201      -0.00138420
S        2.83749651       4.00590085       8.17983627      -0.00079602       0.00113106       0.00138479
S        2.83749564       4.00589933       4.91468606      -0.00079927       0.00112635      -0.00138324
S        4.72263163       1.33991756       8.17983667       0.00080177      -0.00112951       0.00138813
