9
Lattice="4.4848232881095695 -5.7424396918894275e-08 2.5893140078769434 1.4949410654330735 4.228331770696536 2.589313967110014 7.939427995903626e-09 -4.431506016980315e-08 5.178628002002387" Properties=species:S:1:pos:R:3:forces:R:3 energy=-45.91473388671875 free_energy=-45.91473388671875 stress="-9.474184480495751e-05 2.3727180575860984e-07 1.618620082410871e-08 2.3727180575860984e-07 -9.47522567003034e-05 -2.1743525735473668e-07 1.618620082410871e-08 -2.1743525735473668e-07 -9.509681694908068e-05" pbc="T T T"
Zn       1.49494108       1.05708277       2.58931400       0.00000159       0.00000037      -0.00000350
Zn       4.48482310       3.17124891       7.76794191      -0.00000283      -0.00000275      -0.00000153
Mn       0.00000056       0.00000018       0.00000115      -0.00005838      -0.00004674      -0.00014137
O        1.51767298       1.07315688       5.17862787       0.00414467       0.00292778       0.00000125
O        4.46209090       3.15517448       5.17862803      -0.00407791      -0.00288844      -0.00000333
O        3.72598687       1.07315669       3.90365725      -0.00208056       0.00294399       0.00361586
O        2.25377779       3.15517453       6.45359824       0.00203991      -0.00288248      -0.00352073
O        2.25377769       3.15517484       3.90365713       0.00207424      -0.00293255       0.00358605
O        3.72598648       1.07315731       6.45359835      -0.00204051       0.00288177      -0.00353312
