9
Lattice="5.622708923736032 -4.1947002997189706e-08 3.2462725564582833 1.874236363142452 5.301140177151882 3.246272392297144 1.8866584800199625e-07 -6.764858744712853e-08 6.492544786137521" Properties=species:S:1:pos:R:3:forces:R:3 energy=-33.83320617675781 free_energy=-33.83320617675781 stress="-1.875080488389358e-05 -6.871696545118766e-09 -3.849388718890623e-08 -6.871696545118766e-09 -1.8734504919848405e-05 6.390453677340702e-08 -3.849388718890623e-08 6.390453677340702e-08 -1.8757276848191395e-05" pbc="T T T"
Zn       1.87423662       1.32528593       3.24627326       0.00000163       0.00000385       0.00000249
Zn       5.62270874       3.97585554       9.73881894      -0.00000141       0.00000266       0.00000918
Mn       0.00000009      -0.00000053      -0.00000146       0.00000575       0.00000316       0.00002658
S        1.81533994       1.28363734       6.49254489       0.00202072       0.00142384       0.00000021
S        5.68160680       4.01750261       6.49254508      -0.00202638      -0.00143260      -0.00000044
S        4.71503914       1.28363903       4.81840197      -0.00100437       0.00142533       0.00174105
S        2.78190457       4.01750171       8.16668733       0.00101036      -0.00143647      -0.00175864
S        2.78190630       4.01750125       4.81840120       0.00100926      -0.00142717       0.00174224
S        4.71504027       1.28363728       8.16668757      -0.00101587       0.00143695      -0.00176251
