9
Lattice="5.8809662021288 -1.3928384453928614e-07 3.3953773582367393 1.9603218678955396 5.544628101857281 3.3953774762979534 -6.538161392385538e-08 9.836312757371106e-08 6.790754829717749" Properties=species:S:1:pos:R:3:forces:R:3 energy=-31.61687469482422 free_energy=-31.61687469482422 stress="0.00015823835565242916 -6.136600916306634e-08 -1.328852050619389e-08 -6.136600916306634e-08 0.0001582785916980356 -5.072379849480058e-09 -1.328852050619389e-08 -5.072379849480058e-09 0.0001583453267812729" pbc="T T T"
Zn       1.96032200       1.38615677       3.39537747      -0.00000050      -0.00000019       0.00000045
Zn       5.88096612       4.15847121      10.18613273      -0.00000006       0.00000028       0.00000110
Mn      -0.00000072       0.00000026       0.00000052       0.00001365      -0.00000619      -0.00001684
Se       1.91783222       1.35611221       6.79075483      -0.00697607      -0.00493273      -0.00000048
Se       5.92345602       4.18851589       6.79075475       0.00696993       0.00492886      -0.00000023
Se       4.92204977       1.35611241       5.05626868       0.00348458      -0.00492796      -0.00603601
Se       2.91923843       4.18851553       8.52524034      -0.00349247       0.00493965       0.00604978
Se       2.91923799       4.18851580       5.05626894      -0.00348803       0.00493357      -0.00604168
Se       4.92205021       1.35611213       8.52524032       0.00348935      -0.00493506       0.00604409
