9
Lattice="6.415689454794559 1.3702467769106554e-08 3.7040999767446685 2.138563204800025 6.048770060749891 3.7040999069724188 4.6998349373858694e-08 -5.222034137827773e-08 7.4081998720857944" Properties=species:S:1:pos:R:3:forces:R:3 energy=-21.074682235717773 free_energy=-21.074682235717773 stress="-2.8106071113143116e-05 2.300339030369969e-09 -1.8250014832688066e-08 2.300339030369969e-09 -2.8138410925748758e-05 -3.4263774040255157e-09 -1.8250014832688066e-08 -3.4263774040255157e-09 -2.8132268198532984e-05" pbc="T T T"
Zn       2.13856329       1.51219240       3.70410002       0.00000023      -0.00000012       0.00000037
Zn       6.41568937       4.53657769      11.11229991      -0.00000010       0.00000043       0.00000007
Mg      -0.00000017      -0.00000002      -0.00000046       0.00000068       0.00000069       0.00000077
Te       2.41366263       1.70671686       7.40819993       0.00077288       0.00054597      -0.00000033
Te       6.14059030       4.34205367       7.40820006      -0.00077457      -0.00054643       0.00000102
Te       5.20885819       1.70671658       5.79439260      -0.00038712       0.00054678       0.00066986
Te       3.34539437       4.34205359       9.02200730       0.00038757      -0.00054665      -0.00066953
Te       3.34539439       4.34205305       5.79439233       0.00038709      -0.00054757       0.00066883
Te       5.20885846       1.70671623       9.02200730      -0.00038666       0.00054687      -0.00067104
