9
Lattice="5.830032294731122 2.920048754805482e-07 3.3659707286001583 1.9433446907506313 5.496607325878367 3.365970179189773 3.516601189082409e-07 -4.2422633163997136e-07 6.73194084810691" Properties=species:S:1:pos:R:3:forces:R:3 energy=-22.58382797241211 free_energy=-22.58382797241211 stress="-9.694279469840694e-06 -1.8487953923340683e-07 -1.2918630432068312e-07 -1.8487953923340683e-07 -1.0019596629717853e-05 -4.6584435864360785e-08 -1.2918630432068312e-07 -4.6584435864360785e-08 -1.0051883691630792e-05" pbc="T T T"
Zn       1.94334752       1.37415028       3.36596978      -0.00000230       0.00000141      -0.00000213
Zn       5.83003285       4.12245506      10.09790897       0.00000239       0.00000024       0.00000072
Mg      -0.00000044      -0.00000021      -0.00000029       0.00000113       0.00000257       0.00000133
Se       2.31643746       1.63796575       6.73193724       0.00235463       0.00165221      -0.00001580
Se       5.45693692       3.85863999       6.73193888      -0.00235020      -0.00165484      -0.00000767
Se       4.67181119       1.63797118       5.37206752      -0.00118158       0.00166094       0.00204110
Se       3.10156826       3.85863823       8.09181882       0.00119107      -0.00166309      -0.00202769
Se       3.10156346       3.85863733       5.37206579       0.00117130      -0.00166342       0.00203655
Se       4.67181210       1.63797115       8.09182028      -0.00118642       0.00166398      -0.00202644
