9
Lattice="6.058228517681618 -4.572409982943079e-07 3.4977203403080215 2.0194090653479786 5.711753108896769 3.4977203566843658 5.897515527218323e-08 6.175890575293983e-08 6.9954405784676545" Properties=species:S:1:pos:R:3:forces:R:3 energy=-28.754613876342773 free_energy=-28.754613876342773 stress="-2.7712518203770742e-05 -6.241064909318084e-08 1.2319593345466728e-08 -6.241064909318084e-08 -2.7696112738340162e-05 -3.0332657274811936e-08 1.2319593345466728e-08 -3.0332657274811936e-08 -2.762768963293638e-05" pbc="T T T"
Zn       2.01940941       1.42793792       3.49772021       0.00000001      -0.00000111       0.00000006
Zn       6.05822830       4.28381409      10.49316123       0.00000028      -0.00000081       0.00000054
Mn       0.00000013      -0.00000078       0.00000037       0.00000097       0.00001419       0.00000135
Te       2.06837955       1.46256533       6.99544038       0.00030032       0.00021285       0.00000062
Te       6.00925900       4.24918825       6.99544047      -0.00030878      -0.00021744      -0.00000016
Te       5.02403792       1.46256506       5.28899093      -0.00014822       0.00020953       0.00025620
Te       3.05359883       4.24918776       8.70189088       0.00015186      -0.00021473      -0.00026320
Te       3.05359898       4.24918756       5.28899026       0.00015081      -0.00021178       0.00026014
Te       5.02403835       1.46256571       8.70189046      -0.00014721       0.00020933      -0.00025561
