9
Lattice="4.445057655430431 -3.639682901880123e-08 2.5663553396737804 1.4816858807142634 4.190840483472087 2.5663552879096323 2.2858984319451254e-08 -4.7234133224924633e-08 5.132710639754643" Properties=species:S:1:pos:R:3:forces:R:3 energy=-33.24507141113281 free_energy=-33.24507141113281 stress="-0.0002044243592536077 4.204931514095733e-08 -4.5448217633747845e-08 4.204931514095733e-08 -0.00020440381194930524 3.421599359398897e-08 -4.5448217633747845e-08 3.421599359398897e-08 -0.00020428377320058644" pbc="T T T"
Zn       1.48168602       1.04771069       2.56635535       0.00000157       0.00000298       0.00000073
Zn       4.44505785       3.14312993       7.69906551       0.00000105      -0.00000317      -0.00000141
Mg      -0.00000017      -0.00000011       0.00000002       0.00000097      -0.00000154       0.00000340
O        1.58568960       1.12125197       5.13271067      -0.00525612      -0.00371577      -0.00000057
O        4.34105417       3.06958854       5.13271080       0.00525546       0.00371660       0.00000161
O        3.65221283       1.12125177       3.93960273       0.00262821      -0.00371478      -0.00455138
O        2.27453050       3.06958855       6.32581859      -0.00262859       0.00371377       0.00455064
O        2.27453036       3.06958844       3.93960276      -0.00262959       0.00371574      -0.00455359
O        3.65221310       1.12125177       6.32581866       0.00262713      -0.00371404       0.00455041
