9
Lattice="5.641858518297157 -1.0645513430136917e-07 3.25732857757419 1.8806194642865908 5.319195076371916 3.2573284761550245 1.0635307180054291e-07 -4.900964630402141e-08 6.514656970939497" Properties=species:S:1:pos:R:3:forces:R:3 energy=-22.94183349609375 free_energy=-22.94183349609375 stress="3.840389763354324e-05 -2.7712172112615008e-08 -1.0708555819860521e-08 -2.7712172112615008e-08 3.843934973701835e-05 -1.0236075098646324e-08 -1.0708555819860521e-08 -1.0236075098646324e-08 3.848124106298201e-05" pbc="T T T"
Zn       1.88061911       1.32979801       3.25732943      -0.00000368      -0.00000386       0.00000588
Zn       5.64186032       3.98939678       9.77198352       0.00001117       0.00000378      -0.00001438
Mg       0.00000059      -0.00000036       0.00000057      -0.00000593       0.00000399      -0.00000649
S        2.01316780       1.42352447       6.51465680      -0.00042532      -0.00029721      -0.00000227
S        5.50930993       3.89567045       6.51465954       0.00042518       0.00030285       0.00001164
S        4.63527434       1.42352419       5.00078397       0.00021105      -0.00030474      -0.00036510
S        2.88720347       3.89567108       8.02852966      -0.00021420       0.00030769       0.00036422
S        2.88720222       3.89567043       5.00078311      -0.00021759       0.00029591      -0.00036241
S        4.63527454       1.42352452       8.02852948       0.00021923      -0.00030844       0.00036893
