9
Lattice="6.0432834130602595 -1.598350330474705e-07 3.489091478054873 2.014427632103997 5.697662863452591 3.4890915153899806 -5.28889579865082e-09 4.198625136540952e-08 6.978182965270423" Properties=species:S:1:pos:R:3:forces:R:3 energy=-25.22267723083496 free_energy=-25.22267723083496 stress="0.0001124736518249847 -3.821633143274994e-08 -2.4332325043729952e-09 -3.821633143274994e-08 0.0001125286435126327 -3.83432796624561e-09 -2.4332325043729952e-09 -3.83432796624561e-09 0.0001125031994888559" pbc="T T T"
Zn       2.01442801       1.42441607       3.48909127       0.00000065       0.00000080      -0.00000135
Zn       6.04328324       4.27324671      10.46727443      -0.00000011      -0.00000053      -0.00000027
Ni      -0.00000023      -0.00000017      -0.00000222       0.00000146       0.00000068       0.00001908
Te       2.10590932       1.48910367       6.97818295      -0.00695814      -0.00491939      -0.00000106
Te       5.95180239       4.20855924       6.97818282       0.00695655       0.00491829      -0.00000153
Te       4.99032797       1.48910500       5.31286350       0.00348204      -0.00492291      -0.00603144
Te       3.06738270       4.20855872       8.64350379      -0.00347704       0.00491792       0.00602413
Te       3.06738293       4.20855781       5.31286348      -0.00348190       0.00492293      -0.00603162
Te       4.99032783       1.48910401       8.64350378       0.00347651      -0.00491779       0.00602408
