9
Lattice="5.9882307676976385 -3.516898819806361e-08 3.4573066011434994 1.9960768640017879 5.645758102130291 3.457306645148681 -6.282323961873892e-08 9.47242068916522e-09 6.9146133111000605" Properties=species:S:1:pos:R:3:forces:R:3 energy=-33.4100341796875 free_energy=-33.4100341796875 stress="0.0001020730342133902 -4.067894909809411e-09 2.4125409225916883e-08 -4.067894909809411e-09 0.00010207598097622395 -2.5866979669331158e-08 2.4125409225916883e-08 -2.5866979669331158e-08 0.00010207718150923029" pbc="T T T"
Zn       1.99607692       1.41143954       3.45730669       0.00000011      -0.00000031       0.00000006
Zn       5.98823064       4.23431850      10.37191992       0.00000002       0.00000008      -0.00000010
Nb       0.00000017      -0.00000027       0.00000005      -0.00000101       0.00000456       0.00000070
Se       2.03910169       1.44186278       6.91461320      -0.00173697      -0.00122802      -0.00000018
Se       5.94520587       4.20389543       6.91461303       0.00173596       0.00122768      -0.00000004
Se       4.96868003       1.44186251       5.22322054       0.00086784      -0.00122796      -0.00150392
Se       3.01562756       4.20389562       8.60600626      -0.00086700       0.00122534       0.00150114
Se       3.01562760       4.20389551       5.22322040      -0.00086828       0.00122804      -0.00150339
Se       4.96867982       1.44186265       8.60600608       0.00086933      -0.00122937       0.00150568
