9
Lattice="4.31138972373342 -1.5424166882530907e-08 2.489182017507858 1.4371298681998532 4.06481730506106 2.4891820611022935 -5.379448659890241e-08 1.53535889342137e-08 4.978364128190539" Properties=species:S:1:pos:R:3:forces:R:3 energy=-34.122283935546875 free_energy=-34.122283935546875 stress="-1.732674536469858e-05 9.180980953260587e-08 -3.337163434480317e-09 9.180980953260587e-08 -1.733361932565458e-05 9.33846990847087e-08 -3.337163434480317e-09 9.33846990847087e-08 -1.7381928046233952e-05" pbc="T T T"
Zn       1.43713007       1.01620439       2.48918213       0.00000124       0.00000095       0.00000133
Zn       4.31138957       3.04861336       7.46754637      -0.00000159       0.00000022       0.00000132
Ni       0.00000012       0.00000003       0.00000035      -0.00000425      -0.00000834      -0.00001026
O        1.46051386       1.03273894       4.97836416      -0.00138424      -0.00098007       0.00000045
O        4.28800533       3.03207832       4.97836401       0.00139098       0.00098291      -0.00000179
O        3.58113291       1.03273885       3.75402387       0.00069297      -0.00097842      -0.00119489
O        2.16738679       3.03207806       6.20270381      -0.00069780       0.00098444       0.00120334
O        2.16738667       3.03207785       3.75402364      -0.00069364       0.00097847      -0.00120113
O        3.58113282       1.03273932       6.20270428       0.00069612      -0.00098016       0.00120162
