9
Lattice="4.609339000010111 -7.19150298570813e-08 2.6612033999621176 1.5364462858165349 4.345726280674721 2.661203364832728 8.826309534375574e-08 1.9386881609860276e-08 5.32240664704807" Properties=species:S:1:pos:R:3:forces:R:3 energy=-47.34895324707031 free_energy=-47.34895324707031 stress="0.00016397763101849705 -2.868506854269981e-08 6.816584630087164e-08 -2.868506854269981e-08 0.00016385583148803562 -5.8959258808499726e-08 6.816584630087164e-08 -5.8959258808499726e-08 0.00016401024186052382" pbc="T T T"
Zn       1.53644581       1.08643106       2.66120355      -0.00000336      -0.00000359       0.00000185
Zn       4.60933902       3.25929514       7.98360982       0.00000078       0.00000222      -0.00000463
Nb      -0.00000000      -0.00000001      -0.00000037      -0.00000070       0.00000020      -0.00000008
O        1.61711795       1.14347471       5.32240693      -0.00230777      -0.00163198       0.00000104
O        4.52866766       3.20225130       5.32240707       0.00231028       0.00163198       0.00000218
O        3.80078003       1.14347481       4.06166842       0.00115323      -0.00163198      -0.00199831
O        2.34500538       3.20225180       6.58314499      -0.00115263       0.00163150       0.00199664
O        2.34500526       3.20225152       4.06166865      -0.00115514       0.00163454      -0.00199652
O        3.80078053       1.14347463       6.58314513       0.00115454      -0.00163269       0.00199699
