9
Lattice="5.70367034101936 -1.4889207556829186e-07 3.2930152891612448 1.9012232738715504 5.377471860956797 3.2930153458999762 -1.1939131748593835e-07 -1.4931948512908087e-08 6.586030785114257" Properties=species:S:1:pos:R:3:forces:R:3 energy=-27.12119483947754 free_energy=-27.12119483947754 stress="-5.073079955764115e-05 -1.7364696347499375e-08 9.308862125578798e-09 -1.7364696347499375e-08 -5.0709364586509764e-05 -1.482035205668808e-08 9.308862125578798e-09 -1.482035205668808e-08 -5.0654223741730675e-05" pbc="T T T"
Zn       1.90122495       1.34436932       3.29301529       0.00000398       0.00000397      -0.00000021
Zn       5.70367000       4.03310341       9.87904753      -0.00000015      -0.00000045       0.00000294
Ni      -0.00000014      -0.00000002      -0.00000050      -0.00000430       0.00000093       0.00000789
Se       1.90951442       1.35023108       6.58603034       0.00212854       0.00150687      -0.00000048
Se       5.69537864       4.02724070       6.58603028      -0.00212875      -0.00150481      -0.00000038
Se       4.74891257       1.35023104       4.94670417      -0.00106199       0.00150174       0.00183764
Se       2.85598050       4.02724042       8.22535793       0.00106473      -0.00150785      -0.00184527
Se       2.85598109       4.02724024       4.94670360       0.00106293      -0.00150350       0.00183943
Se       4.74891188       1.35023065       8.22535729      -0.00106511       0.00150314      -0.00184163
