9
Lattice="5.3431668399721035 3.589105233819461e-08 3.0848791194095635 1.7810555441391516 5.037586758448681 3.0848792978511157 -3.1575590127461286e-08 1.9621818018090398e-07 6.1697582935096476" Properties=species:S:1:pos:R:3:forces:R:3 energy=-28.79205894470215 free_energy=-28.79205894470215 stress="-6.119831959949806e-05 -1.2424310114056425e-07 -2.3210887434288452e-08 -1.2424310114056425e-07 -6.117679731687531e-05 5.244411482863143e-08 -2.3210887434288452e-08 5.244411482863143e-08 -6.109468813519925e-05" pbc="T T T"
Zn       1.78105561       1.25939671       3.08488086      -0.00000209       0.00000183       0.00001131
Zn       5.34316661       3.77818840       9.25463702      -0.00000232      -0.00001924      -0.00000417
Ni       0.00000008       0.00000023      -0.00000074      -0.00000929      -0.00000672       0.00003249
S        1.77412739       1.25449899       6.16975816       0.00118983       0.00084788      -0.00000152
S        5.35009422       3.78308731       6.16975849      -0.00117421      -0.00083432       0.00000514
S        4.45610131       1.25450077       4.62131922      -0.00058833       0.00082546       0.00100288
S        2.66811984       3.78308839       7.71819692       0.00059509      -0.00083750      -0.00102758
S        2.66812055       3.78308773       4.62132002       0.00058141      -0.00082535       0.00101042
S        4.45610372       1.25449970       7.71819729      -0.00058967       0.00084782      -0.00102863
