9
Lattice="5.6305059779432725 -1.609448905086384e-07 3.250774358818552 1.8768351544552904 5.308492187083105 3.250774393088075 -1.2258488422253497e-07 -4.470918403625768e-08 6.501548929960359" Properties=species:S:1:pos:R:3:forces:R:3 energy=-27.52684783935547 free_energy=-27.52684783935547 stress="6.181906792335212e-05 -6.028537224977981e-09 -1.1933783738982129e-08 -6.028537224977981e-09 6.184857193147764e-05 -4.38271063885054e-09 -1.1933783738982129e-08 -4.38271063885054e-09 6.186663085827604e-05" pbc="T T T"
Zn       1.87683574       1.32712278       3.25077452       0.00000479      -0.00000004      -0.00000010
Zn       5.63050538       3.98136845       9.75232375      -0.00000322      -0.00000333       0.00000451
Pd       0.00000000      -0.00000018       0.00000114      -0.00000223       0.00000456      -0.00001684
S        1.93224667       1.36630504       6.50154915      -0.00096083      -0.00067949       0.00000177
S        5.57509419       3.94218735       6.50154853       0.00096047       0.00068003      -0.00000085
S        4.66438222       1.36630532       4.92414893       0.00047919      -0.00067610      -0.00083256
S        2.84295894       3.94218684       8.07894784      -0.00048169       0.00068074       0.00083607
S        2.84295895       3.94218696       4.92414898      -0.00047684       0.00067580      -0.00083047
S        4.66438186       1.36630551       8.07894790       0.00048038      -0.00068200       0.00083840
