9
Lattice="5.901680642945022 2.729855989101322e-08 3.407336663517176 1.967226924121576 5.564157321123537 3.407336633374979 4.829790113848717e-09 -3.3501318676803656e-08 6.8146733186689135" Properties=species:S:1:pos:R:3:forces:R:3 energy=-26.833402633666992 free_energy=-26.833402633666992 stress="-1.8561258912086487e-05 2.3670041926493468e-08 1.1786050357898148e-08 2.3670041926493468e-08 -1.854914808063768e-05 -1.2093382295574884e-08 1.1786050357898148e-08 -1.2093382295574884e-08 -1.8582300981506705e-05" pbc="T T T"
Zn       1.96722720       1.39103939       3.40733674       0.00000053       0.00000052       0.00000018
Zn       5.90168077       4.17311814      10.22200999      -0.00000110      -0.00000006      -0.00000100
Pd      -0.00000021       0.00000021       0.00000024       0.00000258      -0.00000381       0.00000107
Se       2.04905775       1.44890236       6.81467294      -0.00468987      -0.00331640      -0.00000194
Se       5.81984994       4.11525468       6.81467274       0.00469071       0.00331652      -0.00000119
Se       4.87715176       1.44890238       5.18187244       0.00234453      -0.00331455      -0.00405946
Se       2.99175609       4.11525457       8.44747427      -0.00234346       0.00331503       0.00406256
Se       2.99175554       4.11525492       5.18187272      -0.00234701       0.00331728      -0.00406131
Se       4.87715144       1.44890261       8.44747439       0.00234310      -0.00331436       0.00406128
