9
Lattice="6.437558264374819 6.37590733087566e-08 3.7167259401111465 2.1458528557043826 6.069387994553389 3.7167258694432515 4.998603593040204e-08 -5.120465251128963e-08 7.433451793643932" Properties=species:S:1:pos:R:3:forces:R:3 energy=-27.47991180419922 free_energy=-27.47991180419922 stress="-5.7866716815624386e-05 3.2551459305807384e-09 1.5687555698917777e-09 3.2551459305807384e-09 -5.7868634030455723e-05 -1.3626929806775934e-08 1.5687555698917777e-09 -1.3626929806775934e-08 -5.7856224884744734e-05" pbc="T T T"
Zn       2.14585280       1.51734670       3.71672603       0.00000005      -0.00000039       0.00000031
Zn       6.43755823       4.55204122      11.15017774      -0.00000023       0.00000025      -0.00000016
Sc       0.00000029      -0.00000004      -0.00000115      -0.00000222      -0.00000010       0.00000698
Te       2.34599192       1.65886669       7.43345173      -0.00165474      -0.00117074      -0.00000004
Te       6.23741916       4.41052135       7.43345171       0.00165597       0.00117048      -0.00000058
Te       5.26456221       1.65886670       5.74841475       0.00082829      -0.00117110      -0.00143406
Te       3.31884876       4.41052142       9.11848943      -0.00082599       0.00116872       0.00143153
Te       3.31884882       4.41052126       5.74841477      -0.00082824       0.00117158      -0.00143509
Te       5.26456251       1.65886671       9.11848943       0.00082713      -0.00116869       0.00143114
