9
Lattice="6.05340328734871 6.640257475224687e-08 3.4949338742189746 2.017801162030603 5.70720284916993 3.4949338679098356 -9.51213981516027e-10 -8.399714544611598e-09 6.989867750085506" Properties=species:S:1:pos:R:3:forces:R:3 energy=-28.229320526123047 free_energy=-28.229320526123047 stress="-6.0617912822635844e-05 8.386120242676043e-09 2.263135101543412e-08 8.386120242676043e-09 -6.061113526811823e-05 -1.7905788851635407e-08 2.263135101543412e-08 -1.7905788851635407e-08 -6.0622140154009685e-05" pbc="T T T"
Zn       2.01780265       1.42680082       3.49493387       0.00000322      -0.00000065      -0.00000013
Zn       6.05340378       4.28040290      10.48480179       0.00000114       0.00000202       0.00000090
Sc       0.00000031       0.00000001      -0.00000079      -0.00000331       0.00000016       0.00000619
Se       2.18353963       1.54399559       6.98986776       0.00029503       0.00020817      -0.00000113
Se       5.88766430       4.16320718       6.98986788      -0.00029455      -0.00020853      -0.00000166
Se       4.96163249       1.54399525       5.38593438      -0.00014847       0.00020836       0.00025420
Se       3.10957101       4.16320738       8.59380093       0.00014792      -0.00020888      -0.00025672
Se       3.10957119       4.16320738       5.38593517       0.00014784      -0.00020838       0.00025478
Se       4.96163244       1.54399520       8.59380094      -0.00014876       0.00020772      -0.00025646
