9
Lattice="5.719774041998725 3.674145075320036e-08 3.3023131770491707 1.9065914273416185 5.392654873015454 3.302313098468608 2.463080644395916e-09 -9.449949267170107e-08 6.604626349832196" Properties=species:S:1:pos:R:3:forces:R:3 energy=-29.972164154052734 free_energy=-29.972164154052734 stress="0.00013306470646057278 -1.752962885959164e-09 1.967606344521755e-08 -1.752962885959164e-09 0.00013307090557646006 -2.3395369197487526e-08 1.967606344521755e-08 -2.3395369197487526e-08 0.0001330451195826754" pbc="T T T"
Zn       1.90659183       1.34816387       3.30231292       0.00000169       0.00000038      -0.00000070
Zn       5.71977381       4.04449065       9.90693994      -0.00000182      -0.00000082       0.00000139
Sc       0.00000046      -0.00000066      -0.00000026      -0.00000416       0.00000748       0.00000268
S        2.03414453       1.43835744       6.60462562      -0.00403225      -0.00285192       0.00000009
S        5.59222146       3.95429720       6.60462561       0.00403292       0.00284965      -0.00000113
S        4.70270194       1.43835764       5.06393451       0.00201777      -0.00285212      -0.00349369
S        2.92366354       3.95429843       8.14531869      -0.00201184       0.00284933       0.00348870
S        2.92366337       3.95429721       5.06393401      -0.00201569       0.00284929      -0.00349283
S        4.70270097       1.43835748       8.14531941       0.00201324      -0.00285123       0.00349543
