9
Lattice="4.247861884901056 -3.0626667693254344e-08 2.4525043247967147 1.4159539755817925 4.004922168590893 2.452504250624711 6.94719692565499e-08 -4.17176519391918e-08 4.905008529264444" Properties=species:S:1:pos:R:3:forces:R:3 energy=-40.623085021972656 free_energy=-40.623085021972656 stress="-4.273690501577221e-05 4.890688387604314e-08 2.689680478340506e-08 4.890688387604314e-08 -4.2978594137821347e-05 -3.5239143159060404e-08 2.689680478340506e-08 -3.5239143159060404e-08 -4.282033842173405e-05" pbc="T T T"
Zn       1.41595401       1.00123061       2.45250473       0.00000089      -0.00000121      -0.00000034
Zn       4.24786254       3.00369131       7.35751274       0.00000058       0.00000066       0.00000002
S        0.00000012      -0.00000001      -0.00000012      -0.00000765       0.00000273       0.00000738
O        1.31040859       0.92659853       4.90500822       0.00086594       0.00062191      -0.00000276
O        4.35340737       3.07832382       4.90500890      -0.00086868      -0.00061738       0.00000141
O        3.59265769       0.92659851       3.58735114      -0.00043315       0.00062048       0.00075412
O        2.07115849       3.07832357       6.22266631       0.00043905      -0.00062370      -0.00076413
O        2.07115820       3.07832409       3.58735118       0.00043631      -0.00062132       0.00076175
O        3.59265737       0.92659806       6.22266573      -0.00043327       0.00061929      -0.00075877
