9
Lattice="4.44415915678991 3.722325124591096e-09 2.5658364325911682 1.4813863944970316 4.189993422502547 2.5658364232537774 -6.636535685449521e-09 -1.6128674429292163e-08 5.131672876677158" Properties=species:S:1:pos:R:3:forces:R:3 energy=-42.20404815673828 free_energy=-42.20404815673828 stress="0.0007956487243063748 2.691354836770188e-07 -1.9112017923816893e-07 2.691354836770188e-07 0.0007953622844070196 3.597755267037428e-07 -1.9112017923816893e-07 3.597755267037428e-07 0.0007952334126457572" pbc="T T T"
Zn       1.48138652       1.04749850       2.56583644       0.00000001      -0.00000077       0.00000010
Zn       4.44415894       3.14249496       7.69750940      -0.00000017       0.00000010       0.00000051
Sc      -0.00000011      -0.00000015       0.00000004      -0.00000180       0.00001112      -0.00000452
O        1.59737005       1.12951122       5.13167284      -0.00535619      -0.00378925       0.00000006
O        4.32817575       3.06048213       5.13167274       0.00535214       0.00378478      -0.00000023
O        3.64547406       1.12951124       3.94919938       0.00267649      -0.00378570      -0.00463694
O        2.28007144       3.06048238       6.31414625      -0.00267664       0.00378460       0.00463444
O        2.28007145       3.06048241       3.94919932      -0.00266621       0.00377110      -0.00461966
O        3.64547407       1.12951095       6.31414647       0.00267214      -0.00377634       0.00462675
