9
Lattice="6.254615538593547 6.252955737014165e-09 3.6111039326575507 2.0848718054056774 5.896908017146301 3.6111040135227466 -5.910937525455157e-08 5.7242557073920896e-08 7.222207967695567" Properties=species:S:1:pos:R:3:forces:R:3 energy=-28.851192474365234 free_energy=-28.851192474365234 stress="-0.00011329629342071712 3.133563852841803e-09 -5.862311525106634e-09 3.133563852841803e-09 -0.00011329786502756178 1.940337313044438e-08 -5.862311525106634e-09 1.940337313044438e-08 -0.00011330848064972088" pbc="T T T"
Zn       2.08487216       1.47422702       3.61110392       0.00000046      -0.00000033       0.00000037
Zn       6.25461552       4.42268090      10.83331180       0.00000021       0.00000005       0.00000005
Ti       0.00000016      -0.00000029       0.00000028      -0.00000004       0.00000349      -0.00000258
Te       2.21455998       1.56593050       7.22220802       0.00051685       0.00036476       0.00000042
Te       6.12492679       4.33097757       7.22220787      -0.00051461      -0.00036478      -0.00000003
Te       5.14733514       1.56593072       5.52896927      -0.00025875       0.00036421       0.00044692
Te       3.19215215       4.33097737       8.91544656       0.00025655      -0.00036545      -0.00044609
Te       3.19215186       4.33097790       5.52896926       0.00025839      -0.00036705       0.00044902
Te       5.14733539       1.56593062       8.91544665      -0.00025908       0.00036514      -0.00044815
