9
Lattice="4.4811948256927066 3.204135377031935e-08 2.587218918872972 1.49373168745626 4.224910750463295 2.587218834551335 1.8647503365747695e-07 2.8585221891280395e-08 5.17443751476167" Properties=species:S:1:pos:R:3:forces:R:3 energy=-44.964134216308594 free_energy=-44.964134216308594 stress="-2.625261367938947e-05 2.1195052823941296e-08 8.007229546080907e-09 2.1195052823941296e-08 -2.6103782147401944e-05 -1.2984186170683643e-08 8.007229546080907e-09 -1.2984186170683643e-08 -2.6003293896792457e-05" pbc="T T T"
Zn       1.49373148       1.05622753       2.58721905      -0.00000069      -0.00000249       0.00000131
Zn       4.48119424       3.16868369       7.76165622      -0.00000660       0.00000584      -0.00000192
Ti       0.00000016       0.00000026       0.00000010       0.00000020      -0.00000218      -0.00000218
O        1.54317421       1.09118819       5.17443769      -0.00079566      -0.00056589       0.00000001
O        4.43175289       3.13372225       5.17443784       0.00080150       0.00056443       0.00000003
O        3.70960802       1.09118846       3.92364632       0.00039792      -0.00056237      -0.00069070
O        2.26531967       3.13372218       6.42522878      -0.00039709       0.00056586       0.00069499
O        2.26531858       3.13372250       3.92364647      -0.00039870       0.00056431      -0.00069106
O        3.70960802       1.09118816       6.42522853       0.00039956      -0.00056762       0.00068921
