9
Lattice="5.946812432579544 -7.543877639034711e-08 3.433393902893793 1.98227078821791 5.606708462030162 3.433393818919781 3.8136831691929695e-08 -7.58799163011324e-08 6.86678773973261" Properties=species:S:1:pos:R:3:forces:R:3 energy=-31.315372467041016 free_energy=-31.315372467041016 stress="0.00021666064276359975 -2.843447077793826e-08 4.414224008542078e-08 -2.843447077793826e-08 0.00021666726388502866 -6.143834951899407e-08 4.414224008542078e-08 -6.143834951899407e-08 0.00021668757835868746" pbc="T T T"
Zn       1.98227103       1.40167740       3.43339384       0.00000034       0.00000047      -0.00000011
Zn       5.94681230       4.20503128      10.30018157      -0.00000064       0.00000050      -0.00000043
Ti       0.00000003       0.00000025      -0.00000002      -0.00000355      -0.00000289      -0.00000227
Se       2.01532402       1.42504876       6.86678776      -0.00738208      -0.00521906       0.00000004
Se       5.91375933       4.18165906       6.86678781       0.00738438       0.00522133       0.00000031
Se       4.93915031       1.42504887       5.17871583       0.00369145      -0.00521981      -0.00639371
Se       2.98993297       4.18165904       8.55485972      -0.00369155       0.00522112       0.00639391
Se       2.98993299       4.18165914       5.17871585      -0.00369356       0.00522359      -0.00639769
Se       4.93915007       1.42504945       8.55485949       0.00369518      -0.00522534       0.00639999
