9
Lattice="5.579279418899265 3.2945457622893374e-07 3.22119808323899 1.859760038587564 5.260195232987831 3.2211982189017285 -1.7585734977534527e-07 4.180232691722764e-08 6.442396471071821" Properties=species:S:1:pos:R:3:forces:R:3 energy=-33.47685241699219 free_energy=-33.47685241699219 stress="0.0001020392301143147 1.3003104015751887e-07 -9.383608556845502e-08 1.3003104015751887e-07 0.00010190568718826398 8.653257310697882e-08 -9.383608556845502e-08 8.653257310697882e-08 0.00010184805432800204" pbc="T T T"
Zn       1.85975965       1.31504936       3.22119805      -0.00000070       0.00000259       0.00000043
Zn       5.57927909       3.94514763       9.66359371      -0.00000240       0.00000501      -0.00000837
Ti      -0.00000085      -0.00000039      -0.00000078       0.00000899       0.00000172       0.00000530
S        1.90448258       1.34667270       6.44239654      -0.00586134      -0.00414580       0.00000053
S        5.53455724       3.91352373       6.44239725       0.00585225       0.00413871       0.00000344
S        4.62703826       1.34667154       4.87052714       0.00292571      -0.00414068      -0.00506711
S        2.81200128       3.91352284       8.01426604      -0.00292315       0.00413662       0.00507212
S        2.81200022       3.91352380       4.87052691      -0.00292347       0.00413370      -0.00506335
S        4.62703971       1.34667116       8.01426621       0.00292404      -0.00413209       0.00505739
