9
Lattice="5.873678673362417 -5.236944087490853e-08 3.3911699340258354 1.9578928446433754 5.537756894217561 3.3911699290081994 2.9849770820162904e-09 -4.034619975693255e-09 6.782339862881533" Properties=species:S:1:pos:R:3:forces:R:3 energy=-31.5496768951416 free_energy=-31.5496768951416 stress="4.366706889413763e-06 -2.7111552114433835e-08 1.0176933740169147e-09 -2.7111552114433835e-08 4.4612456804316025e-06 4.5599861664413766e-09 1.0176933740169147e-09 4.5599861664413766e-09 4.394704774313141e-06" pbc="T T T"
Zn       1.95789323       1.38443939       3.39116985       0.00000153      -0.00000034      -0.00000009
Zn       5.87367847       4.15331730      10.17350976       0.00000033      -0.00000068      -0.00000075
V       -0.00000000      -0.00000041      -0.00000015      -0.00000019       0.00000043      -0.00000026
Se       1.95936738       1.38548198       6.78234002      -0.00297612      -0.00210327       0.00000082
Se       5.87220415       4.15227494       6.78234003       0.00297551       0.00210260       0.00000072
Se       4.89399438       1.38548214       5.08803216       0.00148654      -0.00210410      -0.00257793
Se       2.93757700       4.15227487       8.47664737      -0.00148746       0.00210513       0.00257604
Se       2.93757706       4.15227507       5.08803235      -0.00148713       0.00210451      -0.00257628
Se       4.89399445       1.38548208       8.47664743       0.00148694      -0.00210445       0.00257753
