9
Lattice="5.5662528827159825 -3.87874399729479e-10 3.213677599099582 1.8554176274067284 5.247913598286127 3.213677598752434 -1.1028737120868527e-09 -1.2050149610753223e-09 6.427355200109396" Properties=species:S:1:pos:R:3:forces:R:3 energy=-34.14651107788086 free_energy=-34.14651107788086 stress="-0.0004502509837038815 -7.255057887789462e-09 -7.401473323120911e-10 -7.255057887789462e-09 -0.0004502346564549953 4.536456987835891e-09 -7.401473323120911e-10 4.536456987835891e-09 -0.0004501794173847884" pbc="T T T"
Zn       1.85541767       1.31197834       3.21367758       0.00000034      -0.00000080      -0.00000002
Zn       5.56625288       3.93593522       9.64103277       0.00000071       0.00000029       0.00000056
V       -0.00000009      -0.00000007       0.00000003       0.00000119       0.00000312      -0.00000123
S        1.83366224       1.29659507       6.42735517      -0.00265539      -0.00187764      -0.00000026
S        5.58800833       3.95131863       6.42735520       0.00265145       0.00187591      -0.00000029
S        4.64942173       1.29659506       4.80167567       0.00132704      -0.00187680      -0.00229973
S        2.77224876       3.95131852       8.05303470      -0.00132680       0.00187707       0.00229889
S        2.77224877       3.95131859       4.80167573      -0.00132594       0.00187644      -0.00229806
S        4.64942177       1.29659505       8.05303472       0.00132754      -0.00187770       0.00229990
