9
Lattice="4.431949449413416 -7.31566499715597e-08 2.558787011108418 1.4773164604792095 4.178481946138421 2.5587869308899336 -4.1323169824455274e-08 -1.2746707445379638e-07 5.117574093790683" Properties=species:S:1:pos:R:3:forces:R:3 energy=-43.625946044921875 free_energy=-43.625946044921875 stress="-3.90272107324563e-05 -5.4120221193443285e-08 1.3783788332943914e-08 -5.4120221193443285e-08 -3.9052480133250356e-05 3.415689420194212e-08 1.3783788332943914e-08 3.415689420194212e-08 -3.900836600223556e-05" pbc="T T T"
Zn       1.47731603       1.04462015       2.55878709      -0.00000221       0.00000090       0.00000020
Zn       4.43194884       3.13386148       7.67636040      -0.00000374      -0.00000087      -0.00000349
V        0.00000010       0.00000013      -0.00000003       0.00000012      -0.00000191       0.00000118
O        1.50889974       1.06695332       5.11757411       0.00081539       0.00057518       0.00000086
O        4.40036633       3.11152856       5.11757412      -0.00081354      -0.00057495       0.00000098
O        3.67749973       1.06695338       3.86553245      -0.00040463       0.00057375       0.00070632
O        2.23176668       3.11152844       6.36961585       0.00040871      -0.00057244      -0.00070494
O        2.23176623       3.11152840       3.86553228       0.00040594      -0.00057441       0.00070739
O        3.67749967       1.06695303       6.36961583      -0.00040588       0.00057471      -0.00070804
