9
Lattice="6.132634261787758 2.2066316336854033e-08 3.5406777181711475 2.044211439797754 5.78190282959007 3.5406777209466185 4.1330989287919814e-08 3.262473385057769e-08 7.081355364754765" Properties=species:S:1:pos:R:3:forces:R:3 energy=-28.783414840698242 free_energy=-28.783414840698242 stress="-0.0002098292316077277 -1.99103178388782e-09 -5.467741814868532e-09 -1.99103178388782e-09 -0.00020983957801945508 2.559134948398878e-08 -5.467741814868532e-09 2.559134948398878e-08 -0.00020981181296519935" pbc="T T T"
Zn       2.04421081       1.44547502       3.54067750      -0.00000118      -0.00000099       0.00000033
Zn       6.13263336       4.33642734      10.62203377      -0.00000135      -0.00000021       0.00000070
V       -0.00000093      -0.00000110      -0.00000053       0.00000304       0.00000301       0.00000082
Te       2.17784073       1.53996559       7.08135575      -0.00621743      -0.00439703       0.00000012
Te       5.99900530       4.24193816       7.08135533       0.00621492       0.00439547       0.00000017
Te       5.04371461       1.53996612       5.42674284       0.00310969      -0.00439702      -0.00538534
Te       3.13313210       4.24193696       8.73596804      -0.00310835       0.00439579       0.00538425
Te       3.13313210       4.24193755       5.42674276      -0.00310779       0.00439563      -0.00538388
Te       5.04371491       1.53996591       8.73596775       0.00310838      -0.00439462       0.00538274
