9
Lattice="4.325198858989094 1.977443746546339e-08 2.497154757640951 1.4417329781296622 4.077836789476197 2.497154746400309 -5.054600961439916e-08 -4.950833422861858e-08 4.994309602830155" Properties=species:S:1:pos:R:3:forces:R:3 energy=-70.01515197753906 free_energy=-70.01515197753906 stress="-0.00030630151741206646 2.5958666327596802e-08 -1.2538312432752718e-07 2.5958666327596802e-08 -0.00030547866481356323 2.0524115029729728e-07 -1.2538312432752718e-07 2.0524115029729728e-07 -0.0003060324233956635" pbc="T T T"
Zr       1.44173250       1.01945911       2.49715515      -0.00001736       0.00000050       0.00000834
Zr       4.32519821       3.05837744       7.49146451      -0.00001862      -0.00000111       0.00000756
C        0.00002947       0.00000107      -0.00001611       0.00118595       0.00003549      -0.00064413
N        1.34428903       0.95055589       4.99430950       0.00369585       0.00260925      -0.00000072
N        4.42262292       3.12726699       4.99430918      -0.00448656      -0.00317430      -0.00000488
N        3.65304499       0.95056904       3.66135934      -0.00222737       0.00315273       0.00386119
N        2.11387790       3.12728060       6.32727545       0.00186247      -0.00262630      -0.00322068
N        2.11388234       3.12727397       3.66135152       0.00204855      -0.00289023       0.00353932
N        3.65304969       0.95056299       6.32726740      -0.00204247       0.00289428      -0.00354552
