9
Lattice="4.2924978235848625 1.1734865637179847e-07 2.478274846358243 1.4308327029714007 4.0470058625258245 2.478274873252815 1.6396213334016033e-08 4.45328746333484e-08 4.956549664317399" Properties=species:S:1:pos:R:3:forces:R:3 energy=-73.09646606445312 free_energy=-73.09646606445312 stress="6.148154625407187e-06 5.74343506087871e-09 3.274337245784409e-08 5.74343506087871e-09 6.318083705991739e-06 1.8817742919452485e-09 3.274337245784409e-08 1.8817742919452485e-09 6.084726919652894e-06" pbc="T T T"
Zr       1.43083267       1.01175158       2.47827477       0.00000051      -0.00000001       0.00000033
Zr       4.29249784       3.03525449       7.43482455       0.00000143       0.00000004      -0.00000057
Co      -0.00000009      -0.00000007       0.00000018       0.00000614       0.00000440      -0.00000510
N        1.46327805       1.03469395       4.95654973      -0.00032055      -0.00022740      -0.00000114
N        4.26005255       3.01231215       4.95654984       0.00031272       0.00022279       0.00000063
N        3.56085887       1.03469397       3.74551089       0.00015671      -0.00022285      -0.00027432
N        2.16247163       3.01231193       6.16758834      -0.00016043       0.00022585       0.00027685
N        2.16247182       3.01231201       3.74551083      -0.00015725       0.00022405      -0.00027651
N        3.56085880       1.03469410       6.16758838       0.00016131      -0.00022666       0.00027946
