9
Lattice="4.308832134380806 -5.430673917041261e-08 2.4877055377915323 1.4362773667103843 4.062405809090377 2.4877054688830573 8.852292357508075e-10 -8.376934560574503e-08 4.975411074049791" Properties=species:S:1:pos:R:3:forces:R:3 energy=-76.31854248046875 free_energy=-76.31854248046875 stress="7.101205119397491e-05 -1.605004662508236e-08 -6.544301101030214e-08 -1.605004662508236e-08 7.121525413822383e-05 -9.616127449874057e-09 -6.544301101030214e-08 -9.616127449874057e-09 7.094227476045489e-05" pbc="T T T"
Zr       1.43627741       1.01560132       2.48770552       0.00000006       0.00000165       0.00000106
Zr       4.30883225       3.04680434       7.46311661       0.00000100      -0.00000067      -0.00000086
Cr      -0.00000009      -0.00000001      -0.00000002       0.00000119       0.00000332      -0.00000012
N        1.49868410       1.05972956       4.97541101      -0.00295687      -0.00209171       0.00000089
N        4.24642554       3.00267606       4.97541094       0.00295532       0.00209039       0.00000129
N        3.55949012       1.05972957       3.78560397       0.00147820      -0.00209033      -0.00255966
N        2.18561932       3.00267603       6.16521818      -0.00147760       0.00208879       0.00255775
N        2.18561931       3.00267616       3.78560398      -0.00147831       0.00208938      -0.00255859
N        3.55949019       1.05972960       6.16521818       0.00147742      -0.00209075       0.00255895
