9
Lattice="4.324211865464038 1.6173636270941884e-08 2.4965848957325756 1.4414039350004986 4.076906200154148 2.4965849570520886 -4.8215171520215366e-08 4.1007485871970157e-08 4.99316987497627" Properties=species:S:1:pos:R:3:forces:R:3 energy=-74.34051513671875 free_energy=-74.34051513671875 stress="-0.00011919827375095338 -2.17259774615286e-08 1.8407654067686963e-08 -2.17259774615286e-08 -0.00011918762902496383 -6.513974426525238e-08 1.8407654067686963e-08 -6.513974426525238e-08 -0.0001191650953842327" pbc="T T T"
Zr       1.44140375       1.01922685       2.49658492       0.00000108      -0.00000154       0.00000155
Zr       4.32421178       3.05767970       7.48975478       0.00000009       0.00000089       0.00000019
Fe      -0.00000011      -0.00000033      -0.00000011       0.00000182      -0.00000146       0.00000104
N        1.50025978       1.06084394       4.99316992      -0.00132954      -0.00093883       0.00000016
N        4.26535600       3.01606236       4.99316981       0.00132734       0.00093895       0.00000034
N        3.57408199       1.06084396       3.79584819       0.00066400      -0.00093859      -0.00115079
N        2.19153381       3.01606227       6.19049169      -0.00066406       0.00093937       0.00114918
N        2.19153389       3.01606231       3.79584805      -0.00066495       0.00094020      -0.00115210
N        3.57408199       1.06084407       6.19049152       0.00066391      -0.00093901       0.00115091
