9
Lattice="4.3251542190940375 6.32812276894163e-08 2.4971289097088047 1.4417180911474228 4.077794709504107 2.4971289816686664 -6.192917469861443e-08 4.434192941087534e-08 4.994257926682093" Properties=species:S:1:pos:R:3:forces:R:3 energy=-67.51873779296875 free_energy=-67.51873779296875 stress="-1.267900279344758e-05 1.0267715566669722e-07 -7.025014525652296e-08 1.0267715566669722e-07 -1.2332593541941606e-05 1.5293511523850611e-07 -7.025014525652296e-08 1.5293511523850611e-07 -1.2757365766447037e-05" pbc="T T T"
Zr       1.44171830       1.01944867       2.49712912       0.00000020      -0.00000092      -0.00000037
Zr       4.32515415       3.05834579       7.49138718       0.00000176      -0.00000006       0.00000026
Ge       0.00000026       0.00000013       0.00000020      -0.00001028      -0.00000116      -0.00000368
N        1.51664395       1.07242936       4.99425772      -0.00062752      -0.00044364      -0.00000053
N        4.25022797       3.00536553       4.99425757       0.00063443       0.00044870      -0.00000180
N        3.56683217       1.07242979       3.81058113       0.00031453      -0.00044405      -0.00054723
N        2.20004010       3.00536518       6.17793440      -0.00031573       0.00044686       0.00054634
N        2.20004020       3.00536532       3.81058153      -0.00031340       0.00044024      -0.00054193
N        3.56683194       1.07242967       6.17793444       0.00031549      -0.00044608       0.00054651
