9
Lattice="4.404655153325229 5.197479889809211e-08 2.5430288754057013 1.4682183950417325 4.15274901092018 2.5430289419204546 -4.8398823478985745e-08 4.72404759993033e-08 5.0860578346406236" Properties=species:S:1:pos:R:3:forces:R:3 energy=-73.76372528076172 free_energy=-73.76372528076172 stress="-2.9832155632902868e-05 -9.337183115576408e-08 1.7225664228348592e-09 -9.337183115576408e-08 -2.9777134841424413e-05 -1.4350814581121085e-07 1.7225664228348592e-09 -1.4350814581121085e-07 -2.958558798127342e-05" pbc="T T T"
Zr       1.46821784       1.03818718       2.54302900      -0.00000275       0.00000063      -0.00000112
Zr       4.40465520       3.11456168       7.62908696       0.00000044      -0.00000025      -0.00000227
Hf      -0.00000006       0.00000016      -0.00000000      -0.00000004      -0.00000082       0.00001218
N        1.63623278       1.15699150       5.08605774       0.00460857       0.00326017       0.00000243
N        4.23664036       2.99575772       5.08605773      -0.00461483      -0.00326040       0.00000048
N        3.58653924       1.15699160       3.96004843      -0.00230125       0.00326061       0.00399697
N        2.28633455       2.99575772       6.21206745       0.00231019      -0.00326526      -0.00399935
N        2.28633489       2.99575764       3.96004824       0.00230452      -0.00325587       0.00399104
N        3.58653912       1.15699130       6.21206695      -0.00230417       0.00326154      -0.00399959
