9
Lattice="4.444502884362454 9.58375513089673e-08 2.566035078097623 1.4815010295267892 4.190317729944867 2.5660351166944286 2.458586558616112e-08 6.46560746222953e-08 5.132070113611259" Properties=species:S:1:pos:R:3:forces:R:3 energy=-76.43637084960938 free_energy=-76.43637084960938 stress="-4.177476057520835e-06 -8.008946394966188e-08 1.1089408502584774e-07 -8.008946394966188e-08 -4.522830295172753e-06 -1.918743492979047e-07 1.1089408502584774e-07 -1.918743492979047e-07 -4.310762960813008e-06" pbc="T T T"
Zr       1.48150099       1.04757972       2.56603508       0.00000010      -0.00000428      -0.00000012
Zr       4.44450280       3.14273856       7.69810528      -0.00000045      -0.00000254      -0.00000213
Mo      -0.00000003       0.00000009       0.00000001      -0.00000108      -0.00000112       0.00000746
N        1.60066001       1.13183769       5.13207015      -0.00035238      -0.00024784       0.00000037
N        4.32534402       3.05848017       5.13207016       0.00034761       0.00024617      -0.00000053
N        3.64417302       1.13183749       3.95224734       0.00017732      -0.00024593      -0.00030303
N        2.28183100       3.05848019       6.31189289      -0.00017238       0.00024843       0.00030124
N        2.28183108       3.05848003       3.95224727      -0.00017464       0.00025153      -0.00030661
N        3.64417288       1.13183766       6.31189293       0.00017536      -0.00024414       0.00030255
