9
Lattice="4.331243761370254 -3.2966137572490146e-08 2.5006448838518613 1.443747895379328 4.083535704575547 2.500644873453756 5.19820761454411e-08 2.4021852116614722e-08 5.001289677668125" Properties=species:S:1:pos:R:3:forces:R:3 energy=-76.25013732910156 free_energy=-76.25013732910156 stress="-0.00025512254796922207 -8.987899491330609e-08 1.989180553607639e-08 -8.987899491330609e-08 -0.0002551495563238859 5.66152884573512e-08 1.989180553607639e-08 5.66152884573512e-08 -0.00025505537632852793" pbc="T T T"
Zr       1.44374802       1.02088391       2.50064505      -0.00000033      -0.00000071      -0.00000217
Zr       4.33124381       3.06265185       7.50193445      -0.00000050      -0.00000071       0.00000193
Mn      -0.00000015       0.00000001       0.00000019       0.00000070      -0.00000109      -0.00000380
N        1.49003872       1.05361640       5.00128962       0.00319427       0.00225994      -0.00000127
N        4.28495301       3.02991928       5.00128977      -0.00319701      -0.00226155      -0.00000077
N        3.58622439       1.05361642       3.79105629      -0.00159693       0.00226113       0.00276709
N        2.18876730       3.02991916       6.21152313       0.00159696      -0.00225624      -0.00276315
N        2.18876725       3.02991925       3.79105630       0.00159854      -0.00225848       0.00276494
N        3.58622442       1.05361651       6.21152305      -0.00159523       0.00225738      -0.00276393
