9
Lattice="4.462134506288632 -2.5733806304029313e-08 2.576214638689005 1.4873781020486558 4.20694060610022 2.5762147122182912 -6.003605259016702e-08 4.760272135746136e-08 5.1524293813635085" Properties=species:S:1:pos:R:3:forces:R:3 energy=-73.57207489013672 free_energy=-73.57207489013672 stress="3.1469714940612903e-06 1.9491322333919925e-08 2.731460213567516e-08 1.9491322333919925e-08 3.1881027098279446e-06 -2.0850052351306658e-08 2.731460213567516e-08 -2.0850052351306658e-08 3.2900456972129177e-06" pbc="T T T"
Zr       1.48737801       1.05173521       2.57621480      -0.00000125      -0.00000053       0.00000081
Zr       4.46213443       3.15520558       7.72864389      -0.00000032      -0.00000026       0.00000018
Nb       0.00000006      -0.00000003      -0.00000008      -0.00000017      -0.00000088      -0.00000176
N        1.63049246       1.15293267       5.15242948      -0.00033116      -0.00023091       0.00000146
N        4.31901996       3.05400787       5.15242960       0.00033426       0.00023484       0.00000267
N        3.64688806       1.15293231       3.98826290       0.00016379      -0.00023568      -0.00028753
N        2.30262454       3.05400837       6.31659587      -0.00016516       0.00023580       0.00028777
N        2.30262475       3.05400805       3.98826262      -0.00016546       0.00023186      -0.00028968
N        3.64688791       1.15293245       6.31659590       0.00016439      -0.00023389       0.00028563
