9
Lattice="4.299753130214149 1.5271795138835735e-08 2.4824637714468505 1.4332510622769394 4.053846072521574 2.482463763697914 1.1855883172837827e-08 -1.1070888043331482e-09 4.9649275223587" Properties=species:S:1:pos:R:3:forces:R:3 energy=-70.04977416992188 free_energy=-70.04977416992188 stress="4.114264083909802e-05 -6.437885247123631e-08 -1.8886243680071857e-08 -6.437885247123631e-08 4.1211875213775784e-05 -3.781677193614996e-09 -1.8886243680071857e-08 -3.781677193614996e-09 4.117020216654055e-05" pbc="T T T"
Zr       1.43325080       1.01346138       2.48246384       0.00000010      -0.00000169      -0.00000125
Zr       4.29975342       3.04038453       7.44739125       0.00000033       0.00000111       0.00000276
Ni      -0.00000008       0.00000003       0.00000000       0.00000523       0.00000191      -0.00000632
N        1.49418105       1.05654553       4.96492756      -0.00123447      -0.00087279      -0.00000090
N        4.23882314       2.99730075       4.96492768       0.00123110       0.00086933      -0.00000074
N        3.55266269       1.05654539       3.77646250       0.00061648      -0.00086960      -0.00106707
N        2.18034151       2.99730064       6.15339239      -0.00061977       0.00087333       0.00107265
N        2.18034143       2.99730049       3.77646263      -0.00061750       0.00087097      -0.00107056
N        3.55266285       1.05654550       6.15339247       0.00061870      -0.00087249       0.00107142
