9
Lattice="4.460071677906142 3.158384374851419e-08 2.5750235411622677 1.4866906175799677 4.204995857241021 2.5750234917981687 1.1467792894347283e-07 2.0631113884366034e-08 5.150046883696556" Properties=species:S:1:pos:R:3:forces:R:3 energy=-67.91217041015625 free_energy=-67.91217041015625 stress="-0.0002885854337364435 5.942449021745233e-08 -5.307687800382155e-08 5.942449021745233e-08 -0.00028822969761677086 1.0576919606819501e-07 -5.307687800382155e-08 1.0576919606819501e-07 -0.0002885700960177928" pbc="T T T"
Zr       1.48669055       1.05124870       2.57502350      -0.00000078      -0.00000051       0.00000060
Zr       4.46007179       3.15374715       7.72507028       0.00000089      -0.00000170       0.00000059
Pt      -0.00000014      -0.00000003       0.00000007       0.00000597       0.00000301      -0.00000088
N        1.57599299       1.11439519       5.15004699       0.00044131       0.00031102       0.00000050
N        4.37076943       3.09060071       5.15004688      -0.00044644      -0.00031483      -0.00000147
N        3.67207535       1.11439532       3.93987344      -0.00022179       0.00031447       0.00038314
N        2.27468722       3.09060056       6.36022059       0.00022143      -0.00031400      -0.00038314
N        2.27468695       3.09060071       3.93987347       0.00021946      -0.00031078       0.00038278
N        3.67207544       1.11439534       6.36022044      -0.00021970       0.00031197      -0.00038111
