9
Lattice="4.287485127013017 2.5533753404292554e-08 2.475380574974554 1.4291617529035088 4.04227970624693 2.4753805406354097 6.83501026397262e-08 6.274120180618587e-09 4.950761031563278" Properties=species:S:1:pos:R:3:forces:R:3 energy=-73.01128387451172 free_energy=-73.01128387451172 stress="-0.0003332349588163197 2.235192368971184e-07 -5.707673889077114e-09 2.235192368971184e-07 -0.0003334998618811369 -7.054089223856863e-08 -5.707673889077114e-09 -7.054089223856863e-08 -0.0003337305970489979" pbc="T T T"
Zr       1.42916176       1.01056990       2.47538067      -0.00000013      -0.00000011      -0.00000083
Zr       4.28748528       3.03170999       7.42614186       0.00000045      -0.00000038       0.00000054
P       -0.00000011      -0.00000013      -0.00000030      -0.00000175       0.00000359       0.00000826
N        1.41102966       0.99774855       4.95076100      -0.00167751      -0.00118804      -0.00000062
N        4.30561713       3.04453122       4.95076095       0.00168228       0.00118923       0.00000050
N        3.58197037       0.99774851       3.69736783       0.00083482      -0.00118351      -0.00144887
N        2.13467658       3.04453117       6.20415437      -0.00083691       0.00118184       0.00144351
N        2.13467647       3.04453129       3.69736779      -0.00083619       0.00117791      -0.00144613
N        3.58197052       0.99774847       6.20415444       0.00083584      -0.00117958       0.00144207
