9
Lattice="4.706911059262095 -4.42634729742414e-08 2.7175364388473033 1.5689703210953598 4.437718207693624 2.7175364219770874 -9.54906904086628e-08 -8.818379906946283e-08 5.435073043089429" Properties=species:S:1:pos:R:3:forces:R:3 energy=-57.98057556152344 free_energy=-57.98057556152344 stress="-0.00043900174205191433 2.1901220748077321e-07 7.97099986016292e-08 2.1901220748077321e-07 -0.00043942450429312885 -4.21185326615614e-08 7.97099986016292e-08 -4.21185326615614e-08 -0.0004389236855786294" pbc="T T T"
Zr       1.56897207       1.10943147       2.71753637       0.00001051       0.00002043       0.00000222
Zr       4.70690911       3.32828615       8.15260919      -0.00001252      -0.00002353      -0.00000183
Pb      -0.00000004       0.00000017       0.00000014       0.00000248      -0.00000656       0.00001809
N        1.72308084       1.21840374       5.43507300      -0.00243711      -0.00170988       0.00000115
N        4.55280043       3.21931397       5.43507289       0.00243896       0.00170875       0.00000345
N        3.84536963       1.21840376       4.20976795       0.00121051      -0.00171006      -0.00212288
N        2.43051146       3.21931497       6.66037789      -0.00120312       0.00170481       0.00211191
N        2.43051161       3.21931451       4.20976833      -0.00121492       0.00171572      -0.00212264
N        3.84536996       1.21840330       6.66037809       0.00120530      -0.00169909       0.00211102
