9
Lattice="4.283110080291068 -1.6079463997578475e-07 2.4728546130928324 1.4277033247134487 4.038154759713165 2.472854411802395 -1.4408596609562683e-08 -2.5671786562782285e-07 4.945709251142074" Properties=species:S:1:pos:R:3:forces:R:3 energy=-66.93975830078125 free_energy=-66.93975830078125 stress="0.0004918215563520789 8.878615886942498e-08 -8.818945929078836e-08 8.878615886942498e-08 0.000492157822009176 7.191823669927544e-08 -8.818945929078836e-08 7.191823669927544e-08 0.000491816084831953" pbc="T T T"
Zr       1.42770335       1.00953875       2.47285466      -0.00000014      -0.00000160       0.00000107
Zr       4.28310982       3.02861570       7.41856368       0.00000056       0.00000074      -0.00000066
Pd      -0.00000018      -0.00000001      -0.00000011       0.00000838      -0.00000156       0.00000782
N        1.56583292       1.10721068       4.94570922       0.00091910       0.00064853       0.00000167
N        4.14498069       2.93094336       4.94570854      -0.00092334      -0.00065428      -0.00000152
N        3.50019333       1.10721100       3.82890547      -0.00046039       0.00065285       0.00079799
N        2.21062009       2.93094314       6.06251298       0.00046173      -0.00065279      -0.00079823
N        2.21061955       2.93094372       3.82890584       0.00045833      -0.00064799       0.00079489
N        3.50019373       1.10721063       6.06251273      -0.00046456       0.00065517      -0.00080216
