9
Lattice="4.451332985103053 -4.749478254209534e-08 2.5699783061415267 1.483777685045073 4.196756667093617 2.5699781881497743 5.0080577460943575e-08 -1.090974646027353e-07 5.139956525540942" Properties=species:S:1:pos:R:3:forces:R:3 energy=-78.51915740966797 free_energy=-78.51915740966797 stress="0.00011551362695172429 -1.3955653344055463e-07 -1.7485010772588794e-08 -1.3955653344055463e-07 0.00011550828639883548 -3.205308729548051e-08 -1.7485010772588794e-08 -3.205308729548051e-08 0.00011549508781172335" pbc="T T T"
Zr       1.48377778       1.04918903       2.56997832       0.00000076      -0.00000021      -0.00000092
Zr       4.45133297       3.14756744       7.70993491       0.00000029      -0.00000022       0.00000075
Re       0.00000022       0.00000008      -0.00000017      -0.00000131      -0.00000160       0.00000134
N        1.55800488       1.10167550       5.13995659       0.00060523       0.00042892       0.00000222
N        4.37710559       3.09508101       5.13995637      -0.00060475      -0.00042641      -0.00000016
N        3.67233040       1.10167560       3.91924995      -0.00029880       0.00042319       0.00051987
N        2.26278018       3.09508094       6.36066301       0.00030005      -0.00042629      -0.00052154
N        2.26278028       3.09508072       3.91924984       0.00029999      -0.00042427       0.00052023
N        3.67233069       1.10167559       6.36066317      -0.00030124       0.00042725      -0.00052238
