9
Lattice="4.367600536659626 1.5318357948145497e-07 2.521635081447909 1.4558669308824903 4.117813544609191 2.5216351838010183 -1.1358636497437194e-08 1.1732466566698043e-07 5.043270182569542" Properties=species:S:1:pos:R:3:forces:R:3 energy=-73.45833587646484 free_energy=-73.45833587646484 stress="0.0005000391975045204 5.054782548086223e-08 2.135699439520522e-08 5.054782548086223e-08 0.0005002538673579693 1.67610600954049e-08 2.135699439520522e-08 1.67610600954049e-08 0.0005001626559533179" pbc="T T T"
Zr       1.45586695       1.02945363       2.52163527       0.00000017       0.00000060       0.00000056
Zr       4.36760065       3.08836022       7.56490537       0.00000039      -0.00000017      -0.00000003
Ru       0.00000008      -0.00000003      -0.00000021      -0.00000072       0.00000077       0.00000408
N        1.52999275       1.08186832       5.04327033       0.00817645       0.00578076       0.00000090
N        4.29347481       3.03594549       5.04327016      -0.00817645      -0.00578082       0.00000008
N        3.60260400       1.08186832       3.84664740      -0.00408804       0.00577903       0.00708139
N        2.22086315       3.03594567       6.23989292       0.00409132      -0.00578475      -0.00708467
N        2.22086331       3.03594522       3.84664739       0.00408638      -0.00577915       0.00708145
N        3.60260435       1.08186836       6.23989295      -0.00409007       0.00578427      -0.00708318
