9
Lattice="4.363089141733662 -8.075286091266355e-08 2.519030577492672 1.4543629352807022 4.11355987952111 2.5190306395508877 -1.0915888422972516e-07 -1.1814967720051956e-09 5.038061344054047" Properties=species:S:1:pos:R:3:forces:R:3 energy=-71.04228973388672 free_energy=-71.04228973388672 stress="2.410865818092134e-05 -1.647085845490892e-08 3.837661921579638e-08 -1.647085845490892e-08 2.4095268599921837e-05 -6.227736548680696e-08 3.837661921579638e-08 -6.227736548680696e-08 2.4334904082934372e-05" pbc="T T T"
Zr       1.45436294       1.02838996       2.51903068       0.00000157      -0.00000004      -0.00000043
Zr       4.36308895       3.08516980       7.55709171      -0.00000045      -0.00000101       0.00000013
Rh      -0.00000004       0.00000010      -0.00000016       0.00000149       0.00000315       0.00002099
N        1.56172294       1.10430504       5.03806137      -0.00080049      -0.00056595      -0.00000072
N        4.25572897       3.00925470       5.03806138       0.00079811       0.00056362      -0.00000145
N        3.58222752       1.10430480       3.87152238       0.00040036      -0.00056809      -0.00069696
N        2.23522452       3.00925484       6.20460027      -0.00039703       0.00056177       0.00068682
N        2.23522439       3.00925482       3.87152261      -0.00040221       0.00056899      -0.00069767
N        3.58222762       1.10430514       6.20460028       0.00039810      -0.00056255       0.00068820
