9
Lattice="4.308829257478794 6.849328282571006e-08 2.487704015040189 1.4362764600981182 4.062403272112813 2.4877040559816543 -1.8594169455413576e-08 3.699478820967667e-08 4.975408062286419" Properties=species:S:1:pos:R:3:forces:R:3 energy=-72.55513000488281 free_energy=-72.55513000488281 stress="0.0002713731664698571 1.4635567424647888e-07 1.1339788841269183e-07 1.4635567424647888e-07 0.0002712020359467715 -4.713375023612798e-09 1.1339788841269183e-07 -4.713375023612798e-09 0.000271359778707847" pbc="T T T"
Zr       1.43627615       1.01560086       2.48770403       0.00000084      -0.00000061      -0.00000044
Zr       4.30882930       3.04680262       7.46311227      -0.00000052       0.00000115      -0.00000094
Si       0.00000010      -0.00000005      -0.00000033      -0.00000481       0.00000342       0.00001441
N        1.44407873       1.02111789       4.97540805       0.00006104       0.00004345      -0.00000138
N        4.30102696       3.04128552       4.97540800      -0.00005972      -0.00004262      -0.00000014
N        3.58679013       1.02111775       3.73831289      -0.00003165       0.00004750       0.00005233
N        2.15831562       3.04128562       6.21250361       0.00003570      -0.00005198      -0.00006092
N        2.15831567       3.04128566       3.73831289       0.00003129      -0.00004441       0.00005323
N        3.58679013       1.02111771       6.21250308      -0.00003207       0.00004435      -0.00005662
