9
Lattice="4.365506430072963 1.1592187737592222e-07 2.5204262790598144 1.4551688694540248 4.1158395051965115 2.5204263654242087 -2.218457023945495e-08 9.00874799221461e-08 5.040852596544447" Properties=species:S:1:pos:R:3:forces:R:3 energy=-70.14053344726562 free_energy=-70.14053344726562 stress="-5.7702465710463e-05 6.910942040860846e-09 -1.0419000773254083e-08 6.910942040860846e-09 -5.7700046454556286e-05 -7.639454935315371e-08 -1.0419000773254083e-08 -7.639454935315371e-08 -5.7638051657704636e-05" pbc="T T T"
Zr       1.45516890       1.02895996       2.52042653       0.00000125       0.00000061      -0.00000017
Zr       4.36550646       3.08687994       7.56127902      -0.00000182       0.00000084       0.00000094
S       -0.00000017      -0.00000019      -0.00000009      -0.00000159      -0.00000029       0.00000095
N        1.40873759       0.99612795       5.04085245       0.00081444       0.00057435       0.00000007
N        4.41193765       3.11971173       5.04085268      -0.00081038      -0.00057626       0.00000041
N        3.66113776       0.99612810       3.74042868      -0.00040567       0.00057399       0.00070238
N        2.15953757       3.11971198       6.34127636       0.00040627      -0.00057638      -0.00070226
N        2.15953747       3.11971153       3.74042876       0.00040591      -0.00057542       0.00070441
N        3.66113783       0.99612803       6.34127647      -0.00040877       0.00057948      -0.00070632
