9
Lattice="4.413558468937806 -5.938017022233336e-08 2.548169052917603 1.471186137084962 4.161142503879466 2.548168989253459 -4.062582618664976e-09 -8.084501516704952e-08 5.096338112871796" Properties=species:S:1:pos:R:3:forces:R:3 energy=-66.99021911621094 free_energy=-66.99021911621094 stress="-0.0005011476459912956 2.606399185367536e-08 -3.869606501893941e-08 2.606399185367536e-08 -0.0005013523623347282 -9.715280668842752e-08 -3.869606501893941e-08 -9.715280668842752e-08 -0.0005012759938836098" pbc="T T T"
Zr       1.47118622       1.04028574       2.54816874      -0.00000064      -0.00000152      -0.00000122
Zr       4.41355858       3.12085704       7.64450704       0.00000121       0.00000103      -0.00000333
Se      -0.00000009       0.00000006       0.00000036      -0.00000284      -0.00000534      -0.00000132
N        1.49245577       1.05532566       5.09633809      -0.00734997      -0.00519764       0.00000147
N        4.39228882       3.10581670       5.09633808       0.00735557       0.00520092      -0.00000109
N        3.66733018       1.05532555       3.84067366       0.00367284      -0.00519556      -0.00636345
N        2.21741410       3.10581685       6.35200260      -0.00367677       0.00519645       0.00636852
N        2.21741415       3.10581666       3.84067371      -0.00367415       0.00519931      -0.00636488
N        3.66733067       1.05532527       6.35200248       0.00367409      -0.00519741       0.00636578
