9
Lattice="4.456578553575476 -6.870985934979369e-08 2.573006880038874 1.4855261596601226 4.201702220286831 2.573006810903633 -4.539152861183465e-08 -1.1676968365827281e-07 5.146013838698171" Properties=species:S:1:pos:R:3:forces:R:3 energy=-61.96945571899414 free_energy=-61.96945571899414 stress="0.00024084541655611247 -1.3530389253446629e-07 2.612118699119037e-08 -1.3530389253446629e-07 0.00024110946105793118 6.418663645035849e-08 2.612118699119037e-08 6.418663645035849e-08 0.00024086848134174943" pbc="T T T"
Zr       1.48552617       1.05042540       2.57300734       0.00000204      -0.00000303       0.00000179
Zr       4.45657916       3.15127666       7.71901998       0.00000242       0.00000216      -0.00000694
Sn       0.00000005      -0.00000010      -0.00000018       0.00000446       0.00000715       0.00000143
N        1.62432297       1.14856965       5.14601288      -0.00490272      -0.00346649      -0.00001149
N        4.31778200       3.05313234       5.14601416       0.00490117       0.00345945       0.00000349
N        3.64441688       1.14856933       3.97971221       0.00245443      -0.00347060      -0.00424540
N        2.29768824       3.05313260       6.31231548      -0.00244838       0.00347048       0.00424749
N        2.29768670       3.05313241       3.97971277      -0.00246203       0.00346750      -0.00424343
N        3.64441657       1.14856991       6.31231574       0.00244918      -0.00346696       0.00425154
