9
Lattice="4.483641254793776 -2.657107425443337e-07 2.588631316291295 1.4945469552860726 4.227216460262911 2.588631106939576 4.838538926156041e-08 -2.22188797319932e-07 5.1772625487766035" Properties=species:S:1:pos:R:3:forces:R:3 energy=-75.19450378417969 free_energy=-75.19450378417969 stress="1.8799260942614637e-05 -1.9331470468841871e-07 3.249492408485821e-07 -1.9331470468841871e-07 1.879177216324024e-05 4.029325850751775e-08 3.249492408485821e-07 4.029325850751775e-08 1.9122848243569024e-05" pbc="T T T"
Zr       1.49454760       1.05680388       2.58863178      -0.00000332      -0.00000328      -0.00000004
Zr       4.48364089       3.17041160       7.76589300      -0.00000319       0.00000089       0.00000565
Ta      -0.00000052      -0.00000013       0.00000103       0.00001204       0.00000398      -0.00002071
N        1.61852469       1.14446916       5.17726309      -0.00172853      -0.00121999       0.00000379
N        4.35966391       3.08274701       5.17726299       0.00172043       0.00122011       0.00000675
N        3.67437870       1.14446969       3.99031427       0.00086093      -0.00122136      -0.00150228
N        2.30380929       3.08274653       6.36420990      -0.00086629       0.00122803       0.00150120
N        2.30380973       3.08274635       3.99031387      -0.00086623       0.00121945      -0.00150263
N        3.67437887       1.14446963       6.36420958       0.00087416      -0.00122821       0.00150788
