9
Lattice="4.3386578055625025 1.4231543900792773e-08 2.5049253787889314 1.446219264044191 4.0905258536668825 2.5049254097826976 -1.4044390449974375e-08 2.8028579798445487e-08 5.0098507819034594" Properties=species:S:1:pos:R:3:forces:R:3 energy=-76.0309829711914 free_energy=-76.0309829711914 stress="0.00016394535487052053 -1.4578603213522e-07 3.309458307398927e-08 -1.4578603213522e-07 0.00016386230709031224 -1.265132283378989e-07 3.309458307398927e-08 -1.265132283378989e-07 0.00016417646838817745" pbc="T T T"
Zr       1.44621930       1.02263150       2.50492552      -0.00000018      -0.00000102      -0.00000006
Zr       4.33865773       3.06789428       7.51477622      -0.00000011       0.00000135       0.00000141
V        0.00000008      -0.00000001       0.00000026       0.00000002      -0.00000054      -0.00000215
N        1.55026918       1.09620599       5.00985082      -0.00661552      -0.00467670       0.00000015
N        4.23460771       2.99432005       5.00985085       0.00661671       0.00467932       0.00000035
N        3.56352328       1.09620605       3.84749794       0.00330877      -0.00467980      -0.00573397
N        2.22135401       2.99431981       6.17220352      -0.00331122       0.00468093       0.00573492
N        2.22135390       2.99431979       3.84749799      -0.00331044       0.00467944      -0.00573564
N        3.56352318       1.09620605       6.17220326       0.00331199      -0.00468343       0.00573504
