9
Lattice="4.433220975315673 -2.6500092104526094 3.4807025099946687 1.3657531704463945 5.014506816224386 4.2340693401484 0.19151060344537685 0.16821741097800835 5.1054303371066405" Properties=species:S:1:pos:R:3:forces:R:3 energy=-7107.8251953125 free_energy=-7107.8251953125 stress="21.958786010742188 0.6259914040565491 6.951108932495117 0.6259914040565491 17.94597053527832 -26.276851654052734 6.951108932495117 -26.276851654052734 51.854244232177734" pbc="T T T"
Pd       1.62569576       1.55544373       2.09047306    -195.00146484   -1500.60058594   -1136.87011719
Pd       2.39192207       4.05417371       9.11935330     451.63647461   -3474.67382812   -1306.18847656
N        0.82973677      -0.20576204       1.55258468    2509.47314453    2909.51098633   -4089.78100586
O        1.17903720       0.61154448       5.85900342   -2723.57666016   -1245.94555664    5537.03466797
O        5.93860004      -1.73649979       8.81011920    3550.83496094    1125.41845703    -228.74267578
O        4.55718726      -2.17622322       4.39708926    -721.66186523    -189.31399536     679.49340820
O        2.13844737       2.89147443       8.13896699     276.56143188     532.63323975     722.57135010
O        3.14982778       4.77979788       5.48814997   -1175.27685547    2054.59350586    -959.02075195
O        2.15035571       0.35546344       5.82369586   -1972.98876953    -211.61914062     781.50439453
