9
Lattice="5.746830365760995 7.097007378047318e-08 3.317933770779178 1.9156101898516884 5.418163682903032 3.3179337690123107 -3.5927611909917257e-08 -2.7568643664395686e-08 6.635867603786846" Properties=species:S:1:pos:R:3:forces:R:3 energy=-29.043773651123047 free_energy=-29.043773651123047 stress="-0.0001015016678138636 6.268895447192335e-08 6.868700719309118e-09 6.268895447192335e-08 -0.00010151912283618003 2.8931532725096076e-08 6.868700719309118e-09 2.8931532725096076e-08 -0.00010154020128538832" pbc="T T T"
Ag       1.91561034       1.35454082       3.31793372      -0.00000047      -0.00000026       0.00000010
Ag       5.74683066       4.06362280       9.95380164      -0.00000013       0.00000022       0.00000069
As       0.00000039       0.00000017      -0.00000022      -0.00000810       0.00000087       0.00000780
S        1.94628841       1.37623397       6.63586768       0.00539637       0.00381637       0.00000004
S        5.71615154       4.04192955       6.63586735      -0.00539076      -0.00381130      -0.00000153
S        4.77368586       1.37623426       5.00346876      -0.00269645       0.00381309       0.00466955
S        2.88875414       4.04193009       8.26826627       0.00269818      -0.00381780      -0.00467515
S        2.88875458       4.04192983       5.00346861       0.00269908      -0.00381637       0.00467181
S        4.77368625       1.37623336       8.26826655      -0.00269783       0.00381535      -0.00467259
