9
Lattice="5.645761632720531 7.252717104005833e-07 3.2595817562784757 1.8819211787643833 5.3228753071821835 3.2595818416141804 9.520867293557847e-08 1.7183713165419147e-07 6.519163347650747" Properties=species:S:1:pos:R:3:forces:R:3 energy=-29.647886276245117 free_energy=-29.647886276245117 stress="0.00011599106073845178 1.173303374457646e-07 -1.894562196014249e-08 1.173303374457646e-07 0.00011587873450480402 3.883567689655365e-09 -1.894562196014249e-08 3.883567689655365e-09 0.00011577321856748313" pbc="T T T"
Ag       1.88192066       1.33071903       3.25958173       0.00000037       0.00000037      -0.00000002
Ag       5.64576216       3.99215714       9.77874449       0.00000105       0.00000028      -0.00000020
As       0.00000444       0.00000135      -0.00000113      -0.00002505      -0.00000826       0.00000715
Se       2.19361550       1.55112004       6.51916339       0.00129971       0.00091948       0.00000157
Se       5.33406422       3.77175455       6.51916384      -0.00127971      -0.00090566       0.00000097
Se       4.54895350       1.55112114       5.15930796      -0.00064507       0.00091296       0.00112003
Se       2.97872793       3.77175631       7.87902041       0.00065096      -0.00092180      -0.00112760
Se       2.97872852       3.77175521       5.15930719       0.00064735      -0.00091667       0.00112393
Se       4.54895488       1.55112015       7.87901982      -0.00064959       0.00091928      -0.00112572
