9
Lattice="5.010336569085361 -4.5466663289061676e-06 2.892721449762558 1.6701080442529275 4.723789297607656 2.8927212052035594 -3.8720415264290605e-07 -5.733169432078727e-07 5.785443570182028" Properties=species:S:1:pos:R:3:forces:R:3 energy=-38.62226104736328 free_energy=-38.62226104736328 stress="6.793139618821442e-05 6.58742067116691e-07 3.384414171136996e-08 6.58742067116691e-07 6.7599889007397e-05 -2.4348480565095088e-08 3.384414171136996e-08 -2.4348480565095088e-08 6.705535633955151e-05" pbc="T T T"
Ag       1.67011068       1.18094759       2.89272293      -0.00000048       0.00000024       0.00000246
Ag       5.01033195       3.54283621       8.67816597      -0.00000187      -0.00000208       0.00000304
As       0.00000107      -0.00000117      -0.00000122       0.00000092      -0.00000329       0.00000466
O        1.48073786       1.04703872       5.78544231      -0.00240302      -0.00169456      -0.00000122
O        5.19970465       3.67674826       5.78544233       0.00239599       0.00170600      -0.00000051
O        4.26996985       1.04703101       4.17507353       0.00117767      -0.00166583      -0.00203943
O        2.41047565       3.67675126       7.39581054      -0.00117159       0.00165713       0.00203037
O        2.41047616       3.67675225       4.17507402      -0.00117445       0.00166368      -0.00203681
O        4.26996998       1.04703175       7.39581148       0.00117713      -0.00166166       0.00203705
