9
Lattice="5.748697162427577 1.5960568083432521e-07 3.3190118449451167 1.9162324767590175 5.419923769294187 3.3190119509371647 9.320105704695639e-09 1.3640351957037654e-07 6.638023673747336" Properties=species:S:1:pos:R:3:forces:R:3 energy=-29.043752670288086 free_energy=-29.043752670288086 stress="0.00034025637432932854 -3.3886980332908934e-08 -5.420757176466395e-08 -3.3886980332908934e-08 0.00034028058871626854 4.919365181876856e-08 -5.420757176466395e-08 4.919365181876856e-08 0.000340369064360857" pbc="T T T"
Ag       1.91623230       1.35498118       3.31901190      -0.00000056       0.00000022      -0.00000011
Ag       5.74869737       4.06494305       9.95703581       0.00000033       0.00000070       0.00000051
As      -0.00000013       0.00000050       0.00000036       0.00000401      -0.00000729      -0.00000632
S        1.94707348       1.37678837       6.63802317      -0.00326359      -0.00230813      -0.00000131
S        5.71785665       4.04313517       6.63802304       0.00326574       0.00230777      -0.00000203
S        4.77516059       1.37678884       5.00522735       0.00163174      -0.00230968      -0.00282508
S        2.88976959       4.04313491       8.27082010      -0.00163615       0.00231481       0.00283509
S        2.88976879       4.04313553       5.00522742      -0.00163406       0.00231099      -0.00282747
S        4.77516026       1.37678864       8.27082091       0.00163263      -0.00230944       0.00282711
