9
Lattice="5.645222490275248 -4.815574617771231e-08 3.2592704268980106 1.8817406779322698 5.322366837958183 3.259270611807881 -5.120788388033732e-07 -1.356269502462734e-07 6.518541740742596" Properties=species:S:1:pos:R:3:forces:R:3 energy=-29.647890090942383 free_energy=-29.647890090942383 stress="8.511705345881637e-06 4.861329472305442e-08 -2.076977700937732e-08 4.861329472305442e-08 8.470497050439008e-06 2.2368556784613247e-08 -2.076977700937732e-08 2.2368556784613247e-08 8.439650628133677e-06" pbc="T T T"
Ag       1.88174045       1.33059183       3.25927128       0.00000006       0.00000010       0.00000006
Ag       5.64522201       3.99177552       9.77781259       0.00000014      -0.00000057       0.00000018
As       0.00000153      -0.00000120       0.00000153      -0.00000795       0.00000580      -0.00000975
Se       2.19330300       1.55089980       6.51854136       0.00212348       0.00150126      -0.00000057
Se       5.33365900       3.77146720       6.51854106      -0.00212377      -0.00150214      -0.00000058
Se       4.54857248       1.55089927       5.15872634      -0.00106253       0.00150548       0.00184321
Se       2.97839202       3.77146778       7.87835608       0.00106336      -0.00150158      -0.00184086
Se       2.97839055       3.77146690       5.15872494       0.00106698      -0.00150935       0.00184718
Se       4.54856942       1.55089910       7.87835588      -0.00105999       0.00150110      -0.00183874
