9
Lattice="5.011524225800141 -7.532345886866046e-07 2.8934048434835233 1.6705074908841686 4.72490798528274 2.893404625636815 -4.3557186244173e-08 -2.9760612096819205e-07 5.786809762410289" Properties=species:S:1:pos:R:3:forces:R:3 energy=-38.62225341796875 free_energy=-38.62225341796875 stress="-0.00017945125000551343 -3.081889872191823e-07 -1.2586244224621623e-07 -3.081889872191823e-07 -0.0001793196570361033 1.724768452504577e-07 -1.2586244224621623e-07 1.724768452504577e-07 -0.00017913324700202793" pbc="T T T"
Ag       1.67050785       1.18122683       2.89340477      -0.00000051       0.00000032      -0.00000005
Ag       5.01152364       3.54368013       8.68021471       0.00000061      -0.00000026       0.00000009
As       0.00000022      -0.00000028      -0.00000079       0.00000820      -0.00000284      -0.00001329
O        1.48030373       1.04673211       5.78680942       0.00726426       0.00513721      -0.00000002
O        5.20172750       3.67817560       5.78680955      -0.00727129      -0.00513685      -0.00000038
O        4.27137242       1.04673213       4.17538688      -0.00361991       0.00512064       0.00627518
O        2.41066079       3.67817316       7.39823210       0.00362033      -0.00511825      -0.00626755
O        2.41065895       3.67817546       4.17538572       0.00362831      -0.00513065       0.00628853
O        4.27137190       1.04673233       7.39823336      -0.00362927       0.00513089      -0.00628304
