9
Lattice="5.8244180047042695 1.0516941603714762e-07 3.36272910549892 1.9414726934967943 5.491313834890443 3.3627292334848553 -6.354993336115249e-08 1.1181355454999703e-07 6.725458321069489" Properties=species:S:1:pos:R:3:forces:R:3 energy=-27.694101333618164 free_energy=-27.694101333618164 stress="0.0002825512201525271 1.0029882702156101e-08 -1.6612839104368504e-08 1.0029882702156101e-08 0.00028255704091861844 6.419003995006278e-09 -1.6612839104368504e-08 6.419003995006278e-09 0.0002825377741828561" pbc="T T T"
Ag       1.94147262       1.37282877       3.36272919      -0.00000018       0.00000021       0.00000003
Ag       5.82441782       4.11848523      10.08818748      -0.00000080       0.00000005      -0.00000065
Bi      -0.00000004       0.00000022      -0.00000014      -0.00000105       0.00000324      -0.00000193
S        1.99848792       1.41314469       6.72545900      -0.00250238      -0.00176953       0.00000187
S        5.76740251       4.07816926       6.72545847       0.00250155       0.00176817      -0.00000095
S        4.82517401       1.41314452       5.09347061       0.00125059      -0.00176968      -0.00216442
S        2.94071661       4.07816934       8.35744605      -0.00125092       0.00176911       0.00216410
S        2.94071654       4.07816938       5.09347031      -0.00124885       0.00176479      -0.00216341
S        4.82517456       1.41314481       8.35744575       0.00125198      -0.00176646       0.00216550
