9
Lattice="5.55565914333938 8.153584655414065e-08 3.20756094696377 1.851886401403529 5.2379258896242336 3.207561044967296 -1.6498582000834277e-07 3.366679439685353e-09 6.415122179691294" Properties=species:S:1:pos:R:3:forces:R:3 energy=-32.22736358642578 free_energy=-32.22736358642578 stress="-3.2812349672894925e-05 1.1870948668502024e-08 3.2455844234391407e-08 1.1870948668502024e-08 -3.279679731349461e-05 -5.928701085622379e-08 3.2455844234391407e-08 -5.928701085622379e-08 -3.2835978345246986e-05" pbc="T T T"
Ag       1.85188612       1.30948235       3.20756091       0.00000026       0.00000071      -0.00000003
Ag       5.55565966       3.92844444       9.62268343       0.00000020       0.00000016       0.00000068
B       -0.00000064      -0.00000027      -0.00000037       0.00000728      -0.00000172       0.00000738
S        1.61529134       1.14218363       6.41512198       0.00443298       0.00313282      -0.00000038
S        5.79225368       4.09574207       6.41512137      -0.00443393      -0.00313616      -0.00000129
S        4.74801356       1.14218325       4.60644394      -0.00222072       0.00313777       0.00384402
S        2.65953215       4.09574235       8.22379967       0.00221786      -0.00313824      -0.00384086
S        2.65953262       4.09574263       4.60644541       0.00221398      -0.00313079       0.00383234
S        4.74801289       1.14218355       8.22379939      -0.00221837       0.00313538      -0.00384188
