9
Lattice="6.543238617299068 -3.444782627539948e-08 3.7777406470984136 2.1810795077242693 6.169024568355515 3.7777406451892768 1.461557126200308e-08 7.99655935316271e-09 7.55548126888189" Properties=species:S:1:pos:R:3:forces:R:3 energy=-25.122581481933594 free_energy=-25.122581481933594 stress="-4.09704966841673e-07 3.7499230387538773e-08 -5.679674508485277e-10 3.7499230387538773e-08 -4.180103019280068e-07 -1.9495536296432192e-09 -5.679674508485277e-10 -1.9495536296432192e-09 -4.498453165524552e-07" pbc="T T T"
Ag       2.18107942       1.54225652       3.77774103      -0.00000067       0.00000038       0.00000223
Ag       6.54323872       4.62676869      11.33322161       0.00000071       0.00000046       0.00000063
Bi       0.00000030      -0.00000081      -0.00000348      -0.00000262       0.00000287       0.00001160
Te       2.48027728       1.75382103       7.55548074      -0.00046168      -0.00032727       0.00000132
Te       6.24404095       4.41520333       7.55548118       0.00046310       0.00032602       0.00000188
Te       5.30309872       1.75382263       5.92572502       0.00023203      -0.00032851      -0.00040282
Te       3.42121609       4.41520629       9.18524001      -0.00022811       0.00032261       0.00039338
Te       3.42121907       4.41520181       5.92572456      -0.00023199       0.00032675      -0.00040248
Te       5.30310202       1.75381866       9.18523958       0.00022917      -0.00032339       0.00039437
