9
Lattice="5.822183016150735 1.3699301175252755e-07 3.3614390492138315 1.9407277434000996 5.489207107345879 3.361439149340952 3.837486200087603e-08 1.4976524950013017e-07 6.72287803196047" Properties=species:S:1:pos:R:3:forces:R:3 energy=-27.694124221801758 free_energy=-27.694124221801758 stress="5.111642167321406e-06 -1.2596437670708838e-08 -2.2969937063521684e-08 -1.2596437670708838e-08 5.1273982535349205e-06 8.730865808104227e-09 -2.2969937063521684e-08 8.730865808104227e-09 5.174446414457634e-06" pbc="T T T"
Ag       1.94072770       1.37230186       3.36143914       0.00000091       0.00000028      -0.00000024
Ag       5.82218273       4.11690547      10.08431720      -0.00000033       0.00000016       0.00000006
Bi       0.00000048       0.00000011       0.00000025      -0.00000208       0.00000091      -0.00000757
S        1.99848136       1.41313988       6.72287792      -0.00151524      -0.00107166       0.00000091
S        5.76442971       4.07606817       6.72287840       0.00151441       0.00107113      -0.00000015
S        4.82294194       1.41314021       5.09217474       0.00075893      -0.00107150      -0.00131324
S        2.93996828       4.07606703       8.35358115      -0.00075966       0.00107417       0.00131503
S        2.93996861       4.07606709       5.09217464      -0.00075683       0.00107123      -0.00131103
S        4.82294223       1.41313977       8.35358148       0.00075974      -0.00107485       0.00131595
