9
Lattice="4.386475296798045 -9.971972688902062e-10 2.53253269906519 1.4621584231001754 4.135608627558325 2.532532713312524 1.5392341866162292e-08 2.833333682064581e-08 5.0650653714701095" Properties=species:S:1:pos:R:3:forces:R:3 energy=-40.291290283203125 free_energy=-40.291290283203125 stress="-0.00019055344455409795 -2.7833253923859047e-08 -1.8094117315570202e-09 -2.7833253923859047e-08 -0.00019052036805078387 -1.1178151737567532e-08 -1.8094117315570202e-09 -1.1178151737567532e-08 -0.000190344886505045" pbc="T T T"
Ag       1.46215838       1.03390204       2.53253290      -0.00000163      -0.00000020       0.00000056
Ag       4.38647521       3.10170644       7.59759782      -0.00000140      -0.00000010      -0.00000099
B       -0.00000011      -0.00000015       0.00000014      -0.00000405       0.00000320      -0.00000006
O        1.32364920       0.93596084       5.06506543       0.00278592       0.00197119       0.00000044
O        4.52498489       3.19964742       5.06506553      -0.00278568      -0.00197017       0.00000006
O        3.72465095       0.93596105       3.67884620      -0.00139326       0.00197244       0.00241280
O        2.12398278       3.19964813       6.45128467       0.00139600      -0.00197273      -0.00241810
O        2.12398291       3.19964784       3.67884595       0.00139642      -0.00197423       0.00241715
O        3.72465089       0.93596121       6.45128451      -0.00139254       0.00197142      -0.00241232
