9
Lattice="6.540526422818485 -9.362520912896042e-09 3.776174561030308 2.1801754695509175 6.166467444337987 3.7761745539199696 2.7222345214404315e-09 -6.783442657682599e-09 7.552349117345553" Properties=species:S:1:pos:R:3:forces:R:3 energy=-25.12251853942871 free_energy=-25.12251853942871 stress="-0.00025800312869250774 1.0914741999101807e-08 -2.406630006390742e-09 1.0914741999101807e-08 -0.0002580164873506874 -2.183997871441079e-09 -2.406630006390742e-09 -2.183997871441079e-09 -0.00025800426374189556" pbc="T T T"
Ag       2.18017546       1.54161663       3.77617453      -0.00000020      -0.00000019      -0.00000020
Ag       6.54052656       4.62485084      11.32852320       0.00000025       0.00000046      -0.00000023
Bi       0.00000008       0.00000005      -0.00000019      -0.00000022      -0.00000013       0.00000107
Te       2.47978924       1.75347545       7.55234901      -0.00562179      -0.00397515      -0.00000033
Te       6.24091271       4.41299177       7.55234933       0.00562222       0.00397560      -0.00000022
Te       5.30063186       1.75347540       5.92373511       0.00281093      -0.00397560      -0.00486812
Te       3.42007011       4.41299193       9.18096354      -0.00281081       0.00397466       0.00486776
Te       3.42006982       4.41299201       5.92373501      -0.00281079       0.00397554      -0.00486790
Te       5.30063176       1.75347559       9.18096340       0.00281042      -0.00397503       0.00486808
