9
Lattice="6.083633596058602 3.4732645019081875e-07 3.512387336602239 2.027878047447689 5.735704994174607 3.5123875883865003 -6.072211535407342e-08 2.654344574990792e-07 7.02477477837824" Properties=species:S:1:pos:R:3:forces:R:3 energy=-27.258995056152344 free_energy=-27.258995056152344 stress="-0.00029343448113650084 1.3731563797136914e-07 -1.4806130543831841e-08 1.3731563797136914e-07 -0.0002933115465566516 -6.327403667683029e-08 -1.4806130543831841e-08 -6.327403667683029e-08 -0.0002934607327915728" pbc="T T T"
Ag       2.02787819       1.43392425       3.51238740       0.00000208      -0.00000388       0.00000012
Ag       6.08363398       4.30177981      10.53716398      -0.00000033       0.00000013       0.00000169
B        0.00000335      -0.00000350      -0.00000006      -0.00004660       0.00004336       0.00000225
Te       1.87032550       1.32251888       7.02477418       0.00425360       0.00300876      -0.00000092
Te       6.24118411       4.41318703       7.02477298      -0.00424638      -0.00299457      -0.00000415
Te       5.14847070       1.32251886       5.13213543      -0.00212122       0.00299740       0.00367121
Te       2.96303943       4.41318874       8.91741700       0.00214137      -0.00302731      -0.00370941
Te       2.96304049       4.41318878       5.13213398       0.00213968      -0.00302066       0.00370623
Te       5.14846992       1.32251959       8.91741412      -0.00212216       0.00299677      -0.00366697
