9
Lattice="5.928415203219545 -7.787220615902025e-08 3.4227727907347414 1.9761391748799386 5.589364057145766 3.422771323297591 8.743687848058748e-07 -1.1789640785368164e-06 6.845544067018431" Properties=species:S:1:pos:R:3:forces:R:3 energy=-28.293996810913086 free_energy=-28.293996810913086 stress="-8.429207127846894e-07 3.9093521309041535e-07 2.219762649247059e-07 3.9093521309041535e-07 -1.3225160273577785e-06 -2.837061572336097e-07 2.219762649247059e-07 -2.837061572336097e-07 -1.5002231066318927e-06" pbc="T T T"
Ag       1.97613918       1.39733973       3.42277110       0.00000222      -0.00000077      -0.00000268
Ag       5.92841685       4.19202337      10.26831706       0.00000167      -0.00000004      -0.00000232
Bi      -0.00000031       0.00000163      -0.00000408      -0.00000573      -0.00001275       0.00003918
Se       2.36244672       1.67049550       6.84554282      -0.00043423      -0.00030242       0.00000788
Se       5.54210228       3.91885760       6.84554110       0.00045414       0.00033200       0.00000605
Se       4.74719247       1.67050285       5.46871138       0.00020988      -0.00031362      -0.00037898
Se       3.15735811       3.91887186       8.22238591      -0.00020411       0.00027746       0.00033933
Se       3.15736709       3.91886062       5.46870827      -0.00022954       0.00031720      -0.00038178
Se       4.74719852       1.67049818       8.22237922       0.00020567      -0.00029704       0.00037323
