9
Lattice="5.579381313288757 8.409610776063597e-07 3.221256029255655 1.8597929317612325 5.260300745363987 3.221258856310331 -2.6308484938484914e-06 1.6021298872476013e-06 6.442516615274276" Properties=species:S:1:pos:R:3:forces:R:3 energy=-30.596614837646484 free_energy=-30.596614837646484 stress="-0.0001272784429602325 -3.098546130786417e-08 1.0918869719489521e-07 -3.098546130786417e-08 -0.0001280440337723121 3.290229599883787e-08 1.0918869719489521e-07 3.290229599883787e-08 -0.00012763511040247977" pbc="T T T"
Ag       1.85979200       1.31507620       3.22125805       0.00000039       0.00000083      -0.00000031
Ag       5.57937923       3.94522685       9.66377471      -0.00000099      -0.00000050       0.00000001
B       -0.00000041      -0.00000098       0.00000149       0.00000912      -0.00000045      -0.00000420
Se       1.68084839       1.18854783       6.44251647       0.00204515       0.00146231      -0.00000394
Se       5.75832232       4.07175818       6.44251553      -0.00205466      -0.00145870       0.00000151
Se       4.73895529       1.18854365       4.67691631      -0.00102961       0.00146547       0.00178310
Se       2.70021585       4.07176010       8.20811389       0.00102638      -0.00145516      -0.00178286
Se       2.70021692       4.07175694       4.67691949       0.00102772      -0.00147024       0.00178742
Se       4.73895320       1.18854442       8.20811189      -0.00102320       0.00145644      -0.00178078
