9
Lattice="4.53729297672829 1.6395501029032168e-07 2.6196070129775597 1.5124311608408216 4.277800680177149 2.619606988694567 1.857798693180152e-09 -2.8426803865299954e-08 5.239214022737311" Properties=species:S:1:pos:R:3:forces:R:3 energy=-35.29413604736328 free_energy=-35.29413604736328 stress="-7.745037146378309e-05 3.405032700243282e-08 -6.0703633231184995e-09 3.405032700243282e-08 -7.743174501229078e-05 2.719597880229685e-09 -6.0703633231184995e-09 2.719597880229685e-09 -7.752279634587467e-05" pbc="T T T"
Ag       1.51243101       1.06944991       2.61960711       0.00000018      -0.00000110       0.00000036
Ag       4.53729293       3.20835079       7.85882111      -0.00000053       0.00000127      -0.00000000
Ga       0.00000001       0.00000021       0.00000015      -0.00000036      -0.00000092      -0.00000025
O        1.59500620       1.12783928       5.23921408      -0.00363320      -0.00256968      -0.00000049
O        4.45471786       3.14996126       5.23921378       0.00363481       0.00257200       0.00000071
O        3.73979036       1.12783937       4.00092212       0.00181618      -0.00256917      -0.00314650
O        2.30993407       3.14996164       6.47750580      -0.00181723       0.00256914       0.00314617
O        2.30993373       3.14996164       4.00092209      -0.00181735       0.00256911      -0.00314540
O        3.73979030       1.12783914       6.47750580       0.00181752      -0.00257051       0.00314572
