9
Lattice="5.654767558352451 5.075045570396821e-08 3.2647813596141733 1.8849225172389006 5.331366825111829 3.26478144632019 -1.0847077245871134e-07 2.9492639860878603e-08 6.529562907104864" Properties=species:S:1:pos:R:3:forces:R:3 energy=-27.225133895874023 free_energy=-27.225133895874023 stress="9.266897905035876e-06 -5.253601997878832e-08 1.1940045396841015e-08 -5.253601997878832e-08 9.107629921345506e-06 7.606296037465654e-09 1.1940045396841015e-08 7.606296037465654e-09 9.25421409192495e-06" pbc="T T T"
Ag       1.88492266       1.33284180       3.26478143      -0.00000034      -0.00000033       0.00000028
Ag       5.65476745       3.99852523       9.79434496       0.00000008      -0.00000065      -0.00000085
Ga       0.00000054      -0.00000012      -0.00000026      -0.00000299      -0.00000025       0.00000386
Se       2.17152338       1.53549752       6.52956245      -0.00314020      -0.00222433       0.00000056
Se       5.36816605       3.79586830       6.52956185       0.00314552       0.00222363      -0.00000061
Se       4.56900565       1.53549961       5.14537584       0.00157249      -0.00222500      -0.00272249
Se       2.97068393       3.79586837       7.91374986      -0.00157080       0.00222190       0.00272144
Se       2.97068492       3.79586789       5.14537624      -0.00157283       0.00222629      -0.00272369
Se       4.56900524       1.53549901       7.91375056       0.00156908      -0.00222125       0.00272151
