9
Lattice="6.247256382234023 3.776624248274181e-07 3.606855606333247 2.0824192665261587 5.889969937035995 3.6068554047491066 2.5918505200629407e-07 -6.361756147630223e-08 7.213710763744775" Properties=species:S:1:pos:R:3:forces:R:3 energy=-24.796823501586914 free_energy=-24.796823501586914 stress="-9.705382399260998e-05 2.9194241690788658e-08 -1.6024801485770013e-09 2.9194241690788658e-08 -9.716712520457804e-05 -3.4118317060460868e-09 -1.6024801485770013e-09 -3.4118317060460868e-09 -9.715018677525222e-05" pbc="T T T"
Ag       2.08241834       1.47249175       3.60685553      -0.00000017      -0.00000276       0.00000001
Ag       6.24725710       4.41747796      10.82056651       0.00000029       0.00000124      -0.00000019
Ga      -0.00000034       0.00000063      -0.00000023       0.00000217      -0.00000172      -0.00000016
Te       2.27078264       1.60568473       7.21371069       0.00884745       0.00625404       0.00000038
Te       6.05889312       4.28428585       7.21371130      -0.00884748      -0.00625521       0.00000096
Te       5.11186610       1.60568384       5.57340906      -0.00442493       0.00625662       0.00766463
Te       3.21781001       4.28428639       8.85401186       0.00442388      -0.00625466      -0.00766167
Te       3.21781024       4.28428589       5.57341008       0.00442368      -0.00625445       0.00766057
Te       5.11186645       1.60568389       8.85401226      -0.00442491       0.00625686      -0.00766458
