9
Lattice="4.536016836893572 2.7610267618483094e-05 2.618879910592617 1.5120341757589641 4.276669498194801 2.6188755246395594 1.895697240048468e-05 8.032949675560798e-06 5.237726986778385" Properties=species:S:1:pos:R:3:forces:R:3 energy=-35.294105529785156 free_energy=-35.294105529785156 stress="-0.0007505368557758629 -1.5760499536554562e-06 1.7555548481595906e-07 -1.5760499536554562e-06 -0.0007713550003245473 -7.681018360017333e-06 1.7555548481595906e-07 -7.681018360017333e-06 -0.0007561889942735434" pbc="T T T"
Ag       1.51198161       1.06927386       2.61882547      -0.00001267       0.00035829      -0.00022287
Ag       4.53606880       3.20747547       7.85663474       0.00013109      -0.00022845      -0.00000281
Ga       0.00009357      -0.00001238      -0.00007470      -0.00080316       0.00016480       0.00061797
O        1.59452300       1.12752622       5.23773295      -0.00200820      -0.00141281       0.00001031
O        4.45347986       3.14917021       5.23777627       0.00234586       0.00174612       0.00007763
O        3.73885107       1.12761192       3.99979795       0.00142121      -0.00156787      -0.00206107
O        2.30921812       3.14913138       6.47580837      -0.00104493       0.00104132       0.00156632
O        2.30929176       3.14907369       3.99976690      -0.00117794       0.00146219      -0.00193387
O        3.73877429       1.12757709       6.47566841       0.00114909      -0.00156355       0.00194812
