9
Lattice="5.534326017052935 -1.1197979712256119e-07 3.195245115445962 1.844775354954814 5.217813056944863 3.195244904979808 1.8218262438369725e-08 -2.44885085378553e-07 6.39049019933703" Properties=species:S:1:pos:R:3:forces:R:3 energy=-26.620935440063477 free_energy=-26.620935440063477 stress="-0.00030586589127779007 3.291479444555989e-08 3.201988718615212e-08 3.291479444555989e-08 -0.00030595253338105977 -2.3827448458746403e-08 3.201988718615212e-08 -2.3827448458746403e-08 -0.00030599438468925655" pbc="T T T"
Ag       1.84477497       1.30445385       3.19524582      -0.00000056       0.00000087       0.00000176
Ag       5.53432567       3.91335940       9.58573493      -0.00000056       0.00000008       0.00000092
Ga      -0.00000044      -0.00000035       0.00000136       0.00000264       0.00000024      -0.00000481
S        1.94076325       1.37232678       6.39048994      -0.00839186      -0.00593390      -0.00000089
S        5.43833941       3.84548595       6.39049128       0.00839138       0.00592846       0.00000255
S        4.56394487       1.37232536       4.87599340       0.00419208      -0.00593032      -0.00726574
S        2.81515577       3.84548711       7.90498499      -0.00419751       0.00593651       0.00726706
S        2.81515662       3.84548676       4.87599400      -0.00419355       0.00593187      -0.00726810
S        4.56394535       1.37232593       7.90498525       0.00419799      -0.00593373       0.00726715
