9
Lattice="5.536955481140604 1.000090174692694e-07 3.1967625100489423 1.8456518513950078 5.220291698868319 3.1967626311908033 -6.786813457820018e-08 1.0037783976894957e-07 6.393525137648765" Properties=species:S:1:pos:R:3:forces:R:3 energy=-26.621055603027344 free_energy=-26.621055603027344 stress="1.1778809493989684e-05 -4.727570512841339e-08 -4.491910843285041e-08 -4.727570512841339e-08 1.18195493996609e-05 1.5680901910286593e-08 -4.491910843285041e-08 1.5680901910286593e-08 1.1888923836522736e-05" pbc="T T T"
Ag       1.84565157       1.30507320       3.19676235       0.00000032      -0.00000002      -0.00000156
Ag       5.53695552       3.91521959       9.59028791       0.00000041       0.00000025      -0.00000049
Ga       0.00000138      -0.00000167      -0.00000233      -0.00000693       0.00000921       0.00001131
S        1.94021261       1.37193698       6.39352402      -0.00402584      -0.00284389       0.00000068
S        5.44239465       3.84835444       6.39352431       0.00402340       0.00284825       0.00000049
S        4.56684783       1.37193938       4.87703793       0.00201771      -0.00285345      -0.00349513
S        2.81575801       3.84835456       7.91001654      -0.00200540       0.00283699       0.00347985
S        2.81575815       3.84835356       4.87703617      -0.00201438       0.00284702      -0.00348268
S        4.56684940       1.37193752       7.91001421       0.00201075      -0.00284440       0.00348762
