9
Lattice="6.2463224824249055 -4.1625777599686254e-08 3.606315996839131 2.0821074664493433 5.8890891976469195 3.6063159768288715 -5.2438380878898537e-08 -6.158699922938431e-08 7.212632084504214" Properties=species:S:1:pos:R:3:forces:R:3 energy=-24.796836853027344 free_energy=-24.796836853027344 stress="-0.0002105336170643568 -3.3553648748352316e-09 -8.062958301024992e-09 -3.3553648748352316e-09 -0.00021052166994195431 -1.2331585752534124e-09 -8.062958301024992e-09 -1.2331585752534124e-09 -0.00021050630311947316" pbc="T T T"
Ag       2.08210727       1.47227238       3.60631607      -0.00000006      -0.00000020       0.00000018
Ag       6.24632270       4.41681668      10.81894798       0.00000025       0.00000011      -0.00000019
Ga      -0.00000008      -0.00000013      -0.00000092       0.00000036       0.00000030       0.00000143
Te       2.27091721       1.60578125       7.21263231       0.00529607       0.00374495       0.00000068
Te       6.05751295       4.28330844       7.21263217      -0.00529677      -0.00374531       0.00000067
Te       5.11086382       1.60578100       5.57298837      -0.00264728       0.00374429       0.00458644
Te       3.21756566       4.28330828       8.85227601       0.00264835      -0.00374552      -0.00458692
Te       3.21756595       4.28330797       5.57298828       0.00264734      -0.00374435       0.00458566
Te       5.11086414       1.60578051       8.85227599      -0.00264826       0.00374566      -0.00458793
