9
Lattice="5.655278264109276 4.518064215321005e-08 3.2650759300481247 1.8850927096532735 5.331848349991562 3.265076081856487 -6.517135432663365e-08 1.398434242166482e-07 6.530151972976339" Properties=species:S:1:pos:R:3:forces:R:3 energy=-27.225120544433594 free_energy=-27.225120544433594 stress="0.0002675850992091 2.4613354909774898e-08 -7.483219377490968e-09 2.4613354909774898e-08 0.0002673522103577852 -5.6276736160043583e-08 -7.483219377490968e-09 -5.6276736160043583e-08 0.0002678152814041823" pbc="T T T"
Ag       1.88509270       1.33296216       3.26507625       0.00000030       0.00000126       0.00000010
Ag       5.65527807       3.99888639       9.79522811      -0.00000123      -0.00000061       0.00000074
Ga      -0.00000006      -0.00000002      -0.00000022      -0.00000007      -0.00000027       0.00000043
Se       2.17143357       1.53543502       6.53015430       0.00764379       0.00540080       0.00000649
Se       5.36893724       3.79641356       6.53015498      -0.00764099      -0.00540438       0.00000872
Se       4.56956057       1.53543552       5.14559197      -0.00382365       0.00540447       0.00661679
Se       2.97080827       3.79641500       7.91470849       0.00381753      -0.00539864      -0.00662208
Se       2.97081042       3.79641269       5.14559352       0.00382219      -0.00540315       0.00661470
Se       4.56956292       1.53543378       7.91470853      -0.00381780       0.00540046      -0.00662587
