9
Lattice="4.9137137523890395 2.879085127180707e-10 2.8369339635943223 1.6379046062041205 4.632693710279748 2.8369339258303743 1.0225687151981364e-08 -3.902054102744544e-08 5.6738679094772095" Properties=species:S:1:pos:R:3:forces:R:3 energy=-43.07484817504883 free_energy=-43.07484817504883 stress="0.0006065552588552237 -2.9892476050008554e-08 1.0963299601485232e-08 -2.9892476050008554e-08 0.0006065040943212807 1.3329550796470357e-09 1.0963299601485232e-08 1.3329550796470357e-09 0.0006066298228688538" pbc="T T T"
Ag       1.63790490       1.15817303       2.83693369       0.00000084      -0.00000028      -0.00000077
Ag       4.91371345       3.47452010       8.51080165      -0.00000060       0.00000040      -0.00000058
Ir       0.00000009       0.00000022      -0.00000018      -0.00000914      -0.00000635       0.00000728
O        1.51853286       1.07376462       5.67386806      -0.00422329      -0.00298446      -0.00000108
O        5.03308541       3.55892917       5.67386811       0.00423336       0.00299400       0.00000011
O        4.15444735       1.07376500       4.15202248       0.00211599      -0.00299242      -0.00366488
O        2.39717119       3.55892855       7.19571393      -0.00211498       0.00298941       0.00365999
O        2.39717112       3.55892884       4.15202171      -0.00211641       0.00299039      -0.00366202
O        4.15444708       1.07376486       7.19571360       0.00211474      -0.00299022       0.00366157
