9
Lattice="5.618239457197098 -2.1690777733520183e-08 3.2436921641558407 1.872746490595443 5.296926819012931 3.2436921203118656 7.065081174712282e-08 -3.740013217857658e-09 6.487384205940839" Properties=species:S:1:pos:R:3:forces:R:3 energy=-33.42814636230469 free_energy=-33.42814636230469 stress="-1.7744854631018825e-05 3.728028996619059e-09 -2.0564661085131775e-08 3.728028996619059e-09 -1.7744043361744843e-05 1.8976763271894015e-08 -2.0564661085131775e-08 1.8976763271894015e-08 -1.772886753315106e-05" pbc="T T T"
Ag       1.87274655       1.32423170       3.24369205      -0.00000020      -0.00000045      -0.00000027
Ag       5.61823957       3.97269507       9.73107627       0.00000011      -0.00000060       0.00000000
Ir       0.00000003      -0.00000076       0.00000002       0.00000065       0.00000190      -0.00000012
Se       2.07686153       1.46856274       6.48738419      -0.00058128      -0.00041247       0.00000029
Se       5.41412510       3.82836438       6.48738430       0.00058397       0.00041230       0.00000042
Se       4.57980857       1.46856282       5.04230717       0.00029034      -0.00041245      -0.00050340
Se       2.91117683       3.82836440       7.93246184      -0.00029266       0.00041291       0.00050562
Se       2.91117697       3.82836440       5.04230652      -0.00029197       0.00041153      -0.00050552
Se       4.57980897       1.46856242       7.93246160       0.00029105      -0.00041258       0.00050312
