9
Lattice="5.429265418233987 -1.2736643518811158e-08 3.134587957146799 1.8097551218092378 5.118760769301684 3.1345879668356464 -2.086590576884178e-08 -2.8880287670648237e-09 6.269175950434425" Properties=species:S:1:pos:R:3:forces:R:3 energy=-35.322052001953125 free_energy=-35.322052001953125 stress="-0.0003818996192421764 -2.862849335372175e-08 -1.1323773918547886e-08 -2.862849335372175e-08 -0.0003818919067271054 -1.4599372377688269e-08 -1.1323773918547886e-08 -1.4599372377688269e-08 -0.00038188695907592773" pbc="T T T"
Ag       1.80975519       1.27969025       3.13458804      -0.00000044      -0.00000024       0.00000022
Ag       5.42926526       3.83907052       9.40376393      -0.00000001      -0.00000014      -0.00000015
Ir      -0.00000052       0.00000005      -0.00000017      -0.00000239       0.00000043       0.00000033
S        1.89842843       1.34239156       6.26917605       0.00737631       0.00521475      -0.00000028
S        5.34059256       3.77636924       6.26917599      -0.00737417      -0.00521535      -0.00000015
S        4.48005127       1.34239166       4.77867508      -0.00368774       0.00521410       0.00638604
S        2.75896924       3.77636886       7.75967651       0.00368690      -0.00521511      -0.00638622
S        2.75896952       3.77636904       4.77867541       0.00368813      -0.00521368       0.00638622
S        4.48005111       1.34239196       7.75967671      -0.00368658       0.00521547      -0.00638556
