9
Lattice="5.890874337775611 -2.181160927759595e-08 3.4010977969127762 1.9636247971292247 5.553969266581561 3.401097730341628 5.6875713774680297e-08 -4.131550877395302e-08 6.802195495313958" Properties=species:S:1:pos:R:3:forces:R:3 energy=-36.61677169799805 free_energy=-36.61677169799805 stress="-6.257584027480334e-05 5.2120125992871635e-09 2.2676925226505773e-08 5.2120125992871635e-09 -6.25673565082252e-05 -1.951897310448203e-08 2.2676925226505773e-08 -1.951897310448203e-08 -6.256554479477927e-05" pbc="T T T"
Ag       1.96362489       1.38849223       3.40109781      -0.00000028       0.00000030       0.00000045
Ag       5.89087440       4.16547695      10.20329334       0.00000037      -0.00000015       0.00000029
Mo       0.00000009      -0.00000007      -0.00000047      -0.00000227      -0.00000109       0.00000636
Se       1.96638323       1.39044291       6.80219548      -0.00028720      -0.00020403      -0.00000018
Se       5.88811612       4.16352641       6.80219542       0.00028893       0.00020419      -0.00000048
Se       4.90768300       1.39044299       5.10403546       0.00014430      -0.00020398      -0.00024909
Se       2.94681637       4.16352653       8.50035607      -0.00014223       0.00020164       0.00024611
Se       2.94681612       4.16352620       5.10403532      -0.00014481       0.00020568      -0.00025085
Se       4.90768256       1.39044270       8.50035564       0.00014322      -0.00020246       0.00024748
