9
Lattice="4.839271701453768 -5.729834999644058e-07 2.7939550662088894 1.6130901758385385 4.56250789146556 2.7939548083043446 2.0047680537849324e-08 -3.0169145285307983e-07 5.587910097694228" Properties=species:S:1:pos:R:3:forces:R:3 energy=-43.13381576538086 free_energy=-43.13381576538086 stress="6.203273369465023e-05 -1.718313598075838e-07 -1.0254799676090443e-08 -1.718313598075838e-07 6.220514478627592e-05 1.4416049687326904e-08 -1.0254799676090443e-08 1.4416049687326904e-08 6.225208198884502e-05" pbc="T T T"
Ag       1.61309070       1.14062691       2.79395553       0.00000117       0.00000083       0.00000131
Ag       4.83927131       3.42188046       8.38186531       0.00000108       0.00000114       0.00000131
Mo      -0.00000004       0.00000069       0.00000143       0.00000280       0.00000217       0.00000505
O        1.58895389       1.12355950       5.58791043      -0.00180769      -0.00127995      -0.00000185
O        4.86340778       3.43894708       5.58790969       0.00180984       0.00127852      -0.00000293
O        4.04479413       1.12356002       4.17002989       0.00090647      -0.00128567      -0.00157452
O        2.40756746       3.43894733       7.00578916      -0.00091082       0.00128746       0.00157404
O        2.40756699       3.43894702       4.17002956      -0.00091058       0.00128293      -0.00157678
O        4.04479381       1.12355952       7.00579001       0.00090820      -0.00128794       0.00157404
