9
Lattice="4.4162317983847394 2.6501241487631867e-07 2.5497123732190783 1.472077449790781 4.163663186054087 2.549712487869728 1.3354990584116288e-07 2.3485178519709698e-07 5.099424515123061" Properties=species:S:1:pos:R:3:forces:R:3 energy=-34.88643264770508 free_energy=-34.88643264770508 stress="-0.0005392300081439316 -1.3663287745657726e-07 -6.384767203826414e-08 -1.3663287745657726e-07 -0.0005394595209509134 -9.914393928056597e-08 -6.384767203826414e-08 -9.914393928056597e-08 -0.0005390809383243322" pbc="T T T"
Ag       1.47207711       1.04091650       2.54971272      -0.00000196      -0.00000019       0.00000084
Ag       4.41623109       3.12274747       7.64913593      -0.00000632      -0.00000058      -0.00000100
N       -0.00000148      -0.00000004       0.00000226       0.00001518      -0.00000168      -0.00000837
O        1.30267924       0.92113256       5.09942447      -0.00444651      -0.00314760      -0.00000180
O        4.58563117       3.24253178       5.09942381       0.00443530       0.00313067       0.00000266
O        3.76489319       0.92113326       3.67786504       0.00222123      -0.00313628      -0.00384188
O        2.12341737       3.24253052       6.52098394      -0.00222087       0.00314867       0.00385869
O        2.12341723       3.24253068       3.67786504      -0.00221968       0.00313997      -0.00385177
O        3.76489328       0.92113265       6.52098482       0.00222540      -0.00313425       0.00384259
