9
Lattice="4.421123018467624 -9.876286327523285e-08 2.5525365457551916 1.473707774696528 4.168273770503017 2.552536208025149 2.0383237312020787e-07 -2.695018910470447e-07 5.105072738462419" Properties=species:S:1:pos:R:3:forces:R:3 energy=-34.886531829833984 free_energy=-34.886531829833984 stress="-0.00025308976182714105 -1.9483954005750093e-08 -1.0825368690348114e-07 -1.9483954005750093e-08 -0.0002528139448259026 2.0980563952832654e-09 -1.0825368690348114e-07 2.0980563952832654e-09 -0.00025295314844697714" pbc="T T T"
Ag       1.47370573       1.04206994       2.55254144      -0.00000243      -0.00001338      -0.00002113
Ag       4.42112293       3.12620554       7.65761310       0.00000625      -0.00002177      -0.00002561
N        0.00000826      -0.00002197      -0.00005022      -0.00002976       0.00008177       0.00018786
O        1.30208332       0.92071900       5.10508179       0.00752950       0.00533533       0.00002531
O        4.59274273       3.24756226       5.10508132      -0.00755811      -0.00532866       0.00001899
O        3.77008040       0.92071490       3.68018163      -0.00371301       0.00525033       0.00644279
O        2.12475366       3.24755977       6.52997103       0.00382054      -0.00539064      -0.00659513
O        2.12474978       3.24756345       3.68018484       0.00373924      -0.00527275       0.00649357
O        3.77007713       0.92072140       6.52997428      -0.00379121       0.00535929      -0.00652695
