9
Lattice="5.728673643089159 3.089648540172154e-08 3.3074512336010624 1.9095579146971424 5.4010453965385 3.3074512257411515 1.5972519988086514e-08 1.6679306025743528e-09 6.61490243953691" Properties=species:S:1:pos:R:3:forces:R:3 energy=-29.691585540771484 free_energy=-29.691585540771484 stress="-4.627457747119479e-05 -1.4080136168104218e-08 -1.7478077318777707e-10 -1.4080136168104218e-08 -4.62956159026362e-05 -2.1958661278187463e-10 -1.7478077318777707e-10 -2.1958661278187463e-10 -4.628313035937026e-05" pbc="T T T"
Ag       1.90955783       1.35026131       3.30745119       0.00000017      -0.00000017      -0.00000002
Ag       5.72867368       4.05078399       9.92235372       0.00000027       0.00000015       0.00000031
P       -0.00000032       0.00000009       0.00000002       0.00000439      -0.00000057      -0.00000011
Se       1.87217408       1.32382691       6.61490228       0.00108075       0.00076431      -0.00000019
Se       5.76605741       4.07721807       6.61490230      -0.00108469      -0.00076783       0.00000002
Se       4.79258685       1.32382725       4.92880164      -0.00054106       0.00076658       0.00093827
Se       2.84564512       4.07721844       8.30100347       0.00054109      -0.00076455      -0.00093666
Se       2.84564505       4.07721830       4.92880170       0.00054058      -0.00076470       0.00093684
Se       4.79258658       1.32382736       8.30100321      -0.00054151       0.00076672      -0.00093806
