9
Lattice="4.52676785919804 1.306865568118503e-07 2.613530438580137 1.508922684565423 4.267877798135407 2.613530539696812 3.547941034823877e-08 1.4892990587823324e-07 5.227060815708121" Properties=species:S:1:pos:R:3:forces:R:3 energy=-42.85973358154297 free_energy=-42.85973358154297 stress="0.0001674750674283132 -1.1023009172106413e-08 6.927793450017816e-09 -1.1023009172106413e-08 0.00016732022049836814 -9.132223510732729e-08 6.927793450017816e-09 -9.132223510732729e-08 0.00016724216402508318" pbc="T T T"
Ag       1.50892260       1.06696946       2.61353045      -0.00000131      -0.00000049       0.00000076
Ag       4.52676796       3.20090851       7.84059145      -0.00000122      -0.00000026       0.00000036
P       -0.00000156       0.00000031       0.00000003      -0.00001486       0.00000030      -0.00000130
O        1.39187853       0.98420659       5.22706088      -0.00194120      -0.00137472      -0.00000079
O        4.64381298       3.28367179       5.22706083       0.00194860       0.00137615      -0.00000029
O        3.83082886       0.98420621       3.81893173       0.00097442      -0.00137496      -0.00168538
O        2.20486220       3.28367163       6.63518976      -0.00097072       0.00137639       0.00168419
O        2.20486206       3.28367170       3.81893186      -0.00096881       0.00137401      -0.00168300
O        3.83082906       0.98420642       6.63519017       0.00097549      -0.00137401       0.00168610
