9
Lattice="5.6901904228757925 1.931871648195852e-08 3.2852329200511345 1.8967301515893098 5.364762926360269 3.285232933185571 5.9204949444859924e-08 5.795050678055953e-08 6.570465737556293" Properties=species:S:1:pos:R:3:forces:R:3 energy=-31.612211227416992 free_energy=-31.612211227416992 stress="2.212218169006519e-05 1.527680382196195e-08 -2.1908716618668223e-08 1.527680382196195e-08 2.2176545826368965e-05 -6.349659464888191e-09 -2.1908716618668223e-08 -6.349659464888191e-09 2.2024003555998206e-05" pbc="T T T"
Ag       1.89673005       1.34119073       3.28523288      -0.00000044      -0.00000052      -0.00000084
Ag       5.69019047       4.02357259       9.85569878       0.00000064       0.00000088       0.00000001
P        0.00000001       0.00000003       0.00000006      -0.00000060      -0.00000084       0.00000241
S        1.77053038       1.25195394       6.57046565       0.00682533       0.00482625       0.00000055
S        5.81639021       4.11280886       6.57046558      -0.00682509      -0.00482637      -0.00000028
S        4.80492518       1.25195402       4.81855707      -0.00341290       0.00482619       0.00591171
S        2.78199532       4.11280920       8.32237474       0.00341398      -0.00482756      -0.00591266
S        2.78199543       4.11280881       4.81855710       0.00341326      -0.00482649       0.00591207
S        4.80492545       1.25195387       8.32237460      -0.00341415       0.00482851      -0.00591290
