9
Lattice="5.395421090918854 -1.7363344611671154e-07 3.1150476844773065 1.7984735721104286 5.086851556971414 3.1150476172032873 -4.778859814468506e-08 -1.161851538824827e-07 6.230095451726919" Properties=species:S:1:pos:R:3:forces:R:3 energy=-34.072200775146484 free_energy=-34.072200775146484 stress="-0.00019421425531618297 -3.453957475585412e-08 1.655156722790707e-08 -3.453957475585412e-08 -0.00019417442672420293 -6.451896794601453e-10 1.655156722790707e-08 -6.451896794601453e-10 -0.00019411176617722958" pbc="T T T"
Ag       1.79847349       1.27171314       3.11504785      -0.00000029       0.00000026       0.00000030
Ag       5.39542080       3.81513816       9.34514306       0.00000018      -0.00000033       0.00000077
Rh       0.00000002      -0.00000006      -0.00000007       0.00000050      -0.00000018       0.00000010
S        1.88562119       1.33333551       6.23009519      -0.00066322      -0.00046846      -0.00000074
S        5.30827336       3.75351577       6.23009513       0.00066358       0.00046894      -0.00000095
S        4.45261037       1.33333558       4.74804398       0.00033233      -0.00047091      -0.00057602
S        2.74128453       3.75351570       7.71214703      -0.00033244       0.00047079       0.00057691
S        2.74128451       3.75351575       4.74804394      -0.00033361       0.00047177      -0.00057811
S        4.45261023       1.33333558       7.71214697       0.00033262      -0.00047252       0.00057763
