9
Lattice="5.5970163270857975 8.903439435564463e-09 3.231438991579018 1.8656721241233278 5.276918000218456 3.2314389799734267 1.0650920968534918e-08 -6.682530872008021e-09 6.462877964710097" Properties=species:S:1:pos:R:3:forces:R:3 energy=-34.022335052490234 free_energy=-34.022335052490234 stress="0.00019952989532612264 1.415050121522654e-08 1.6579846828790323e-08 1.415050121522654e-08 0.00019947535474784672 -1.5665754915517027e-08 1.6579846828790323e-08 -1.5665754915517027e-08 0.00019950087880715728" pbc="T T T"
Ag       1.86567207       1.31922956       3.23143891       0.00000015       0.00000013      -0.00000062
Ag       5.59701628       3.95768843       9.69431697      -0.00000034      -0.00000047       0.00000015
Ru      -0.00000011      -0.00000052      -0.00000035      -0.00000096       0.00000183       0.00000101
Se       2.03677746       1.44021917       6.46287787      -0.00592752      -0.00419197       0.00000009
Se       5.42591126       3.83669906       6.46287790       0.00592809       0.00419097      -0.00000027
Se       4.57862780       1.44021907       4.99534000       0.00296355      -0.00419109      -0.00513209
Se       2.88406068       3.83669934       7.93041645      -0.00296326       0.00418995       0.00513282
Se       2.88406080       3.83669916       4.99533964      -0.00296343       0.00419245      -0.00513406
Se       4.57862765       1.44021873       7.93041634       0.00296372      -0.00419185       0.00513293
