9
Lattice="4.893994034249127 -1.7968758456595224e-08 2.825548719665975 1.6313313473784299 4.61410155778617 2.825548685770013 3.5266493039361305e-08 -1.6576767707105628e-08 5.651097378248702" Properties=species:S:1:pos:R:3:forces:R:3 energy=-39.098228454589844 free_energy=-39.098228454589844 stress="0.0004501085786614567 -3.925691771655693e-08 -5.258999902224559e-09 -3.925691771655693e-08 0.00045020401012152433 -1.3677458055028069e-09 -5.258999902224559e-09 -1.3677458055028069e-09 0.00045025176950730383" pbc="T T T"
Ag       1.63133142       1.15352514       2.82554882      -0.00000003      -0.00000047       0.00000064
Ag       4.89399410       3.46057590       8.47664593       0.00000048      -0.00000070      -0.00000127
Rh      -0.00000028      -0.00000033      -0.00000020       0.00000564       0.00000527       0.00000723
O        1.56402934       1.10593550       5.65109723      -0.00701964      -0.00496328       0.00000117
O        4.96129612       3.50816605       5.65109719       0.00701171       0.00495845       0.00000121
O        4.11197857       1.10593644       4.18003860       0.00351080      -0.00496513      -0.00608104
O        2.41334610       3.50816556       7.12215660      -0.00350809       0.00495988       0.00607479
O        2.41334659       3.50816516       4.18003838      -0.00351071       0.00496513      -0.00607961
O        4.11197998       1.10593657       7.12215643       0.00350952      -0.00495899       0.00607640
