9
Lattice="5.571737933853293 3.3869033528345204e-10 3.2168445557300815 1.8572459624073545 5.253085127015369 3.216844583205685 3.030102628253465e-08 5.507669023629146e-08 6.433689058977168" Properties=species:S:1:pos:R:3:forces:R:3 energy=-32.419376373291016 free_energy=-32.419376373291016 stress="-0.00010631444456521422 1.901996249387139e-08 -6.391612572542726e-09 1.901996249387139e-08 -0.00010634610953275114 8.711667831562409e-09 -6.391612572542726e-09 8.711667831562409e-09 -0.00010636718798195943" pbc="T T T"
Ag       1.85724608       1.31327138       3.21684453       0.00000044       0.00000029      -0.00000017
Ag       5.57173796       3.93981392       9.65053352      -0.00000030       0.00000005      -0.00000003
Rh       0.00000017       0.00000025      -0.00000044       0.00000006      -0.00000051       0.00000172
Se       2.06807130       1.46234740       6.43368906      -0.00508018      -0.00359253      -0.00000017
Se       5.36091199       3.79073740       6.43368921       0.00508045       0.00359271      -0.00000023
Se       4.53770219       1.46234747       5.00784674       0.00253943      -0.00359189      -0.00439918
Se       2.89128178       3.79073809       7.85953157      -0.00253978       0.00359232       0.00439855
Se       2.89128176       3.79073786       5.00784696      -0.00253980       0.00359225      -0.00439978
Se       4.53770251       1.46234702       7.85953173       0.00253977      -0.00359273       0.00439928
