9
Lattice="5.351667589487542 -5.5722594008882244e-08 3.0897868705452654 1.7838891395669734 5.045600481247841 3.089786878154295 -7.45934672721323e-09 4.044633701474892e-09 6.179573754010472" Properties=species:S:1:pos:R:3:forces:R:3 energy=-35.76170349121094 free_energy=-35.76170349121094 stress="0.000197774323169142 -1.4850705554181332e-08 1.1713368053278828e-08 -1.4850705554181332e-08 0.00019777203851845115 -2.995399839278434e-08 1.1713368053278828e-08 -2.995399839278434e-08 0.00019778497517108917" pbc="T T T"
Ag       1.78388966       1.26140008       3.08978715       0.00000674      -0.00000080       0.00000289
Ag       5.35166810       3.78420029       9.26936104       0.00000686      -0.00000020       0.00000292
Ru       0.00000639      -0.00000036       0.00000243       0.00005042      -0.00000301       0.00001879
S        1.88804715       1.33505153       6.17957371       0.00291532       0.00206730      -0.00000287
S        5.24750585       3.71054716       6.17957349      -0.00294000      -0.00207299      -0.00000347
S        4.40764234       1.33505265       4.72488540      -0.00147241       0.00207183       0.00253361
S        2.72791287       3.71054832       7.63426201       0.00145438      -0.00206915      -0.00253755
S        2.72791252       3.71054875       4.72488436       0.00145224      -0.00206593       0.00252742
S        4.40764188       1.33505332       7.63426039      -0.00147325       0.00207320      -0.00254142
