9
Lattice="5.80685245983365 3.823512242848206e-08 3.3525878104262894 1.9356175241456715 5.4747529555136865 3.352587807852337 1.0515982781393518e-07 7.120685647828919e-08 6.7051754387104365" Properties=species:S:1:pos:R:3:forces:R:3 energy=-28.470800399780273 free_energy=-28.470800399780273 stress="2.308134935447015e-05 -4.0444856352905845e-09 -1.773239866054155e-08 -4.0444856352905845e-09 2.310411582584493e-05 1.511775060691889e-08 -1.773239866054155e-08 1.511775060691889e-08 2.3088268790161237e-05" pbc="T T T"
Ag       1.93561790       1.36868800       3.35258780       0.00000036      -0.00000023       0.00000041
Ag       5.80685247       4.10606492      10.05776315      -0.00000033       0.00000014      -0.00000032
Sb       0.00000064       0.00000155       0.00000009      -0.00000951      -0.00003379       0.00000070
S        2.00021592       1.41436629       6.70517535      -0.00070792      -0.00050247       0.00000057
S        5.74225254       4.06038614       6.70517566       0.00073421       0.00051871       0.00000011
S        4.80674419       1.41436640       5.08482592       0.00035602      -0.00050786      -0.00061947
S        2.93572626       4.06038625       8.32552449      -0.00036541       0.00051478       0.00063157
S        2.93572610       4.06038616       5.08482643      -0.00036424       0.00051510      -0.00063199
S        4.80674435       1.41436661       8.32552533       0.00035638      -0.00050449       0.00061846
