9
Lattice="5.807796366977626 6.532334624032791e-08 3.3531328255009636 1.935932179903351 5.475642943557436 3.3531328324464083 6.858177645712407e-08 5.700105200537867e-08 6.706265532214761" Properties=species:S:1:pos:R:3:forces:R:3 energy=-28.470792770385742 free_energy=-28.470792770385742 stress="0.0001348109362879768 -2.9553691049954978e-08 2.420500244681989e-08 -2.9553691049954978e-08 0.00013482730719260871 -1.9734132550297545e-08 2.420500244681989e-08 -1.9734132550297545e-08 0.0001348978839814663" pbc="T T T"
Ag       1.93593200       1.36891080       3.35313296      -0.00000036      -0.00000052      -0.00000040
Ag       5.80779650       4.10673228      10.05939865       0.00000066       0.00000018       0.00000078
Sb       0.00000015       0.00000015       0.00000018      -0.00000234      -0.00000289      -0.00000028
S        2.00023299       1.41437813       6.70626513      -0.00040710      -0.00028837      -0.00000246
S        5.74349548       4.06126467       6.70626521       0.00041068       0.00029019      -0.00000157
S        4.80768018       1.41437814       5.08538571       0.00020453      -0.00028938      -0.00035316
S        2.93604874       4.06126462       8.32714541      -0.00020534       0.00028980       0.00035584
S        2.93604865       4.06126472       5.08538572      -0.00020596       0.00029108      -0.00035566
S        4.80767978       1.41437869       8.32714595       0.00020513      -0.00029007       0.00035703
