9
Lattice="4.676008360676593 -7.05034252978288e-08 2.6996949253450198 1.558669355096361 4.408583204013479 2.6996949807554795 2.233592524714311e-08 8.365757657740796e-08 5.399389812003073" Properties=species:S:1:pos:R:3:forces:R:3 energy=-38.08213806152344 free_energy=-38.08213806152344 stress="4.010114571428858e-05 -4.775929340894436e-08 -2.4971656742422965e-08 -4.775929340894436e-08 4.022108987555839e-05 3.9249872685331866e-08 -2.4971656742422965e-08 3.9249872685331866e-08 4.037404869450256e-05" pbc="T T T"
Ag       1.55866963       1.10214573       2.69969470      -0.00000022       0.00000017      -0.00000146
Ag       4.67600808       3.30643732       8.09908495       0.00000025      -0.00000122      -0.00000019
Sb      -0.00000021       0.00000003       0.00000023       0.00000702      -0.00000059      -0.00000120
O        1.65555818       1.17065629       5.39939016      -0.00117946      -0.00083405       0.00000038
O        4.57911980       3.23792720       5.39939003       0.00117457       0.00083238       0.00000015
O        3.84822940       1.17065684       4.13345060       0.00058997      -0.00083369      -0.00102246
O        2.38644846       3.23792631       6.66532885      -0.00059271       0.00083673       0.00102413
O        2.38644840       3.23792645       4.13345052      -0.00059032       0.00083530      -0.00102341
O        3.84822924       1.17065679       6.66532883       0.00059032      -0.00083500       0.00102341
