9
Lattice="5.799743140797968 -9.602790880205846e-08 3.34848342628417 1.9332475911013711 5.468050220232825 3.3484834816438975 -4.7962377461931066e-08 3.388702120368449e-08 6.696966935641603" Properties=species:S:1:pos:R:3:forces:R:3 energy=-28.885684967041016 free_energy=-28.885684967041016 stress="-1.1492608791741077e-05 -1.017491313426433e-09 6.865847890225041e-09 -1.017491313426433e-09 -1.147652801591903e-05 -1.3140348531504031e-10 6.865847890225041e-09 -1.3140348531504031e-10 -1.1492885278130416e-05" pbc="T T T"
Ag       1.93324757       1.36701252       3.34848342       0.00000000       0.00000011       0.00000007
Ag       5.79974287       4.10103749      10.04545044      -0.00000004      -0.00000022       0.00000022
Sb       0.00000011      -0.00000001      -0.00000022      -0.00000017       0.00000106       0.00000128
Se       2.28220712       1.61376436       6.69696704       0.00009358       0.00006640      -0.00000017
Se       5.45078366       3.85428583       6.69696708      -0.00009342      -0.00006663      -0.00000010
Se       4.65863926       1.61376432       5.32493282      -0.00004647       0.00006586       0.00008032
Se       3.07435127       3.85428604       8.06900076       0.00004651      -0.00006639      -0.00008124
Se       3.07435152       3.85428585       5.32493321       0.00004679      -0.00006626       0.00008044
Se       4.65863929       1.61376425       8.06900086      -0.00004677       0.00006601      -0.00008088
