9
Lattice="5.799299640911436 1.6337374960883744e-07 3.3482272167785503 1.9330999305842635 5.467632804481187 3.3482273964785136 -1.1874698147669898e-07 1.3611977330127212e-07 6.6964546392328765" Properties=species:S:1:pos:R:3:forces:R:3 energy=-28.88568115234375 free_energy=-28.88568115234375 stress="-0.00011537585669429973 6.75282585405057e-09 -1.6077132514169534e-08 6.75282585405057e-09 -0.00011540176637936383 1.5154780541593027e-08 -1.6077132514169534e-08 1.5154780541593027e-08 -0.00011540947161847726" pbc="T T T"
Ag       1.93310002       1.36690830       3.34822745      -0.00000034       0.00000011      -0.00000007
Ag       5.79929951       4.10072469      10.04468197      -0.00000004      -0.00000018      -0.00000046
Sb      -0.00000078      -0.00000034      -0.00000003       0.00000429       0.00000210       0.00000155
Se       2.28202141       1.61363299       6.69645487      -0.00135405      -0.00095717      -0.00000032
Se       5.45037840       3.85400010       6.69645471       0.00135215       0.00095531      -0.00000028
Se       4.65828868       1.61363304       5.32451565       0.00067519      -0.00095662      -0.00117147
Se       3.07411079       3.85400013       8.06839331      -0.00067680       0.00095652       0.00117132
Se       3.07411084       3.85400022       5.32451577      -0.00067599       0.00095536      -0.00117029
Se       4.65828898       1.61363325       8.06839331       0.00067569      -0.00095543       0.00117002
