9
Lattice="6.421800711444933 6.466830825172787e-08 3.707628264611529 2.140600248483512 6.054531832838959 3.7076283505813357 -8.564492614846187e-08 4.473100153777505e-08 7.415256677564389" Properties=species:S:1:pos:R:3:forces:R:3 energy=-25.44008445739746 free_energy=-25.44008445739746 stress="-0.0002122684963978827 1.5398229358254412e-09 -4.092553851364755e-09 1.5398229358254412e-09 -0.00021227677643764764 6.223509485536738e-10 -4.092553851364755e-09 6.223509485536738e-10 -0.00021226851094979793" pbc="T T T"
Ag       2.14060024       1.51363324       3.70762825       0.00000004       0.00000075      -0.00000004
Ag       6.42180064       4.54089885      11.12288515      -0.00000007      -0.00000059      -0.00000009
Sb       0.00000012      -0.00000013       0.00000010      -0.00000070      -0.00000027      -0.00000004
Te       2.37635279       1.68033551       7.41525662      -0.00392599      -0.00277545      -0.00000007
Te       6.18604801       4.37419645       7.41525645       0.00392652       0.00277606       0.00000003
Te       5.23362420       1.68033544       5.76561018       0.00196298      -0.00277630      -0.00339970
Te       3.32877676       4.37419649       9.06490306      -0.00196243       0.00277542       0.00340012
Te       3.32877650       4.37419675       5.76561026      -0.00196330       0.00277632      -0.00340007
Te       5.23362425       1.68033517       9.06490309       0.00196294      -0.00277593       0.00339982
