9
Lattice="6.4241289665783965 -4.0923615561414446e-08 3.708972334260105 2.141376333099934 6.056727016654829 3.7089722485404173 -5.718267848044677e-08 -1.4541890243314343e-07 7.417944767563414" Properties=species:S:1:pos:R:3:forces:R:3 energy=-25.440120697021484 free_energy=-25.440120697021484 stress="2.4227781977970153e-05 6.010543529555434e-08 -1.661869863944787e-09 6.010543529555434e-08 2.4167513402062468e-05 8.557604402881225e-09 -1.661869863944787e-09 8.557604402881225e-09 2.4161690816981718e-05" pbc="T T T"
Ag       2.14137616       1.51418138       3.70897235      -0.00000114      -0.00000197      -0.00000001
Ag       6.42412906       4.54254554      11.12691657       0.00000049       0.00000042      -0.00000074
Sb       0.00000033       0.00000035      -0.00000048      -0.00000085      -0.00000068       0.00000241
Te       2.37645907       1.68041073       7.41794521       0.00199772       0.00141162      -0.00000015
Te       6.18904412       4.37631492       7.41794529      -0.00199467      -0.00141051       0.00000023
Te       5.23589998       1.68041011       5.76704651      -0.00099992       0.00141332       0.00173146
Te       3.32960633       4.37631697       9.06884235       0.00099850      -0.00141081      -0.00173134
Te       3.32960626       4.37631718       5.76704685       0.00099977      -0.00141289       0.00173019
Te       5.23589964       1.68041014       9.06884273      -0.00099982       0.00141153      -0.00173198
