9
Lattice="4.6757189117835445 -6.8668589971857e-07 2.6995273633043615 1.5585722295064457 4.408307907373773 2.699527525553568 2.5580104763343844e-07 3.7959278462802063e-07 5.399054283547889" Properties=species:S:1:pos:R:3:forces:R:3 energy=-38.082122802734375 free_energy=-38.082122802734375 stress="-0.0003442184824962169 -1.4472031750756287e-07 -1.1674475075551527e-07 -1.4472031750756287e-07 -0.00034414909896440804 -1.5948147336075635e-07 -1.1674475075551527e-07 -1.5948147336075635e-07 -0.0003440853615757078" pbc="T T T"
Ag       1.55857329       1.10207629       2.69952856       0.00000321      -0.00000220       0.00000574
Ag       4.67571688       3.30623080       8.09858720      -0.00000735       0.00000066       0.00001854
Sb       0.00000013       0.00000047       0.00000077      -0.00000312      -0.00000322      -0.00002070
O        1.65522555       1.17041958       5.39905304       0.00570893       0.00403595      -0.00000219
O        4.57906609       3.23788841       5.39905165      -0.00570798      -0.00403392      -0.00000627
O        3.84810680       1.17042075       4.13299363      -0.00284821       0.00403607       0.00494194
O        2.38618476       3.23788834       6.66511459       0.00285006      -0.00402921      -0.00494039
O        2.38618588       3.23788640       4.13299266       0.00285399      -0.00403482       0.00493824
O        3.84810553       1.17042084       6.66511523      -0.00284994       0.00403136      -0.00493479
