9
Lattice="4.901830992234751 7.772686796872121e-07 2.830073537211072 1.6339443131120526 4.621491288889934 2.8300736823258434 7.074541215510012e-07 6.779739414924657e-07 5.660145849075625" Properties=species:S:1:pos:R:3:forces:R:3 energy=-50.26053237915039 free_energy=-50.26053237915039 stress="6.36516097074491e-06 -2.490597239557246e-07 -1.364710158213711e-07 -2.490597239557246e-07 6.614051926590037e-06 2.996629575591214e-07 -1.364710158213711e-07 2.996629575591214e-07 6.832768121967092e-06" pbc="T T T"
Ag       1.63394329       1.15537344       2.83006980      -0.00000386       0.00000248      -0.00000878
Ag       4.90182965       3.46611895       8.49022097      -0.00000366      -0.00000297       0.00000338
Ta      -0.00000010       0.00000013       0.00000041       0.00000856      -0.00000478       0.00000033
O        1.61419533       1.14140857       5.66014938      -0.00031608      -0.00023025       0.00000445
O        4.92158256       3.48008356       5.66014722       0.00031215       0.00022018       0.00000213
O        4.09473438       1.14141214       4.22800700       0.00016969      -0.00023580      -0.00029325
O        2.44104284       3.48008330       7.09228438      -0.00016645       0.00024354       0.00029999
O        2.44104111       3.48008258       4.22800814      -0.00016081       0.00023305      -0.00028402
O        4.09473528       1.14140858       7.09228563       0.00015995      -0.00022584       0.00027627
