9
Lattice="5.721892285373231 1.684991507426847e-08 3.3035358502745518 1.9072974194982877 5.3946520773796935 3.3035358933086507 6.475993974024026e-09 5.72849894441977e-08 6.607071689332246" Properties=species:S:1:pos:R:3:forces:R:3 energy=-37.87702178955078 free_energy=-37.87702178955078 stress="-4.543169779935852e-05 -4.280290966107714e-08 3.695787853530419e-08 -4.280290966107714e-08 -4.5416214561555535e-05 -2.5929399072310844e-08 3.695787853530419e-08 -2.5929399072310844e-08 -4.530891965259798e-05" pbc="T T T"
Ag       1.90729745       1.34866286       3.30353589      -0.00000025       0.00000019       0.00000019
Ag       5.72189241       4.04598918       9.91060778      -0.00000013       0.00000024      -0.00000001
Ta       0.00000008       0.00000019       0.00000022       0.00000087      -0.00000286      -0.00000366
Se       2.06388901       1.45938992       6.60707171       0.00327119       0.00231264      -0.00000026
Se       5.56530059       3.93526175       6.60707140      -0.00327032      -0.00231364      -0.00000042
Se       4.68994785       1.45939033       5.09091612      -0.00163466       0.00231376       0.00283296
Se       2.93924192       3.93526196       8.12322717       0.00163460      -0.00231094      -0.00283055
Se       2.93924199       3.93526194       5.09091650       0.00163342      -0.00231078       0.00283112
Se       4.68994758       1.45939048       8.12322688      -0.00163468       0.00231127      -0.00282946
