9
Lattice="6.2803833434040754 -6.180200271755546e-08 3.625980958687689 2.093461059218891 5.9212021361091685 3.6259809534597927 6.439762662943577e-09 -1.8492453020071372e-09 7.2519619062214" Properties=species:S:1:pos:R:3:forces:R:3 energy=-34.92158126831055 free_energy=-34.92158126831055 stress="0.00016061175847426057 -1.1148229894786255e-08 1.8889545483347092e-09 -1.1148229894786255e-08 0.00016060154302977026 -4.150182864037788e-09 1.8889545483347092e-09 -4.150182864037788e-09 0.00016062831855379045" pbc="T T T"
Ag       2.09346137       1.48030047       3.62598095       0.00000018       0.00000041      -0.00000004
Ag       6.28038332       4.44090149      10.87794258      -0.00000026      -0.00000031       0.00000043
Ta      -0.00000031       0.00000025       0.00000017       0.00000198      -0.00000071      -0.00000044
Te       2.22779598       1.57528953       7.25196191      -0.00507779      -0.00359152      -0.00000038
Te       6.14604835       4.34591256       7.25196188       0.00507763       0.00359026      -0.00000066
Te       5.16648524       1.57528961       5.55530887       0.00253890      -0.00359076      -0.00439788
Te       3.20735914       4.34591237       8.94861503      -0.00253961       0.00359186       0.00439923
Te       3.20735911       4.34591229       5.55530884      -0.00253994       0.00359215      -0.00439912
Te       5.16648542       1.57528971       8.94861500       0.00253887      -0.00359136       0.00439878
