9
Lattice="4.7927412075082625 -1.0309047202417804e-08 2.7670905016084406 1.5975804051800309 4.518639620772833 2.7670904801366745 -3.856015345583866e-08 -5.356360537637564e-08 5.534181070005024" Properties=species:S:1:pos:R:3:forces:R:3 energy=-41.930328369140625 free_energy=-41.930328369140625 stress="0.00020761220366694033 3.0694273789322324e-09 -1.7744378411066464e-08 3.0694273789322324e-09 0.00020765437511727214 5.997213037289839e-08 -1.7744378411066464e-08 5.997213037289839e-08 0.0002076237287838012" pbc="T T T"
Ag       1.59758030       1.12965998       2.76709046      -0.00000042      -0.00000036      -0.00000001
Ag       4.79274092       3.38897983       8.30127173      -0.00000046       0.00000075       0.00000030
Y        0.00000020      -0.00000002       0.00000017      -0.00000125       0.00000069      -0.00000101
O        1.81414533       1.28279430       5.53418102       0.00589457       0.00416774      -0.00000089
O        4.57617626       3.23584509       5.53418074      -0.00589308      -0.00416599      -0.00000105
O        3.88566864       1.28279433       4.33818666      -0.00294657       0.00416648       0.00510344
O        2.50465313       3.23584495       6.73017565       0.00294624      -0.00416645      -0.00510326
O        2.50465310       3.23584522       4.33818624       0.00294726      -0.00416900       0.00510505
O        3.88566846       1.28279455       6.73017554      -0.00294636       0.00416626      -0.00510272
