9
Lattice="5.880523008626684 -7.53212404132779e-08 3.395121387506299 1.9601742087798482 5.544210330368668 3.395121485220893 -4.3479500096464965e-08 8.893083961869542e-08 6.790242850321339" Properties=species:S:1:pos:R:3:forces:R:3 energy=-32.163333892822266 free_energy=-32.163333892822266 stress="-0.00011010443995473906 8.946097196371738e-09 2.596835990686941e-08 8.946097196371738e-09 -0.00011004776752088219 -1.7734654633727587e-08 2.596835990686941e-08 -1.7734654633727587e-08 -0.00011012496543116868" pbc="T T T"
Ag       1.96017435       1.38605289       3.39512103       0.00000022       0.00000001      -0.00000045
Ag       5.88052287       4.15815762      10.18536488      -0.00000020      -0.00000029       0.00000131
Y        0.00000003      -0.00000016       0.00000050       0.00000046       0.00000071      -0.00000150
S        2.20155566       1.55673543       6.79024313       0.00560153       0.00395946      -0.00000066
S        5.63914144       3.98747540       6.79024256      -0.00560211      -0.00396095      -0.00000065
S        4.77974547       1.55673476       5.30172442      -0.00280169       0.00396235       0.00485267
S        3.06095192       3.98747471       8.27876150       0.00280156      -0.00396054      -0.00485121
S        3.06095207       3.98747539       5.30172426       0.00280058      -0.00396077       0.00485203
S        4.77974487       1.55673532       8.27876065      -0.00280034       0.00396006      -0.00485135
