9
Lattice="6.084364732488169 5.60506277624179e-07 3.512809509346243 2.028122003390328 5.73639435882765 3.512809686978472 -1.8759570988788782e-07 8.490406992935734e-08 7.025619343617725" Properties=species:S:1:pos:R:3:forces:R:3 energy=-30.633010864257812 free_energy=-30.633010864257812 stress="0.0002069125766865909 -1.2551944905681012e-07 1.76677943386494e-08 -1.2551944905681012e-07 0.00020680789020843804 2.1135708294650613e-08 1.76677943386494e-08 2.1135708294650613e-08 0.00020684284390881658" pbc="T T T"
Ag       2.02812212       1.43409871       3.51280912       0.00000140      -0.00000026      -0.00000201
Ag       6.08436426       4.30229605      10.53842938      -0.00000134      -0.00000020       0.00000044
Y        0.00000015      -0.00000010       0.00000107       0.00000012      -0.00000008       0.00000772
Se       2.34277045       1.65658779       7.02562063      -0.00332673      -0.00236014       0.00001037
Se       5.76971685       4.07980705       7.02561978       0.00333102       0.00235935       0.00000772
Se       4.91298095       1.65658667       5.54170821       0.00167495      -0.00237559      -0.00288688
Se       3.19950857       4.07980249       8.50952992      -0.00165032       0.00233012       0.00288151
Se       3.19950560       4.07980857       5.54170693      -0.00167474       0.00237724      -0.00289325
Se       4.91297717       1.65659280       8.50952915       0.00164567      -0.00233045       0.00287430
