9
Lattice="5.390142117381463 -3.797008713105135e-06 3.1119948535828477 1.7967105446222045 5.08187447755521 3.111994705752582 1.071034638047463e-06 5.762817338625962e-07 6.223987852078788" Properties=species:S:1:pos:R:3:forces:R:3 energy=-30.01691436767578 free_energy=-30.01691436767578 stress="0.00016010623949114233 3.9301885408349335e-06 -9.772845714905998e-07 3.9301885408349335e-06 0.0001572180917719379 -5.810988454868493e-07 -9.772845714905998e-07 -5.810988454868493e-07 0.00017133131041191518" pbc="T T T"
As       1.79676975       1.27045811       3.11198432       0.00059347      -0.00012343      -0.00010500
As       5.39010381       3.81131605       9.33598842      -0.00039889      -0.00091182       0.00006256
Be       0.00000105      -0.00001242       0.00000025       0.00004249      -0.00017596      -0.00002651
Se       1.62323511       1.14785477       6.22399824      -0.00423539      -0.00241277       0.00010707
Se       5.56356033       3.93407709       6.22398584       0.00356472       0.00303328      -0.00004541
Se       4.57849688       1.14786154       4.51772958       0.00183868      -0.00224346      -0.00400764
Se       2.60836735       3.93402971       7.93021558      -0.00168395       0.00250807       0.00355458
Se       2.60838397       3.93403952       4.51775941      -0.00152394       0.00259483      -0.00354946
Se       4.57849679       1.14786013       7.93024825       0.00180286      -0.00226876       0.00400954
