9
Lattice="5.025905905300677 5.217086792113365e-08 2.9017084509027042 1.6753020666697114 4.738469728180227 2.9017083659474636 7.71788459211778e-08 -4.947481259911886e-08 5.803416768127705" Properties=species:S:1:pos:R:3:forces:R:3 energy=-31.5550537109375 free_energy=-31.5550537109375 stress="-2.2309550331556238e-05 -3.061210307464535e-08 -3.977709184255218e-08 -3.061210307464535e-08 -2.2423084374167956e-05 9.248592114374787e-09 -3.977709184255218e-08 9.248592114374787e-09 -2.2479234758066013e-05" pbc="T T T"
As       1.67530241       1.18461772       2.90170814       0.00000871      -0.00000266       0.00000067
As       5.02590742       3.55385078       8.70512615       0.00001144      -0.00001050       0.00000579
Be       0.00000010      -0.00000007       0.00000060      -0.00000024       0.00000223      -0.00000186
S        1.71028084       1.20935020       5.80341665      -0.00067690      -0.00046723      -0.00000183
S        4.99092743       3.52911918       5.80341712       0.00066103       0.00047193       0.00000126
S        4.17076502       1.20935182       4.38285476       0.00033629      -0.00046778      -0.00058857
S        2.53044199       3.52911885       7.22397875      -0.00034081       0.00047394       0.00057258
S        2.53044191       3.52911931       4.38285437      -0.00033601       0.00047199      -0.00057210
S        4.17076507       1.20935109       7.22397786       0.00033667      -0.00047189       0.00058387
