9
Lattice="4.097316756795002 -4.2167770855607307e-08 2.365586918216124 1.365772224822784 3.86298710502317 2.365586896887739 8.130727749308386e-08 3.137111000582167e-08 4.731173695603905" Properties=species:S:1:pos:R:3:forces:R:3 energy=-46.88752365112305 free_energy=-46.88752365112305 stress="0.00010621992987580597 1.3642666374380497e-07 -2.1657561433130468e-07 1.3642666374380497e-07 0.0001062243536580354 7.257399659010844e-08 -2.1657561433130468e-07 7.257399659010844e-08 0.00010605526767903939" pbc="T T T"
As       1.36577123       0.96574305       2.36558407      -0.00003327      -0.00011375      -0.00011136
As       4.09731634       2.89723999       7.09675155      -0.00001577      -0.00001930      -0.00028076
B       -0.00000003      -0.00000009       0.00000009      -0.00000133       0.00000221      -0.00000384
O        1.28121520       0.90595555       4.73117491      -0.00190318      -0.00133872       0.00005050
O        4.18187422       2.95703171       4.73117768       0.00189662       0.00136864       0.00012159
O        3.45670963       0.90595455       3.47515325       0.00096536      -0.00137842      -0.00159514
O        2.00638107       2.95703259       5.98719673      -0.00089914       0.00137055       0.00168335
O        2.00637915       2.95703337       3.47515387      -0.00096995       0.00140142      -0.00157785
O        3.45670940       0.90595752       5.98719800       0.00096148      -0.00129461       0.00171256
