9
Lattice="5.281659746806659 -1.9253333998205582e-06 3.0493664161646454 1.7605515099753226 4.979591973720351 3.0493662840757403 -2.9764684653848235e-08 -1.828220265179963e-07 6.098732883883212" Properties=species:S:1:pos:R:3:forces:R:3 energy=-34.351924896240234 free_energy=-34.351924896240234 stress="5.406790296547115e-05 1.2405698157635925e-07 3.717663332736265e-08 1.2405698157635925e-07 5.4282623750623316e-05 2.037446122926667e-08 3.717663332736265e-08 2.037446122926667e-08 5.4446929425466806e-05" pbc="T T T"
As       1.76055131       1.24490373       3.04935898      -0.00001494       0.00004917      -0.00007140
As       5.28165999       3.73469523       9.14809400       0.00001975       0.00003966      -0.00005281
B        0.00000036       0.00000017       0.00000014      -0.00000033      -0.00000104      -0.00000086
S        1.64650531       1.16425175       6.09873584       0.00030124       0.00020775       0.00002481
S        5.39570644       3.81533476       6.09873554      -0.00029272      -0.00023672       0.00002171
S        4.45840657       1.16424952       4.47528448      -0.00014621       0.00019792       0.00027806
S        2.58380378       3.81533461       7.72218488       0.00013661      -0.00023642      -0.00023195
S        2.58380428       3.81533846       4.47528450       0.00014210      -0.00022060       0.00027248
S        4.45840655       1.16425154       7.72218377      -0.00014555       0.00020069      -0.00024006
