9
Lattice="4.136746720887956 -1.0725434446333455e-08 2.3883517557406355 1.3789155324654283 3.900162254640231 2.3883518095240306 -5.3406280201856685e-08 2.810698129028613e-08 4.776703603983669" Properties=species:S:1:pos:R:3:forces:R:3 energy=-42.284385681152344 free_energy=-42.284385681152344 stress="0.00048567369231022894 8.622225600163347e-09 1.4862060027098778e-07 8.622225600163347e-09 0.00048570323269814253 1.0474172285057648e-07 1.4862060027098778e-07 1.0474172285057648e-07 0.00048573192907497287" pbc="T T T"
As       1.37891553       0.97503938       2.38835238      -0.00000104      -0.00003884       0.00002062
As       4.13674441       2.92512176       7.16505283      -0.00007141      -0.00000160      -0.00008435
Be      -0.00000010      -0.00000006      -0.00000004      -0.00000055       0.00000113      -0.00000057
O        1.36332331       0.96401499       4.77670346      -0.00509989      -0.00362074      -0.00000771
O        4.15233893       2.93614771       4.77670474       0.00510150       0.00362253       0.00003850
O        3.45508500       0.96401497       3.56902441       0.00254920      -0.00361991      -0.00442028
O        2.06057902       2.93614785       5.98438342      -0.00250077       0.00363076       0.00444061
O        2.06057737       2.93614721       3.56902442      -0.00254181       0.00361872      -0.00442183
O        3.45508525       0.96401543       5.98438295       0.00256446      -0.00359237       0.00443435
