9
Lattice="4.381696983335182 -2.4625902516265107e-07 2.529773506950903 1.4605652373364106 4.1311051635080895 2.5297738388120106 -1.1398031058621724e-06 -3.9951728391966577e-07 5.059548988098587" Properties=species:S:1:pos:R:3:forces:R:3 energy=-47.23366165161133 free_energy=-47.23366165161133 stress="-1.5184555195446592e-05 3.0188687105692225e-07 6.319448431213459e-08 3.0188687105692225e-07 -1.5196801541605964e-05 2.9358295705605997e-07 6.319448431213459e-08 2.9358295705605997e-07 -1.4659463886346202e-05" pbc="T T T"
As       1.46057380       1.03278288       2.52977988       0.00014241       0.00003668       0.00006655
As       4.38169096       3.09833647       7.58932480      -0.00008175       0.00014708       0.00003180
Co       0.00000159       0.00000102      -0.00000088      -0.00001146      -0.00000428       0.00000219
N        1.50194413       1.06202526       5.05955347       0.00017458       0.00004736       0.00002696
N        4.34032605       3.06906897       5.05955322      -0.00010416      -0.00016442       0.00003851
N        3.63071078       1.06202562       3.83048527      -0.00022465       0.00005603       0.00006896
N        2.21153344       3.06907879       6.28859774       0.00006470      -0.00005040      -0.00016594
N        2.21154558       3.06907245       3.83048401       0.00017858      -0.00014111       0.00004387
N        3.63071899       1.06202784       6.28860539      -0.00013901       0.00007278      -0.00011319
