9
Lattice="4.007165518265755 1.144036524909379e-08 2.313538120788631 1.3357218501930188 3.777991830182057 2.3135381208145693 -1.126849637053144e-08 -7.936259054365146e-09 4.627076261094872" Properties=species:S:1:pos:R:3:forces:R:3 energy=-45.982177734375 free_energy=-45.982177734375 stress="0.00019882481137756258 -1.1667413701843543e-07 -4.758235405688538e-08 -1.1667413701843543e-07 0.00019901213818229735 -1.6895372212388793e-08 -4.758235405688538e-08 -1.6895372212388793e-08 0.00019912033167202026" pbc="T T T"
As       1.33572123       0.94449806       2.31353835      -0.00001676      -0.00000228       0.00000523
As       4.00716490       2.83349348       6.94061467      -0.00001450      -0.00000817       0.00001416
C       -0.00000012      -0.00000009       0.00000018       0.00000155       0.00000238      -0.00000155
O        1.23881761       0.87597612       4.62707605      -0.00113595      -0.00080502      -0.00000388
O        4.10407002       2.90201566       4.62707625       0.00114536       0.00080395      -0.00000593
O        3.38775716       0.87597629       3.38638528       0.00057405      -0.00079799      -0.00098550
O        1.95513075       2.90201580       5.86776695      -0.00056541       0.00080717       0.00098348
O        1.95513082       2.90201576       3.38638544      -0.00056386       0.00080550      -0.00099039
O        3.38775705       0.87597624       5.86776692       0.00057524      -0.00080514       0.00098276
