9
Lattice="4.162115403703066 1.1174888711653616e-09 2.4029984484066143 1.3873718085476674 3.9240799237842405 2.4029984375644333 3.898674395228493e-08 1.4288895052457344e-08 4.805996829286206" Properties=species:S:1:pos:R:3:forces:R:3 energy=-48.73125457763672 free_energy=-48.73125457763672 stress="-9.58464079303667e-05 9.565188463511731e-08 4.8250551998307856e-08 9.565188463511731e-08 -9.579159086570144e-05 8.48760848271013e-08 4.8250551998307856e-08 8.48760848271013e-08 -9.589800174580887e-05" pbc="T T T"
As       1.38737181       0.98102012       2.40299852       0.00000002       0.00000062      -0.00000007
As       4.16211566       2.94305989       7.20899488      -0.00000023       0.00000117       0.00000151
C       -0.00000008       0.00000008       0.00000039      -0.00000091      -0.00000070      -0.00000512
N        1.31146323       0.92734457       4.80599684      -0.00256568      -0.00181395       0.00000174
N        4.23802431       2.99673537       4.80599704       0.00256711       0.00181228       0.00000031
N        3.50638370       0.92734460       3.53875873       0.00128251      -0.00181431      -0.00222117
N        2.04310365       2.99673522       6.07323467      -0.00128168       0.00181258       0.00222093
N        2.04310339       2.99673524       3.53875920      -0.00128353       0.00181466      -0.00222069
N        3.50638349       0.92734475       6.07323464       0.00128174      -0.00181264       0.00222123
