9
Lattice="4.250091245866441 -1.0335062819047628e-08 2.4537913644080795 1.4166970656524134 4.007024526402054 2.4537913757687515 -9.145113062491913e-09 7.4473379229618834e-09 4.907582744655962" Properties=species:S:1:pos:R:3:forces:R:3 energy=-51.32870864868164 free_energy=-51.32870864868164 stress="0.0002440568059682846 2.9077398266963428e-09 -1.3186315150903738e-08 2.9077398266963428e-09 0.0002437122748233378 -3.518533020496761e-08 -1.3186315150903738e-08 -3.518533020496761e-08 0.0002438433439237997" pbc="T T T"
As       1.41669713       1.00175648       2.45379142       0.00000124       0.00000053       0.00000023
As       4.25009132       3.00526820       7.36137414       0.00000116      -0.00000036       0.00000111
Cr      -0.00000010       0.00000019       0.00000007       0.00000033      -0.00000141       0.00000065
N        1.61432375       1.14149910       4.90758260      -0.00796022      -0.00562863      -0.00000037
N        4.05246466       2.86552537       4.90758270       0.00795821       0.00562926       0.00000012
N        3.44292928       1.14149892       3.85183655       0.00397720      -0.00562908      -0.00689372
N        2.22385874       2.86552514       5.96332895      -0.00398198       0.00562828       0.00689367
N        2.22385896       2.86552540       3.85183636      -0.00397737       0.00562928      -0.00689521
N        3.44292943       1.14149933       5.96332900       0.00398136      -0.00562797       0.00689313
