9
Lattice="4.455772340379394 -1.972363686376641e-06 2.5725376499673422 1.4852554720040219 4.200953346790367 2.5725378495462787 -4.461035006235147e-08 2.1288860900937513e-07 5.145075377202711" Properties=species:S:1:pos:R:3:forces:R:3 energy=-43.24141311645508 free_energy=-43.24141311645508 stress="4.3738564272644e-06 7.99165263742907e-06 -1.4140620123725967e-06 7.99165263742907e-06 -3.738684608833864e-05 -1.2833711480197962e-06 -1.4140620123725967e-06 -1.2833711480197962e-06 2.7152407710673288e-05" pbc="T T T"
As       1.48525661       1.05021770       2.57255971      -0.00004935      -0.00030072       0.00021144
As       4.45579298       3.15074417       7.71762660       0.00029082       0.00044887       0.00011506
Ge       0.00000054       0.00000504      -0.00001213      -0.00013823       0.00011664      -0.00025777
N        1.77637734       1.25608610       5.14503552       0.00030807      -0.00019826      -0.00032371
N        4.16460984       2.94494790       5.14504795      -0.00075325       0.00091927      -0.00010909
N        3.56756698       1.25602724       4.11097190      -0.00011161      -0.00100099       0.00103974
N        2.37342021       2.94495530       6.17917183      -0.00005332       0.00109364      -0.00093639
N        2.37345875       2.94486918       4.11100495       0.00013831       0.00040984       0.00114667
N        3.56762778       1.25595405       6.17919652       0.00036873      -0.00148836      -0.00088626
