9
Lattice="4.388241976514268 9.429918021690136e-08 2.5335528036335435 1.4627474452117137 4.1372740479007035 2.533552750284946 1.3317581332441024e-07 2.883107283727957e-08 5.067105376599783" Properties=species:S:1:pos:R:3:forces:R:3 energy=-51.675750732421875 free_energy=-51.675750732421875 stress="-0.0006258243811316788 -1.9410091589566747e-10 7.977521931934461e-08 -1.9410091589566747e-10 -0.0006260746740736067 -1.9850122612297127e-07 7.977521931934461e-08 -1.9850122612297127e-07 -0.0006260064546950161" pbc="T T T"
As       1.46274771       1.03431918       2.53355286       0.00000047       0.00000304      -0.00000024
As       4.38824194       3.10295480       7.60065829      -0.00000364      -0.00000491       0.00000512
Mn      -0.00000018      -0.00000020       0.00000023       0.00000511       0.00000279      -0.00000544
N        1.49092966       1.05424685       5.06710520       0.00587747       0.00416493      -0.00000439
N        4.36006003       3.08302732       5.06710490      -0.00588271      -0.00416777      -0.00000664
N        3.64277726       1.05424671       3.82473558      -0.00294751       0.00416735       0.00509372
N        2.20821308       3.08302728       6.30947557       0.00294733      -0.00416175      -0.00508943
N        2.20821229       3.08302805       3.82473611       0.00294320      -0.00415966       0.00509554
N        3.64277656       1.05424660       6.30947513      -0.00294001       0.00415653      -0.00508869
