9
Lattice="4.132954820666656 2.0751576101296519e-07 2.386162838324155 1.3776518137410696 3.8965873062643603 2.386162818917471 2.674820754666705e-07 1.6537016117669333e-07 4.7723252133557725" Properties=species:S:1:pos:R:3:forces:R:3 energy=-38.53547668457031 free_energy=-38.53547668457031 stress="9.331486216979101e-05 -5.539510539165349e-07 -1.8709355344981304e-06 -5.539510539165349e-07 9.212754957843572e-05 -1.4453896710620029e-06 -1.8709355344981304e-06 -1.4453896710620029e-06 9.172450518235564e-05" pbc="T T T"
As       1.37766283       0.97414959       2.38617491       0.00045207       0.00011446       0.00046360
As       4.13295730       2.92244393       7.15847855       0.00012623       0.00012862      -0.00034348
N        0.00000029      -0.00000185       0.00000242      -0.00000418      -0.00004640       0.00005764
O        1.31736061       0.93151371       4.77232078      -0.00014341      -0.00011176      -0.00016803
O        4.19324415       2.96507411       4.77232863       0.00004971       0.00011766       0.00011299
O        3.47426923       0.93151231       3.52702899      -0.00016451      -0.00017589      -0.00015974
O        2.03633164       2.96507210       6.01762043      -0.00007850       0.00006622       0.00009632
O        2.03632823       2.96507087       3.52702824      -0.00021660      -0.00002795      -0.00015974
O        3.47427305       0.93151616       6.01762022      -0.00002176      -0.00006521       0.00010216
