9
Lattice="4.273006987640927 3.246480865077274e-07 2.4670221001245345 1.4243359434308558 4.0286297321894375 2.4670221437674824 7.255652932842945e-07 5.665036226635333e-07 4.9340429435331545" Properties=species:S:1:pos:R:3:forces:R:3 energy=-44.14094924926758 free_energy=-44.14094924926758 stress="8.954980148700997e-05 -2.33735974575211e-07 -2.851235649359296e-06 -2.33735974575211e-07 8.897577208699659e-05 -2.0758502614626195e-06 -2.851235649359296e-06 -2.0758502614626195e-06 8.980197162600234e-05" pbc="T T T"
As       1.42433581       1.00715780       2.46702121      -0.00000219      -0.00000055      -0.00000468
As       4.27300754       3.02147276       7.40106513      -0.00000121      -0.00000144       0.00000090
Ni       0.00000018      -0.00000003      -0.00000010       0.00000117       0.00000094      -0.00000104
N        1.64366953       1.16224973       4.93404110      -0.00393409      -0.00279064      -0.00004658
N        4.05367456       2.86638160       4.93405568       0.00393975       0.00280134       0.00020013
N        3.45116727       1.16224803       3.89047923       0.00187020      -0.00281991      -0.00344096
N        2.24617304       2.86638481       5.97760359      -0.00192410       0.00286040       0.00336558
N        2.24616924       2.86637684       3.89047924      -0.00200303       0.00271834      -0.00343911
N        3.45117744       1.16225092       5.97760356       0.00205328      -0.00276852       0.00336590
