9
Lattice="4.01138610076774 4.378421701874536e-09 2.315974875624063 1.3371287199080555 3.78197094315486 2.3159748487354856 5.8757068686037636e-08 8.615875512986012e-09 4.631949649477896" Properties=species:S:1:pos:R:3:forces:R:3 energy=-50.04876708984375 free_energy=-50.04876708984375 stress="-0.00039574032416567206 -2.361829132269122e-07 2.0776778342224134e-07 -2.361829132269122e-07 -0.0003950235841330141 1.1172820535421124e-07 2.0776778342224134e-07 1.1172820535421124e-07 -0.00039539343561045825" pbc="T T T"
As       1.33712869       0.94549268       2.31597490       0.00000049       0.00000076      -0.00000328
As       4.01138625       2.83647830       6.94792457      -0.00000288       0.00000208      -0.00000458
P       -0.00000008       0.00000010      -0.00000038       0.00001965      -0.00000451       0.00005118
O        1.37742305       0.97398511       4.63194950       0.00623824       0.00440378       0.00001497
O        3.97109182       2.80798591       4.63194960      -0.00624412      -0.00442162       0.00001155
O        3.32267454       0.97398517       3.50885837      -0.00310595       0.00439718       0.00539039
O        2.02584033       2.80798599       5.75504114       0.00312605      -0.00442467      -0.00540412
O        2.02584025       2.80798567       3.50885846       0.00310700      -0.00439085       0.00537577
O        3.32267466       0.97398488       5.75504142      -0.00313846       0.00443808      -0.00543191
