9
Lattice="5.477268821569709 -4.112695757762821e-08 3.162302506799247 1.8257562422241898 5.164018402164422 3.1623024944281273 -2.2896437811792746e-08 -3.134164515080205e-08 6.32460505325626" Properties=species:S:1:pos:R:3:forces:R:3 energy=-32.89404296875 free_energy=-32.89404296875 stress="0.0003038318536709994 -3.2398030924696286e-08 -5.080141640689817e-09 -3.2398030924696286e-08 0.0003038560680579394 -4.069602432821284e-09 -5.080141640689817e-09 -4.069602432821284e-09 0.0003038666909560561" pbc="T T T"
As       1.82575601       1.29100419       3.16230194       0.00000088      -0.00000111      -0.00000327
As       5.47726937       3.87301353       9.48690868       0.00000039      -0.00000158       0.00000632
P        0.00000011      -0.00000001      -0.00000015      -0.00000017      -0.00000030      -0.00000625
Se       1.87454396       1.32550263       6.32460541      -0.00174581      -0.00123261       0.00000189
Se       5.42848095       3.83851590       6.32460489       0.00174470       0.00123440      -0.00000214
Se       4.53999686       1.32550296       4.78570468       0.00087330      -0.00123153      -0.00151207
Se       2.76302786       3.83851580       7.86350498      -0.00087676       0.00123746       0.00151180
Se       2.76302832       3.83851569       4.78570482      -0.00087090       0.00123313      -0.00151008
Se       4.53999676       1.32550260       7.86350492       0.00087427      -0.00123779       0.00151359
