9
Lattice="4.199777331792393 3.8652438064245326e-08 2.4247424739115537 1.3999257853689262 3.959588059238815 2.424742522992789 -8.55924336027552e-09 5.405969152263638e-08 4.849484962648148" Properties=species:S:1:pos:R:3:forces:R:3 energy=-48.59780502319336 free_energy=-48.59780502319336 stress="-7.055063178995624e-06 -1.7937342278173674e-08 2.9042062976714078e-08 -1.7937342278173674e-08 -6.928250968485372e-06 1.56172603738014e-08 2.9042062976714078e-08 1.56172603738014e-08 -7.1416411628888454e-06" pbc="T T T"
As       1.39992582       0.98989696       2.42474239       0.00000020       0.00000047       0.00000040
As       4.19977733       2.96969120       7.27422744       0.00000069      -0.00000029      -0.00000162
S       -0.00000006       0.00000003       0.00000028      -0.00000194       0.00000530      -0.00000399
N        1.37012270       0.96882316       4.84948506      -0.00009692      -0.00006735      -0.00000010
N        4.22958029       2.99076492       4.84948486       0.00009429       0.00007063       0.00000097
N        3.51471587       0.96882321       3.61130361       0.00004679      -0.00007010      -0.00008643
N        2.08498728       2.99076508       6.08766627      -0.00004739       0.00006825       0.00008237
N        2.08498727       2.99076503       3.61130357      -0.00004649       0.00006765      -0.00008059
N        3.51471591       0.96882325       6.08766619       0.00005072      -0.00007415       0.00009036
