9
Lattice="4.272211834866143 -2.0479979210480772e-07 2.4665628363315877 1.4240704222994243 4.027879716863368 2.4665628298113127 -2.7748538976108577e-08 -2.7606838012186397e-08 4.9331257207250525" Properties=species:S:1:pos:R:3:forces:R:3 energy=-46.916717529296875 free_energy=-46.916717529296875 stress="0.0001118540603783913 1.0792120264113692e-07 2.899328110927968e-09 1.0792120264113692e-07 0.0001119764638133347 1.3791422759368288e-07 2.899328110927968e-09 1.3791422759368288e-07 0.00011141809955006465" pbc="T T T"
As       1.42407084       1.00696803       2.46656322       0.00000483      -0.00001805       0.00000114
As       4.27221323       3.02090948       7.39968839       0.00001638      -0.00000174      -0.00000211
Si       0.00000002       0.00000000       0.00000007      -0.00000310       0.00000171       0.00000234
N        1.53501014       1.08541649       4.93312628       0.00013334       0.00010026       0.00000674
N        4.16127138       2.94246397       4.93312640      -0.00013918      -0.00008881       0.00000819
N        3.50470627       1.08541614       3.79592026      -0.00007161       0.00009561       0.00011063
N        2.19157532       2.94246454       6.07032985       0.00006366      -0.00008446      -0.00012881
N        2.19157510       2.94246411       3.79592100       0.00006112      -0.00009310       0.00012362
N        3.50470683       1.08541523       6.07033019      -0.00006634       0.00008845      -0.00012183
