9
Lattice="3.919221324374574 -4.972959590674602e-07 2.262763585262019 1.30640671864817 3.695076706159776 2.262763447774519 1.3209411960377745e-07 -7.498246548298228e-08 4.5255269417302575" Properties=species:S:1:pos:R:3:forces:R:3 energy=-47.37913513183594 free_energy=-47.37913513183594 stress="-4.3786290916614234e-05 -8.08353433967568e-07 2.534886789362645e-07 -8.08353433967568e-07 -4.374093987280503e-05 -5.374967670945807e-08 2.534886789362645e-07 -5.374967670945807e-08 -4.367047949926928e-05" pbc="T T T"
As       1.30640698       0.92376887       2.26276359      -0.00000126       0.00000537      -0.00000375
As       3.91922108       2.77130690       6.78829074      -0.00000618       0.00000142      -0.00004536
Se       0.00000008       0.00000006       0.00000001      -0.00000436      -0.00001283       0.00001768
N        1.39914117       0.98934170       4.52552704      -0.00027943      -0.00020170      -0.00000336
N        3.82648676       2.70573414       4.52552691       0.00029707       0.00019741       0.00001698
N        3.21965061       0.98934151       3.47445516       0.00015557      -0.00022066      -0.00025332
N        2.00597746       2.70573447       5.57659866      -0.00013912       0.00020981       0.00027001
N        2.00597753       2.70573455       3.47445519      -0.00016963       0.00021446      -0.00026107
N        3.21965066       0.98934121       5.57659888       0.00014889      -0.00019336       0.00026333
