9
Lattice="5.606358490564121 3.796170924503478e-08 3.2368325509523386 1.8687861805758683 5.285725617000556 3.2368325834042673 -3.018432225394452e-08 1.84018430300684e-08 6.473665154185416" Properties=species:S:1:pos:R:3:forces:R:3 energy=-29.373884201049805 free_energy=-29.373884201049805 stress="-0.0001283043675357476 -9.88685844305337e-09 4.424147159731717e-10 -9.88685844305337e-09 -0.00012828414037358016 -3.892341171596314e-10 4.424147159731717e-10 -3.892341171596314e-10 -0.00012828515900764614" pbc="T T T"
Au       1.86878603       1.32143136       3.23683264       0.00000052      -0.00000105      -0.00000002
Au       5.60635860       3.96429441       9.71049782      -0.00000006      -0.00000056      -0.00000033
As      -0.00000031       0.00000012      -0.00000003       0.00000114      -0.00000019      -0.00000004
Se       2.18513679       1.54512510       6.47366515       0.00318350       0.00225168       0.00000009
Se       5.29000787       3.74060059       6.47366503      -0.00318491      -0.00225076      -0.00000027
Se       4.51379031       1.54512509       5.12921691      -0.00159225       0.00225173       0.00275606
Se       2.96135455       3.74060042       7.81811368       0.00159200      -0.00225091      -0.00275719
Se       2.96135453       3.74060034       5.12921654       0.00159204      -0.00225103       0.00275725
Se       4.51379011       1.54512524       7.81811339      -0.00159194       0.00225118      -0.00275549
