9
Lattice="4.625416108498546 -1.4409606584654666e-08 2.670485284671031 1.541805329252279 4.360884222511324 2.6704853308504988 -5.823699658075521e-08 1.537829646169831e-08 5.340970670211491" Properties=species:S:1:pos:R:3:forces:R:3 energy=-38.543251037597656 free_energy=-38.543251037597656 stress="-0.00011176532279932871 2.0390473309817025e-08 -4.9124411205525575e-09 2.0390473309817025e-08 -0.00011193828686373308 -5.0943512519552314e-08 -4.9124411205525575e-09 -5.0943512519552314e-08 -0.00011188448843313381" pbc="T T T"
Au       1.54180457       1.09022016       2.67048340      -0.00000471      -0.00000754      -0.00001729
Au       4.62541656       3.27066354       8.01145393       0.00000225       0.00000185      -0.00002111
As       0.00000010       0.00000013       0.00000023      -0.00000226      -0.00000350      -0.00000140
O        1.49758703       1.05895416       5.34097159      -0.00355089      -0.00251031       0.00000796
O        4.66963433       3.30193029       5.34097173       0.00355470       0.00251436       0.00000845
O        3.87662325       1.05895336       3.96743477       0.00178009      -0.00251567      -0.00306606
O        2.29059903       3.30193084       6.71450734      -0.00177532       0.00251591       0.00307727
O        2.29059879       3.30193022       3.96743404      -0.00177556       0.00251269      -0.00306904
O        3.87662206       1.05895436       6.71450801       0.00177258      -0.00250709       0.00308156
