9
Lattice="5.604495769265795 5.064449170389247e-08 3.235757084216601 1.8681653023073483 5.283969025522947 3.2357570874428374 2.165567334343024e-08 1.926419919852504e-08 6.471514130924468" Properties=species:S:1:pos:R:3:forces:R:3 energy=-27.9324951171875 free_energy=-27.9324951171875 stress="0.00044511063606478274 1.1809333511081377e-09 2.5466158959375207e-08 1.1809333511081377e-09 0.00044523898395709693 -3.571367557242411e-08 2.5466158959375207e-08 -3.571367557242411e-08 0.00044517841888591647" pbc="T T T"
Au       1.86816537       1.32099185       3.23575673       0.00000013      -0.00000399      -0.00000265
Au       5.60449596       3.96297643       9.70727246       0.00000030      -0.00000278       0.00000806
As       0.00000000      -0.00000020      -0.00000004      -0.00000108       0.00000388       0.00000103
S        1.92887655       1.36392187       6.47151431       0.00636965       0.00450742       0.00000048
S        5.54378435       3.92004779       6.47151318      -0.00637382      -0.00450301      -0.00000635
S        4.64005784       1.36392215       4.90621322      -0.00318286       0.00450748       0.00551581
S        2.83260312       3.92004738       8.03681520       0.00318503      -0.00450766      -0.00551850
S        2.83260385       3.92004745       4.90621332       0.00318766      -0.00450361       0.00551909
S        4.64005741       1.36392169       8.03681497      -0.00318474       0.00450236      -0.00551701
