9
Lattice="5.606804575625696 1.343258328795501e-08 3.237089847682774 1.868934896003144 5.286145554635186 3.2370898047333587 1.2881649441395964e-07 3.8484867437514425e-08 6.474179472248868" Properties=species:S:1:pos:R:3:forces:R:3 energy=-29.373889923095703 free_energy=-29.373889923095703 stress="-6.244330143090338e-05 1.658352788425077e-09 -4.761015581777883e-09 1.658352788425077e-09 -6.245099939405918e-05 -1.2715722697009824e-08 -4.761015581777883e-09 -1.2715722697009824e-08 -6.24420863459818e-05" pbc="T T T"
Au       1.86893496       1.32153670       3.23708993       0.00000047      -0.00000023      -0.00000071
Au       5.60680507       3.96460907       9.71126874      -0.00000047      -0.00000080      -0.00000056
As       0.00000058       0.00000032      -0.00000121      -0.00000179      -0.00000140       0.00000632
Se       2.18552941       1.54540244       6.47417957      -0.00042506      -0.00030048       0.00000139
Se       5.29021007       3.74074258       6.47417982       0.00042489       0.00030188       0.00000175
Se       4.51403937       1.54540285       5.12981398       0.00021449      -0.00030351      -0.00037067
Se       2.96169910       3.74074368       7.81854582      -0.00020923       0.00029778       0.00036576
Se       2.96169968       3.74074271       5.12981394      -0.00021360       0.00030385      -0.00036943
Se       4.51404015       1.54540204       7.81854603       0.00021026      -0.00029713       0.00036633
