9
Lattice="5.60161784358567 2.2357596057656855e-07 3.234096023686021 1.8672060457161745 5.2812565039663575 3.2340962192955103 -1.0139957848171063e-07 1.678714524707572e-07 6.468192223001301" Properties=species:S:1:pos:R:3:forces:R:3 energy=-27.932605743408203 free_energy=-27.932605743408203 stress="0.00013430647959467024 -2.9450204053205198e-08 -4.5107491075668804e-08 -2.9450204053205198e-08 0.00013417768059298396 -2.1764236635135603e-08 -4.5107491075668804e-08 -2.1764236635135603e-08 0.00013410380051936954" pbc="T T T"
Au       1.86720583       1.32031325       3.23409710      -0.00000038      -0.00000476       0.00000519
Au       5.60161649       3.96094321       9.70228819      -0.00001058      -0.00000073       0.00000160
As      -0.00000077      -0.00000048       0.00000124       0.00000181       0.00000221      -0.00000637
S        1.92957886       1.36441793       6.46819257      -0.00309855      -0.00219631       0.00000149
S        5.53924453       3.91683826       6.46819383       0.00309467       0.00219047       0.00000803
S        4.63682812       1.36441934       4.90515940       0.00154325      -0.00218272      -0.00268698
S        2.83199550       3.91683961       8.03122336      -0.00154793       0.00220120       0.00268120
S        2.83199687       3.91683836       4.90515913      -0.00153586       0.00218517      -0.00268632
S        4.63682949       1.36441823       8.03122313       0.00155368      -0.00219434       0.00268203
