9
Lattice="4.625807745256095 -2.7985126531824313e-08 2.6707113978418153 1.5419359013602183 4.36125351923725 2.6707113759149403 -1.5207552583732963e-08 -3.7608194317959496e-08 5.341422822023881" Properties=species:S:1:pos:R:3:forces:R:3 energy=-38.54325866699219 free_energy=-38.54325866699219 stress="-3.0409184546442702e-05 -1.3394274134270745e-08 -3.486314170686455e-08 -1.3394274134270745e-08 -3.0331699235830456e-05 -8.476315827010694e-08 -3.486314170686455e-08 -8.476315827010694e-08 -3.016868868144229e-05" pbc="T T T"
Au       1.54193574       1.09031352       2.67071163      -0.00000353       0.00000198       0.00000232
Au       4.62580739       3.27094026       8.01213406      -0.00000177       0.00000124      -0.00000279
As       0.00000007      -0.00000003       0.00000004      -0.00000027      -0.00000307      -0.00000729
O        1.49751428       1.05890248       5.34142267       0.00006950       0.00004578      -0.00000102
O        4.67022943       3.30235119       5.34142276      -0.00006521      -0.00004661       0.00000051
O        3.87705119       1.05890202       3.96759695      -0.00003332       0.00004721       0.00006175
O        2.29069306       3.30235099       6.71524871       0.00003177      -0.00004339      -0.00005400
O        2.29069299       3.30235077       3.96759656       0.00003415      -0.00004756       0.00005293
O        3.87705079       1.05890258       6.71524875      -0.00003010       0.00004375      -0.00005209
