9
Lattice="5.544251843360127 -1.100250525993733e-09 3.20097533499789 1.8480839642576625 5.227170690012001 3.2009753046726273 1.887980112411629e-08 -2.379065733391612e-08 6.401950637294994" Properties=species:S:1:pos:R:3:forces:R:3 energy=-30.395204544067383 free_energy=-30.395204544067383 stress="0.00019282265566289425 -3.8062857754539436e-08 -1.585506304024875e-08 -3.8062857754539436e-08 0.00019286437600385398 7.917877020702235e-09 -1.585506304024875e-08 7.917877020702235e-09 0.0001928187848534435" pbc="T T T"
Au       1.84808400       1.30679274       3.20097536      -0.00000032      -0.00000012       0.00000031
Au       5.54425185       3.92037798       9.60292604      -0.00000000       0.00000064       0.00000001
B        0.00000002      -0.00000000       0.00000009      -0.00000017       0.00000011      -0.00000284
Se       1.67635516       1.18536207       6.40195061      -0.00185776      -0.00131443       0.00000011
Se       5.71598060       4.04180854       6.40195060       0.00185722       0.00131431       0.00000009
Se       4.70607425       1.18536216       4.65274159       0.00092992      -0.00131515      -0.00160995
Se       2.68626161       4.04180850       8.15115968      -0.00093099       0.00131765       0.00161025
Se       2.68626156       4.04180855       4.65274153      -0.00092885       0.00131416      -0.00160819
Se       4.70607430       1.18536210       8.15115966       0.00093096      -0.00131711       0.00161007
