9
Lattice="5.470586246484804 -2.420993052825104e-08 3.1584443912496916 1.8235287230589532 5.1577181200064155 3.1584443963487767 -9.496111763250177e-09 -4.696897973036543e-10 6.316888798947087" Properties=species:S:1:pos:R:3:forces:R:3 energy=-31.285066604614258 free_energy=-31.285066604614258 stress="4.1028848499991e-05 1.3396018516687036e-08 -3.1995636362580626e-08 1.3396018516687036e-08 4.109058863832615e-05 -4.0921919186587274e-09 -3.1995636362580626e-08 -4.0921919186587274e-09 4.099793659406714e-05" pbc="T T T"
Au       1.82352870       1.28942960       3.15844452      -0.00000012       0.00000114      -0.00000065
Au       5.47058630       3.86828857       9.47533335       0.00000044      -0.00000149      -0.00000053
B       -0.00000004      -0.00000002      -0.00000013      -0.00000264       0.00000078       0.00000141
S        1.63402293       1.15542876       6.31688862       0.00503987       0.00356597       0.00000024
S        5.66009199       4.00228936       6.31688862      -0.00503677      -0.00356144       0.00000028
S        4.65357472       1.15542875       4.57355009      -0.00251997       0.00356203       0.00436234
S        2.64054031       4.00228924       8.06022795       0.00252011      -0.00356662      -0.00436777
S        2.64054010       4.00228930       4.57354955       0.00251898      -0.00356370       0.00436664
S        4.65357485       1.15542880       8.06022771      -0.00251955       0.00356251      -0.00436151
