9
Lattice="4.3143739408240585 3.946096577717761e-09 2.4909049771769007 1.4381246736793587 4.067630850154708 2.4909049373092476 1.9243638632401225e-08 -3.522038848365695e-08 4.981809921022861" Properties=species:S:1:pos:R:3:forces:R:3 energy=-39.72401809692383 free_energy=-39.72401809692383 stress="-0.0001759339211275801 -1.62762123778748e-08 -1.2017516759499358e-08 -1.62762123778748e-08 -0.00017600705905351788 3.28365139523612e-08 -1.2017516759499358e-08 3.28365139523612e-08 -0.00017594979726709425" pbc="T T T"
Au       1.43812516       1.01690737       2.49090443       0.00000311      -0.00000175      -0.00000247
Au       4.31437370       3.05072355       7.47271508      -0.00000122       0.00000143       0.00000022
B        0.00000014       0.00000000      -0.00000021      -0.00000168      -0.00000247      -0.00000194
O        1.32356462       0.93590137       4.98181026      -0.00146484      -0.00103480       0.00000079
O        4.42893372       3.13172950       4.98180979       0.00146878       0.00103748       0.00000053
O        3.65259146       0.93590139       3.63714535       0.00073117      -0.00103605      -0.00126934
O        2.09990725       3.13172934       6.32647453      -0.00073260       0.00103581       0.00127310
O        2.09990724       3.13172950       3.63714549      -0.00073320       0.00103587      -0.00126934
O        3.65259146       0.93590127       6.32647476       0.00073129      -0.00103557       0.00126779
