9
Lattice="5.908611639244751 2.7696026925168756e-07 3.4113385286684763 1.9695374967190795 5.570692554753375 3.411338489668221 1.7757109815309512e-08 -3.5209186367938666e-08 6.82267702658072" Properties=species:S:1:pos:R:3:forces:R:3 energy=-28.03762435913086 free_energy=-28.03762435913086 stress="-1.4694890523969661e-05 2.876891791459002e-08 -8.24008061783843e-09 2.876891791459002e-08 -1.4710973118781112e-05 1.8727698503084866e-08 -8.24008061783843e-09 1.8727698503084866e-08 -1.4752090464753564e-05" pbc="T T T"
Au       1.96953755       1.39267328       3.41133839       0.00000108       0.00000038      -0.00000080
Au       5.90861158       4.17801904      10.23401600       0.00000057       0.00000009      -0.00000097
Bi       0.00000062       0.00000045      -0.00000147      -0.00000374      -0.00000304       0.00000971
Se       2.38069959       1.68340879       6.82267570       0.00020278       0.00014386       0.00000268
Se       5.49744747       3.88728236       6.82267556      -0.00019044      -0.00013369       0.00000365
Se       4.71826158       1.68341139       5.47308645      -0.00009636       0.00013220       0.00016756
Se       3.15988720       3.88728453       8.17227022       0.00010236      -0.00014980      -0.00017695
Se       3.15988855       3.88728228       5.47308583       0.00009168      -0.00013585       0.00016919
Se       4.71826243       1.68340905       8.17226949      -0.00010788       0.00014591      -0.00017412
