9
Lattice="5.504723679917951 -4.4544679313405764e-08 3.1781536499191354 1.8349079067827785 5.189903204408077 3.1781535538354837 3.6761381150972406e-08 -9.168375255947433e-08 6.356307236165697" Properties=species:S:1:pos:R:3:forces:R:3 energy=-25.998031616210938 free_energy=-25.998031616210938 stress="0.0001932494342327118 2.887794181560821e-08 9.171118087181185e-09 2.887794181560821e-08 0.00019319786224514246 1.3200904369625732e-08 9.171118087181185e-09 1.3200904369625732e-08 0.00019326311303302646" pbc="T T T"
Au       1.83490745       1.29747550       3.17815470      -0.00000007      -0.00000140       0.00000379
Au       5.50472358       3.89242736       9.53446191      -0.00000065      -0.00000034       0.00000752
Ga      -0.00000009      -0.00000008       0.00000024      -0.00000094       0.00000079       0.00000130
S        1.95719561       1.38394600       6.35630650      -0.00156989      -0.00111097      -0.00000080
S        5.38243640       3.80595693       6.35630651       0.00157008       0.00111103      -0.00000011
S        4.52612583       1.38394660       4.87313476       0.00078789      -0.00111007      -0.00136261
S        2.81350551       3.80595753       7.83947929      -0.00078551       0.00110935       0.00135485
S        2.81350604       3.80595696       4.87313409      -0.00078570       0.00111194      -0.00136176
S        4.52612613       1.38394545       7.83947972       0.00078483      -0.00111021       0.00135791
