9
Lattice="5.641577253701476 -6.15496887346746e-08 3.257166124270287 1.8805257350537548 5.318930198750364 3.2571660517848393 -1.2951507637960686e-07 -1.8035727728300123e-07 6.514332472867386" Properties=species:S:1:pos:R:3:forces:R:3 energy=-27.03466033935547 free_energy=-27.03466033935547 stress="-9.184469672618434e-05 1.4820092708589527e-08 6.169133648370462e-09 1.4820092708589527e-08 -9.187616524286568e-05 7.033584381588298e-09 6.169133648370462e-09 7.033584381588298e-09 -9.186244278680533e-05" pbc="T T T"
Au       1.88052547       1.32973249       3.25716612      -0.00000131       0.00000009       0.00000012
Au       5.64157716       3.98919759       9.77149881      -0.00000039      -0.00000041      -0.00000001
Ga      -0.00000021      -0.00000025      -0.00000018       0.00000169       0.00000056      -0.00000023
Se       2.18014730       1.54159709       6.51433250      -0.00095446      -0.00067614      -0.00000026
Se       5.34195616       3.77733349       6.51433257       0.00095274       0.00067248       0.00000026
Se       4.55150383       1.54159648       5.14522856       0.00047624      -0.00067179      -0.00082324
Se       2.97059873       3.77733296       7.88343523      -0.00047608       0.00067463       0.00082598
Se       2.97059939       3.77733358       5.14522893      -0.00047589       0.00067327      -0.00082618
Se       4.55150360       1.54159640       7.88343609       0.00047739      -0.00067270       0.00082358
