9
Lattice="4.5763945871693466 1.2940622310937832e-07 2.642182832821591 1.525464987955545 4.3146661269345135 2.6421828266548486 1.5333822298430803e-08 3.289937533778478e-09 5.284365639084214" Properties=species:S:1:pos:R:3:forces:R:3 energy=-34.51109313964844 free_energy=-34.51109313964844 stress="0.00011586089385673404 -4.907626660610731e-08 -8.820060770631244e-08 -4.907626660610731e-08 0.00011576968972804025 -7.860503359324866e-08 -8.820060770631244e-08 -7.860503359324866e-08 0.00011602219456108287" pbc="T T T"
Au       1.52546382       1.07866674       2.64218265      -0.00001174       0.00000303       0.00000227
Au       4.57639458       3.23600018       7.92655098      -0.00000061       0.00000199       0.00002395
Ga      -0.00000002      -0.00000009       0.00000123       0.00000047       0.00000271      -0.00002729
O        1.56376463       1.10574813       5.28436577      -0.00624305      -0.00441727      -0.00000151
O        4.53809525       3.20891790       5.28436443       0.00624287       0.00441271      -0.00001347
O        3.79451339       1.10574889       3.99644252       0.00312620      -0.00440460      -0.00540221
O        2.30734681       3.20891711       6.57228794      -0.00313193       0.00442088       0.00541297
O        2.30734737       3.20891803       3.99644215      -0.00311211       0.00440881      -0.00540420
O        3.79451240       1.10574823       6.57228750       0.00313002      -0.00442821       0.00540870
