9
Lattice="5.504045792992662 2.0810271820089983e-07 3.1777623250375235 1.8346820731100697 5.189264119892387 3.177762418721818 3.052216922227999e-07 3.305637384799989e-07 6.355524121415595" Properties=species:S:1:pos:R:3:forces:R:3 energy=-25.997989654541016 free_energy=-25.997989654541016 stress="4.7079200157895684e-05 -5.281611148433285e-09 -5.113023249236903e-08 -5.281611148433285e-09 4.711921792477369e-05 3.9154745223868304e-08 -5.113023249236903e-08 3.9154745223868304e-08 4.7134464693954214e-05" pbc="T T T"
Au       1.83468133       1.29731668       3.17776337      -0.00000359       0.00000124       0.00000373
Au       5.50404572       3.89194760       9.53328660      -0.00000287      -0.00000310       0.00000216
Ga      -0.00000007       0.00000016      -0.00000183       0.00000105      -0.00000148       0.00000663
S        1.95799819       1.38451328       6.35552404      -0.00876235      -0.00619789      -0.00000057
S        5.38073088       3.80475079       6.35552395       0.00876518       0.00619358       0.00000062
S        4.52504679       1.38451460       4.87343872       0.00438561      -0.00619651      -0.00759206
S        2.81368069       3.80475109       7.83761082      -0.00438084       0.00619603       0.00758647
S        2.81368113       3.80475097       4.87343798      -0.00438211       0.00619901      -0.00759265
S        4.52504797       1.38451342       7.83761187       0.00437979      -0.00619088       0.00758562
