9
Lattice="4.576307667450768 -2.928011753113764e-07 2.6421325745540747 1.5254356995770706 4.314584009662193 2.6421324247621953 3.581495203584509e-08 -1.581318589199556e-07 5.284265087074931" Properties=species:S:1:pos:R:3:forces:R:3 energy=-34.51110076904297 free_energy=-34.51110076904297 stress="1.223727213073289e-05 3.9980442068099364e-08 3.193165198922543e-08 3.9980442068099364e-08 1.2208056432427838e-05 4.094141914379179e-08 3.193165198922543e-08 4.094141914379179e-08 1.2259283721505199e-05" pbc="T T T"
Au       1.52543509       1.07864612       2.64213215      -0.00001135      -0.00000399      -0.00000512
Au       4.57630608       3.23593769       7.92639591      -0.00001023       0.00000123      -0.00001573
Ga      -0.00000015      -0.00000000      -0.00000018      -0.00000276      -0.00000340      -0.00000303
O        1.56360449       1.10563452       5.28426563      -0.00298834      -0.00211781       0.00000381
O        4.53813926       3.20894808       5.28426602       0.00299692       0.00211430       0.00000872
O        3.79450594       1.10563451       3.99625413       0.00149742      -0.00211892      -0.00258958
O        2.30723854       3.20894875       6.57227618      -0.00148892       0.00212023       0.00259817
O        2.30723807       3.20894943       3.99625393      -0.00149313       0.00211897      -0.00259128
O        3.79450622       1.10563518       6.57227662       0.00150028      -0.00211066       0.00259390
