9
Lattice="5.641824881465526 -3.6518372156465596e-08 3.2573091527500866 1.8806082491792062 5.3191638652176465 3.25730917043917 -2.4106409932572385e-08 4.618841170917715e-09 6.514618347253678" Properties=species:S:1:pos:R:3:forces:R:3 energy=-27.03466033935547 free_energy=-27.03466033935547 stress="-6.136949377832934e-05 1.3948177723932531e-08 -1.557935114249176e-08 1.3948177723932531e-08 -6.142798520158976e-05 -3.8062477614175805e-09 -1.557935114249176e-08 -3.8062477614175805e-09 -6.137564923847094e-05" pbc="T T T"
Au       1.88060826       1.32979074       3.25730886       0.00000027       0.00000076       0.00000028
Au       5.64182495       3.98937290       9.77192717      -0.00000085      -0.00000009       0.00000065
Ga      -0.00000006       0.00000015      -0.00000002       0.00000038      -0.00000012      -0.00000135
Se       2.18034241       1.54173482       6.51461808      -0.00208300      -0.00147472      -0.00000145
Se       5.34209048       3.77742931       6.51461839       0.00208324       0.00147229      -0.00000195
Se       4.55165426       1.54173419       5.14554136       0.00104090      -0.00147134      -0.00180209
Se       2.97077971       3.77742898       7.88369557      -0.00104224       0.00147475       0.00180724
Se       2.97077884       3.77742936       5.14554158      -0.00104041       0.00147246      -0.00180490
Se       4.55165350       1.54173485       7.88369569       0.00104173      -0.00147401       0.00180357
