9
Lattice="5.578236515389581 -1.0213940145758087e-07 3.2205963249313143 1.8594120710436344 5.259211673849662 3.2205963326473723 2.037159512108305e-08 2.385510039872498e-08 6.441192614577961" Properties=species:S:1:pos:R:3:forces:R:3 energy=-33.161285400390625 free_energy=-33.161285400390625 stress="5.137435073265806e-05 -2.401600518453506e-08 -1.5178308387930883e-08 -2.401600518453506e-08 5.139062341186218e-05 1.316042386179106e-08 -1.5178308387930883e-08 1.316042386179106e-08 5.14411622134503e-05" pbc="T T T"
Au       1.85941237       1.31480303       3.22059657       0.00000000       0.00000066       0.00000051
Au       5.57823646       3.94440864       9.66178933       0.00000051      -0.00000012       0.00000035
Ir       0.00000024       0.00000000       0.00000042      -0.00000258      -0.00000004      -0.00000096
Se       2.07420450       1.46668410       6.44119259      -0.00392979      -0.00277854       0.00000004
Se       5.36344385       3.79252748       6.44119259       0.00393047       0.00277901       0.00000024
Se       4.54113397       1.46668429       5.01691044       0.00196608      -0.00278009      -0.00340497
Se       2.89651461       3.79252714       7.86547437      -0.00196519       0.00277981       0.00340481
Se       2.89651447       3.79252734       5.01691029      -0.00196564       0.00277891      -0.00340479
Se       4.54113397       1.46668433       7.86547445       0.00196611      -0.00277966       0.00340480
