9
Lattice="5.4640845462356475 5.354575976577619e-08 3.154690597908329 1.8213615697085181 5.151588274112476 3.154690591303642 4.448721614823313e-08 2.3368162642857975e-08 6.3093811187625155" Properties=species:S:1:pos:R:3:forces:R:3 energy=-34.74124526977539 free_energy=-34.74124526977539 stress="0.00042559884604997933 2.3990114783600802e-08 3.656540625840421e-09 2.3990114783600802e-08 0.00042555658728815615 5.880383735501482e-09 3.656540625840421e-09 5.880383735501482e-09 0.000425596022978425" pbc="T T T"
Au       1.82136168       1.28789709       3.15469044       0.00000167       0.00000076      -0.00000112
Au       5.46408515       3.86369112       9.46407168       0.00000125      -0.00000071      -0.00000155
Ir       0.00000046       0.00000010      -0.00000070       0.00000294       0.00000013      -0.00000315
S        1.89164397       1.33759455       6.30938130      -0.00633776      -0.00448054       0.00000073
S        5.39380174       3.81399383       6.30938128       0.00633526       0.00448006       0.00000057
S        4.51826222       1.33759444       4.79290269       0.00316572      -0.00447863      -0.00548422
S        2.76718352       3.81399413       7.82585995      -0.00316820       0.00448006       0.00548768
S        2.76718352       3.81399384       4.79290263      -0.00316823       0.00447893      -0.00548571
S        4.51826243       1.33759439       7.82585990       0.00316745      -0.00448024       0.00548673
