9
Lattice="4.82198340430278 -1.1743818649571244e-06 2.783972057931044 1.6073269698458583 4.546207641011728 2.7839715805261673 -1.096552267740395e-06 -1.3600788142927966e-06 5.56794601514515" Properties=species:S:1:pos:R:3:forces:R:3 energy=-41.573760986328125 free_energy=-41.573760986328125 stress="-4.195725523459259e-06 5.987863005429972e-07 2.7188227136321075e-07 5.987863005429972e-07 -2.5250612907257164e-06 9.177456661291217e-08 2.7188227136321075e-07 9.177456661291217e-08 -2.769272668956546e-06" pbc="T T T"
Au       1.60734324       1.13656511       2.78395430       0.00016582       0.00011328      -0.00016072
Au       4.82204133       3.40964433       8.35190740       0.00048818      -0.00006226      -0.00008383
Ir      -0.00000117       0.00000086      -0.00000034      -0.00004344       0.00000393       0.00002227
O        1.52510574       1.07842997       5.56795573       0.00000623       0.00016341       0.00006812
O        4.90418731       3.46778652       5.56794424      -0.00014475      -0.00006108       0.00002255
O        4.05942411       1.07841196       4.10477309      -0.00008719       0.00001667       0.00013758
O        2.36986531       3.46778217       7.03112215      -0.00010515      -0.00011894      -0.00014433
O        2.36986233       3.46777633       4.10476595      -0.00012472      -0.00013222       0.00015719
O        4.05940765       1.07842150       7.03113639      -0.00015514       0.00007766      -0.00001886
