9
Lattice="5.5326191185635265 1.5536128483449294e-08 3.1942590056995135 1.8442063498637715 5.21620335191056 3.194259070891015 -6.613936335677724e-08 3.307537354600434e-08 6.388518125955778" Properties=species:S:1:pos:R:3:forces:R:3 energy=-37.978450775146484 free_energy=-37.978450775146484 stress="0.00011143650044687092 -9.913592613486344e-09 -1.6903417332514437e-08 -9.913592613486344e-09 0.00011145117605337873 -6.875574776188387e-09 -1.6903417332514437e-08 -6.875574776188387e-09 0.00011142958828713745" pbc="T T T"
Au       1.84420631       1.30405094       3.19425913      -0.00000087      -0.00000024      -0.00000028
Au       5.53261908       3.91215251       9.58277697      -0.00000006      -0.00000071      -0.00000040
Mo      -0.00000031       0.00000004       0.00000007       0.00000180       0.00000289       0.00000071
S        1.88745474       1.33463237       6.38851798      -0.00014678      -0.00010306       0.00000045
S        5.48937068       3.88157120       6.38851819       0.00014257       0.00010034       0.00000025
S        4.58889154       1.33463203       4.82884290       0.00007325      -0.00010203      -0.00012541
S        2.78793389       3.88157121       7.94819332      -0.00007097       0.00010112       0.00012591
S        2.78793389       3.88157134       4.82884289      -0.00007100       0.00010282      -0.00012553
S        4.58889177       1.33463198       7.94819329       0.00007209      -0.00010125       0.00012434
