9
Lattice="4.673488449554427 8.379391323430726e-08 2.6982399746462735 1.5578295854437334 4.406207152599035 2.698239934363525 -3.462279300774859e-08 -7.3818151788391e-08 5.396480009261034" Properties=species:S:1:pos:R:3:forces:R:3 energy=-41.646697998046875 free_energy=-41.646697998046875 stress="-5.1256643018859904e-06 -7.915842203942702e-09 5.270161640424931e-09 -7.915842203942702e-09 -5.123529717820929e-06 6.199127966510787e-08 5.270161640424931e-09 6.199127966510787e-08 -4.97255723530543e-06" pbc="T T T"
Au       1.55783029       1.10155195       2.69824012       0.00001067       0.00000279       0.00000161
Au       4.67348906       3.30465634       8.09472077       0.00000629       0.00001297       0.00000921
Mo       0.00000020       0.00000001       0.00000007       0.00000073       0.00000372      -0.00000070
O        1.58170352       1.11843289       5.39647962      -0.00017273      -0.00012451      -0.00000309
O        4.64961473       3.28777383       5.39647914       0.00016904       0.00011903      -0.00000537
O        3.88263602       1.11843259       4.06803538       0.00008100      -0.00012630      -0.00015199
O        2.34868096       3.28777367       6.72492453      -0.00008982       0.00011885       0.00014734
O        2.34868113       3.28777428       4.06803543      -0.00008607       0.00011921      -0.00014722
O        3.88263608       1.11843296       6.72492465       0.00008035      -0.00012547       0.00014830
