9
Lattice="4.20618629981071 -3.4063251242540325e-07 2.428441960633678 1.4020618869442558 3.9656292127189756 2.4284417732971924 -5.053885901319291e-08 -2.6517573802701653e-07 4.856884008803261" Properties=species:S:1:pos:R:3:forces:R:3 energy=-34.44261169433594 free_energy=-34.44261169433594 stress="1.0334374564990867e-05 -5.968511374021546e-08 5.433666316889685e-08 -5.968511374021546e-08 1.0083176675834693e-05 -4.5638600454367406e-08 5.433666316889685e-08 -4.5638600454367406e-08 1.0121699233422987e-05" pbc="T T T"
Au       1.40206383       0.99140091       2.42845025      -0.00001506      -0.00022919       0.00021262
Au       4.20618824       2.97421300       7.28533939      -0.00001905      -0.00023216       0.00022243
N       -0.00002640      -0.00016352       0.00013164      -0.00047674      -0.00300180       0.00244090
O        1.36712402       0.96669464       4.85689173       0.00186121       0.00109094       0.00020246
O        4.24126153       2.99901348       4.85689063       0.00098085       0.00045258       0.00020381
O        3.52265754       0.96663920       3.61234956      -0.00021338      -0.00004041       0.00048447
O        2.08558932       2.99895883       6.10142232       0.00022846      -0.00066859      -0.00028622
O        2.08553398       2.99903943       3.61226015      -0.00094932       0.00100327      -0.00135857
O        3.52259995       0.96671848       6.10133429      -0.00139654       0.00162500      -0.00212073
