9
Lattice="4.206020257180797 -3.956283048015928e-08 2.4283470095214663 1.4020067463477268 3.965473781639998 2.4283469553873984 3.766179364469526e-08 -3.96695265899357e-08 4.856693953810788" Properties=species:S:1:pos:R:3:forces:R:3 energy=-34.4426155090332 free_energy=-34.4426155090332 stress="-0.0001596484362380579 -3.980560947525191e-08 -7.601484952601822e-08 -3.980560947525191e-08 -0.00015950380475260317 2.1085670098841547e-08 -7.601484952601822e-08 2.1085670098841547e-08 -0.00015986026846803725" pbc="T T T"
Au       1.40200701       0.99136831       2.42834688       0.00000036       0.00000022       0.00000035
Au       4.20602027       2.97410526       7.28504111       0.00000104      -0.00000173      -0.00000060
N       -0.00000114      -0.00000036      -0.00000131      -0.00002581      -0.00000524      -0.00002087
O        1.36708027       0.96667175       4.85669385      -0.00050175      -0.00035197      -0.00000284
O        4.24094808       2.99880307       4.85669386       0.00052738       0.00037348      -0.00000276
O        3.52248009       0.96667134       3.61227289       0.00025088      -0.00035936      -0.00044274
O        2.08554625       2.99880274       6.10111536      -0.00026309       0.00036794       0.00044823
O        2.08554676       2.99880198       3.61227314      -0.00025249       0.00035203      -0.00043368
O        3.52248067       0.96667062       6.10111592       0.00026411      -0.00037533       0.00045574
