9
Lattice="5.590784435345892 8.459822104424665e-08 3.2278410224314626 1.8635948502101027 5.271042287371506 3.2278410940203113 1.668946283922466e-09 8.885820260311857e-08 6.455682041972253" Properties=species:S:1:pos:R:3:forces:R:3 energy=-30.408798217773438 free_energy=-30.408798217773438 stress="0.00010388741065980867 -1.955573125655974e-08 2.3788491176901516e-08 -1.955573125655974e-08 0.00010382726031821221 -1.7183399592113346e-08 2.3788491176901516e-08 -1.7183399592113346e-08 0.00010388651571702212" pbc="T T T"
Au       1.86359509       1.31776020       3.22784107       0.00000156      -0.00000253       0.00000281
Au       5.59078435       3.95328188       9.68352342      -0.00000011       0.00000055       0.00000053
P        0.00000008       0.00000008       0.00000018      -0.00000028       0.00000210      -0.00000605
S        1.77483897       1.25500081       6.45568172       0.00628638       0.00444561      -0.00000164
S        5.67954043       4.01604177       6.45568177      -0.00628638      -0.00444692      -0.00000144
S        4.70336482       1.25500069       4.76489661      -0.00314462       0.00444621       0.00544572
S        2.75101445       4.01604172       8.14646762       0.00314295      -0.00444275      -0.00544417
S        2.75101434       4.01604182       4.76489693       0.00314254      -0.00444466       0.00544417
S        4.70336461       1.25500091       8.14646748      -0.00314200       0.00444233      -0.00544012
