9
Lattice="3.9642475105043053 1.448212345636195e-07 2.288759092780439 1.3214159750918526 3.7375280133879483 2.288759089804272 1.1379427277208832e-07 7.681965699260411e-08 4.577517988463346" Properties=species:S:1:pos:R:3:forces:R:3 energy=-46.925987243652344 free_energy=-46.925987243652344 stress="6.713458424201235e-05 1.323260335084342e-06 -6.770423510715773e-07 1.323260335084342e-06 6.753919296897948e-05 -1.8572833937469113e-07 -6.770423510715773e-07 -1.8572833937469113e-07 6.671686423942447e-05" pbc="T T T"
Au       1.32141536       0.93438252       2.28875828       0.00014780      -0.00008902       0.00020631
Au       3.96424704       2.80314619       6.86627655       0.00017842      -0.00005781       0.00015247
P        0.00001191      -0.00000641       0.00001369      -0.00354720       0.00189207      -0.00404650
O        1.40622947       0.99435306       4.57751952       0.00000083       0.00033855      -0.00035206
O        3.87942908       2.74316928       4.57751910       0.00148964       0.00140309      -0.00029653
O        3.26113325       0.99435519       3.50659160      -0.00003999      -0.00023937      -0.00074863
O        2.02453319       2.74317111       5.64844544      -0.00072080       0.00079894       0.00043654
O        2.02452777       2.74317905       3.50658347       0.00086439      -0.00151181       0.00171554
O        3.26112727       0.99436306       5.64843715       0.00162780      -0.00253427       0.00293171
