9
Lattice="5.637052946346862 7.865863922430365e-08 3.2545540166239437 1.879017723472794 5.314664471459693 3.254554015705196 1.5825281553616663e-08 1.0064942896349441e-08 6.509108005837706" Properties=species:S:1:pos:R:3:forces:R:3 energy=-29.25316619873047 free_energy=-29.25316619873047 stress="0.00011878329678438604 6.6876473248100865e-09 2.762903794639726e-11 6.6876473248100865e-09 0.0001187669622595422 2.7018955961466418e-08 2.762903794639726e-11 2.7018955961466418e-08 0.00011873905168613419" pbc="T T T"
Au       1.87901787       1.32866620       3.25455410       0.00000037      -0.00000003       0.00000069
Au       5.63705289       3.98599843       9.76366209      -0.00000029       0.00000143       0.00000083
P       -0.00000001      -0.00000011      -0.00000032       0.00000313       0.00000486       0.00001151
Se       1.86345739       1.31766329       6.50910804      -0.00745761      -0.00527382      -0.00000061
Se       5.65261342       3.99700119       6.50910809       0.00745302       0.00526947      -0.00000019
Se       4.70532427       1.31766345       4.86835516       0.00372910      -0.00527489      -0.00646088
Se       2.81074610       3.99700154       8.14986092      -0.00372571       0.00526983       0.00645372
Se       2.81074634       3.99700122       4.86835519      -0.00372839       0.00527319      -0.00645891
Se       4.70532447       1.31766306       8.14986090       0.00372636      -0.00526953       0.00645363
