9
Lattice="4.8007655738249975 -5.414539122915898e-09 2.7717236163761596 1.6002551403095484 4.526205753971344 2.771723695809025 -1.1022460297353946e-07 1.9344432943295505e-08 5.543447423666934" Properties=species:S:1:pos:R:3:forces:R:3 energy=-42.51860046386719 free_energy=-42.51860046386719 stress="3.9672540879109874e-06 4.093374528224558e-08 -1.9495979941552832e-08 4.093374528224558e-08 3.925660621462157e-06 -1.5108016171438976e-08 -1.9495979941552832e-08 -1.5108016171438976e-08 3.8034763747418765e-06" pbc="T T T"
Au       1.60025526       1.13155189       2.77172402       0.00000115       0.00000280       0.00000041
Au       4.80076480       3.39465451       8.31516884      -0.00000664       0.00000341      -0.00002029
Ru      -0.00000018       0.00000019      -0.00000062      -0.00000311       0.00000158      -0.00000303
O        1.52017184       1.07492337       5.54344789      -0.00034142      -0.00024608       0.00000339
O        4.88084894       3.45128181       5.54344900       0.00034553       0.00024197       0.00001095
O        4.04067962       1.07492329       4.08823126       0.00017080      -0.00024569      -0.00029427
O        2.36034112       3.45128192       6.99866400      -0.00016773       0.00024140       0.00029945
O        2.36034083       3.45128178       4.08823064      -0.00017136       0.00023881      -0.00029546
O        4.04068010       1.07492425       6.99866374       0.00017223      -0.00023821       0.00029945
