9
Lattice="5.553254848544085 2.4645511666693086e-08 3.206173124248401 1.8510849799478353 5.235658654472864 3.206173111782634 -3.662849501800899e-08 -4.11676654459798e-08 6.412346311939194" Properties=species:S:1:pos:R:3:forces:R:3 energy=-32.12788772583008 free_energy=-32.12788772583008 stress="-0.00047085198457352817 3.1589757476524483e-09 -9.263183109453621e-09 3.1589757476524483e-09 -0.0004707783227786422 1.1182835102374611e-08 -9.263183109453621e-09 1.1182835102374611e-08 -0.00047083571553230286" pbc="T T T"
Au       1.85108495       1.30891474       3.20617298      -0.00000002      -0.00000073      -0.00000002
Au       5.55325497       3.92674420       9.61851962      -0.00000002       0.00000023      -0.00000018
Rh      -0.00000020      -0.00000019      -0.00000017      -0.00000004       0.00000068      -0.00000073
Se       2.08315571       1.47301355       6.41234640       0.00036287       0.00025667       0.00000038
Se       5.32118463       3.76264527       6.41234618      -0.00036275      -0.00025690       0.00000061
Se       4.51167691       1.47301372       5.01023863      -0.00018146       0.00025639       0.00031468
Se       2.89266239       3.76264520       7.81445397       0.00018126      -0.00025648      -0.00031446
Se       2.89266273       3.76264498       5.01023857       0.00018152      -0.00025643       0.00031458
Se       4.51167711       1.47301312       7.81445401      -0.00018138       0.00025652      -0.00031483
