9
Lattice="5.45083932742762 2.1328203880439764e-08 3.1470435839529767 1.8169464608056995 5.139100645070176 3.147043587033582 -3.463432502165337e-08 -2.0717203621182353e-08 6.294087227894316" Properties=species:S:1:pos:R:3:forces:R:3 energy=-33.272796630859375 free_energy=-33.272796630859375 stress="0.00017638436111155897 -2.4538252318961895e-08 -7.683691016779903e-09 -2.4538252318961895e-08 0.00017639480938669294 1.3899540185491333e-08 -7.683691016779903e-09 1.3899540185491333e-08 0.0001763723703334108" pbc="T T T"
Au       1.81694645       1.28477499       3.14704363       0.00000043      -0.00000043       0.00000037
Au       5.45083931       3.85432528       9.44113067       0.00000002      -0.00000051       0.00000013
Rh       0.00000002       0.00000024       0.00000020      -0.00000004      -0.00000105      -0.00000005
S        1.89098280       1.33712686       6.29408712      -0.00132829      -0.00093830      -0.00000050
S        5.37680290       3.80197373       6.29408718       0.00132817       0.00093913      -0.00000005
S        4.50534783       1.33712686       4.78468275       0.00066432      -0.00093865      -0.00115091
S        2.76243797       3.80197400       7.80349152      -0.00066459       0.00093997       0.00115120
S        2.76243793       3.80197381       4.78468286      -0.00066325       0.00093856      -0.00114930
S        4.50534780       1.33712685       7.80349169       0.00066301      -0.00093868       0.00114924
