9
Lattice="4.738377876712918 9.8931932225997e-08 2.7357039211901895 1.5794592715420668 4.467386206069362 2.735704118591174 -7.545344207164425e-08 1.8841219167035332e-07 5.471407973069587" Properties=species:S:1:pos:R:3:forces:R:3 energy=-38.070491790771484 free_energy=-38.070491790771484 stress="-0.0006458915886469185 3.1517366494426824e-08 -5.5115638275538004e-08 3.1517366494426824e-08 -0.0006459887372329831 2.8495369619463418e-08 -5.5115638275538004e-08 2.8495369619463418e-08 -0.0006459165015257895" pbc="T T T"
Au       1.57945868       1.11684620       2.73570215      -0.00000295      -0.00000262      -0.00002702
Au       4.73837748       3.35053980       8.20711216      -0.00000418       0.00000174      -0.00000034
Rh      -0.00000004       0.00000032      -0.00000082       0.00000189      -0.00000051       0.00000259
O        1.56431616       1.10613864       5.47140976       0.00551930       0.00390235       0.00001284
O        4.75352177       3.36124725       5.47140856      -0.00551820      -0.00390738       0.00000062
O        3.95622069       1.10613864       4.09044102      -0.00275385       0.00390485       0.00478098
O        2.36161776       3.36124739       6.85237507       0.00276218      -0.00390500      -0.00477585
O        2.36161703       3.36124971       4.09044181       0.00276490      -0.00389630       0.00478843
O        3.95621860       1.10613817       6.85237437      -0.00276852       0.00390258      -0.00478250
