9
Lattice="5.4333337933173045 4.5272732868259724e-08 3.1369366414938518 1.8111112908187623 5.122596285052795 3.1369366697330356 -3.713636631726289e-08 8.326390509457298e-09 6.273873347309791" Properties=species:S:1:pos:R:3:forces:R:3 energy=-34.98154830932617 free_energy=-34.98154830932617 stress="0.0001603858981980011 -1.6487396337083737e-08 -1.6354656295902714e-08 -1.6487396337083737e-08 0.00016032268467824906 -3.4923823832855305e-09 -1.6354656295902714e-08 -3.4923823832855305e-09 0.00016036735905800015" pbc="T T T"
Au       1.81111105       1.28064911       3.13693651       0.00000068       0.00000026       0.00000047
Au       5.43333364       3.84194704       9.41080990      -0.00000095       0.00000106      -0.00000111
Ru      -0.00000045      -0.00000014      -0.00000016      -0.00000394      -0.00000170       0.00000010
S        1.90276271       1.34545601       6.27387329      -0.00343448      -0.00243014      -0.00000116
S        5.34168293       3.77714022       6.27387333       0.00343812       0.00243109      -0.00000060
S        4.48195273       1.34545626       4.78477698       0.00171795      -0.00242954      -0.00297654
S        2.76249259       3.77714022       7.76297005      -0.00171724       0.00242946       0.00297606
S        2.76249226       3.77714045       4.78477694      -0.00171807       0.00242916      -0.00297463
S        4.48195280       1.34545618       7.76296974       0.00171804      -0.00242960       0.00297666
