9
Lattice="5.761930257957854 1.4575257710163974e-07 3.3266518465343844 1.9206435083712396 5.432400068282778 3.326651930304899 -1.5847330146095186e-07 -9.460106470277592e-09 6.653303967552581" Properties=species:S:1:pos:R:3:forces:R:3 energy=-28.469829559326172 free_energy=-28.469829559326172 stress="-0.0001488567650085315 6.248126904750961e-09 -2.028075041238253e-09 6.248126904750961e-09 -0.00014887227735016495 2.799508003192841e-08 -2.028075041238253e-09 2.799508003192841e-08 -0.0001488427515141666" pbc="T T T"
Au       1.92064330       1.35809973       3.32665173       0.00000048       0.00000092       0.00000076
Au       5.76192977       4.07430077       9.97995615       0.00000021      -0.00000029       0.00000001
Sb       0.00000054       0.00000022       0.00000024      -0.00000173      -0.00000181      -0.00000046
Se       2.28399468       1.61502800       6.65330368       0.00328696       0.00232506      -0.00000187
Se       5.39857808       3.81737177       6.65330323      -0.00328058      -0.00232019      -0.00000128
Se       4.61993300       1.61502798       5.30464967      -0.00164378       0.00232161       0.00284503
Se       3.06264135       3.81737146       8.00195816       0.00164032      -0.00232272      -0.00284204
Se       3.06264125       3.81737230       5.30464983       0.00164056      -0.00232357       0.00284365
Se       4.61993247       1.61502859       8.00195833      -0.00164247       0.00232103      -0.00284385
