9
Lattice="4.704422999660459 1.0649587440479369e-07 2.7160995536738195 1.5681410412435353 4.435372756699222 2.7160996559489674 4.376884406449392e-08 1.5621020865119393e-07 5.432199031537745" Properties=species:S:1:pos:R:3:forces:R:3 energy=-37.78458786010742 free_energy=-37.78458786010742 stress="-5.325809615897015e-05 1.5822237742213474e-07 -2.506920893097231e-08 1.5822237742213474e-07 -5.340834832168184e-05 3.603626552717287e-08 -2.506920893097231e-08 3.603626552717287e-08 -5.362741285352968e-05" pbc="T T T"
Au       1.56814014       1.10884416       2.71609995      -0.00000578       0.00000618       0.00000295
Au       4.70442245       3.32652907       8.14829963      -0.00000630      -0.00000526       0.00000552
Sb       0.00000035      -0.00000002      -0.00000021      -0.00000993       0.00000001       0.00000524
O        1.62743893       1.15077308       5.43219889       0.00036097       0.00025517      -0.00000123
O        4.64512543       3.28459956       5.43219888      -0.00035238      -0.00025350      -0.00000112
O        3.89070411       1.15077337       4.12550223      -0.00017697       0.00025916       0.00031447
O        2.38186015       3.28460009       6.73889597       0.00018406      -0.00026089      -0.00032139
O        2.38186082       3.28459975       4.12550169       0.00018603      -0.00026333       0.00031668
O        3.89070416       1.15077320       6.73889577      -0.00018013       0.00026238      -0.00032115
