9
Lattice="5.705548535491595 -2.653347999705714e-07 3.29409987840933 1.9018493431147485 5.379242657144925 3.2940997373437018 1.2705505663623167e-08 -1.6378520891634327e-07 6.5881997348120676" Properties=species:S:1:pos:R:3:forces:R:3 energy=-27.06586456298828 free_energy=-27.06586456298828 stress="7.564668339909986e-05 -1.4854901309035995e-08 7.275438584919414e-10 -1.4854901309035995e-08 7.56620938773267e-05 7.54923590307044e-09 7.275438584919414e-10 7.54923590307044e-09 7.569017907371745e-05" pbc="T T T"
Au       1.90185031       1.34481000       3.29409968       0.00000525      -0.00000558      -0.00000072
Au       5.70554776       4.03443042       9.88230026      -0.00000329      -0.00000705       0.00000462
Sb      -0.00000005      -0.00000030      -0.00000015       0.00000032       0.00000298      -0.00000192
S        1.99679684       1.41194871       6.58819972      -0.00439316      -0.00310475       0.00000031
S        5.61060109       3.96729397       6.58819937       0.00439048       0.00310594      -0.00000283
S        4.70714974       1.41194920       5.02337622       0.00219673      -0.00310141      -0.00380918
S        2.90024785       3.96729421       8.15302217      -0.00219768       0.00310898       0.00380141
S        2.90024848       3.96729395       5.02337690      -0.00219297       0.00310552      -0.00380221
S        4.70714958       1.41194878       8.15302321       0.00219452      -0.00310451       0.00381041
