9
Lattice="5.648368746516117 3.070776640746157e-09 3.2610873755524636 1.882789615662614 5.325333075700003 3.2610873225595935 4.4616069031911304e-08 -3.335438663395961e-08 6.52217467382759" Properties=species:S:1:pos:R:3:forces:R:3 energy=-37.11824035644531 free_energy=-37.11824035644531 stress="5.9454047004692256e-05 -6.004434727202579e-09 1.8781705080073152e-08 -6.004434727202579e-09 5.945584780420177e-05 -1.7227009152520623e-08 1.8781705080073152e-08 -1.7227009152520623e-08 5.9373876865720376e-05" pbc="T T T"
Au       1.88278964       1.33133340       3.26108734      -0.00000035       0.00000071       0.00000049
Au       5.64836868       3.99399970       9.78326185       0.00000030       0.00000054      -0.00000004
Ta      -0.00000007      -0.00000005      -0.00000018       0.00000051       0.00000048      -0.00000063
Se       2.06514755       1.46027952       6.52217469      -0.00162258      -0.00114910       0.00000032
Se       5.46601120       3.86505329       6.52217461       0.00162350       0.00114567       0.00000167
Se       4.61579478       1.46027982       5.04955736       0.00080884      -0.00114733      -0.00140805
Se       2.91536330       3.86505348       7.99479193      -0.00081124       0.00114846       0.00140448
Se       2.91536350       3.86505328       5.04955776      -0.00081068       0.00114753      -0.00140461
Se       4.61579504       1.46027975       7.99479210       0.00081177      -0.00114693       0.00140633
