9
Lattice="5.47667609588003 5.886032516004673e-08 3.1619605477580985 1.825558767646642 5.163459740547289 3.1619605243305076 5.939831640321277e-09 -2.4492710096201052e-08 6.323921085228101" Properties=species:S:1:pos:R:3:forces:R:3 energy=-39.48710632324219 free_energy=-39.48710632324219 stress="0.00025980727514252067 -2.287137412793072e-08 2.96991720105666e-09 -2.287137412793072e-08 0.0002597629209049046 -3.6817291437785116e-09 2.96991720105666e-09 -3.6817291437785116e-09 0.00025973180891014636" pbc="T T T"
Au       1.82555871       1.29086470       3.16196049      -0.00000021      -0.00000184      -0.00000063
Au       5.47667604       3.87259493       9.48588132      -0.00000070       0.00000013      -0.00000303
Ta      -0.00000008       0.00000017      -0.00000003       0.00000163      -0.00000130       0.00000035
S        1.96399101       1.38875118       6.32392109      -0.00708055      -0.00500597      -0.00000089
S        5.33824387       3.77470861       6.32392112       0.00708145       0.00500695       0.00000019
S        4.49468071       1.38875112       4.86282662       0.00353919      -0.00500704      -0.00613159
S        2.80755442       3.77470875       7.78501564      -0.00354122       0.00500889       0.00613257
S        2.80755420       3.77470864       4.86282671      -0.00354019       0.00500682      -0.00613004
S        4.49468060       1.38875098       7.78501566       0.00354044      -0.00500689       0.00613344
