9
Lattice="5.165113133930084 2.2884557691704036e-08 2.982079543587597 1.7217043219366834 4.869715733328566 2.9820796780220453 -1.5544609709785587e-07 5.473094848702741e-08 5.964159356415732" Properties=species:S:1:pos:R:3:forces:R:3 energy=-53.00629806518555 free_energy=-53.00629806518555 stress="-5.11833350174129e-05 -3.3549650169106826e-08 -2.6510180717309595e-08 -3.3549650169106826e-08 -5.114437226438895e-05 1.6906659183746342e-08 -2.6510180717309595e-08 1.6906659183746342e-08 -5.111283462611027e-05" pbc="T T T"
Ba       1.72170417       1.21742892       2.98207954       0.00000052       0.00000008       0.00000115
Ba       5.16511317       3.65228685       8.94623910      -0.00000027      -0.00000008      -0.00000201
As       0.00000001      -0.00000013       0.00000010      -0.00000245       0.00000080      -0.00000472
O        1.47656321       1.04408823       5.96415933       0.00416386       0.00294524       0.00000008
O        5.41025376       3.82562767       5.96415931      -0.00416291      -0.00294459       0.00000130
O        4.42683124       1.04408842       4.26082095      -0.00208145       0.00294363       0.00360680
O        2.45998605       3.82562785       7.66749736       0.00208157      -0.00294393      -0.00360620
O        2.45998590       3.82562739       4.26082121       0.00208080      -0.00294393       0.00360656
O        4.42683122       1.04408830       7.66749745      -0.00207978       0.00294256      -0.00360370
