9
Lattice="6.072684305865278 -7.818321935540427e-08 3.506065951919341 2.024228018134767 5.725381696590281 3.506065969427718 -5.778160273297371e-08 -1.9414432993259156e-08 7.012132003919389" Properties=species:S:1:pos:R:3:forces:R:3 energy=-37.87125015258789 free_energy=-37.87125015258789 stress="-3.4593656891956925e-05 -1.9056740185874332e-08 -3.090629530078104e-09 -1.9056740185874332e-08 -3.457618731772527e-05 -3.6939789005430157e-09 -3.090629530078104e-09 -3.6939789005430157e-09 -3.457117054495029e-05" pbc="T T T"
Ba       2.02422803       1.43134535       3.50606617       0.00000067      -0.00000004      -0.00000092
Ba       6.07268425       4.29403631      10.51819787       0.00000023      -0.00000048      -0.00000070
As       0.00000041       0.00000026       0.00000289      -0.00000490      -0.00000367      -0.00003226
Se       2.10416815       1.48787137       7.01213220       0.00224298       0.00158605      -0.00000003
Se       5.99274373       4.23750988       7.01213210      -0.00223958      -0.00158283       0.00000004
Se       5.02060061       1.48787090       5.32832852      -0.00112525       0.00159177       0.00194883
Se       3.07631290       4.23750898       8.69593370       0.00111577      -0.00157744      -0.00193191
Se       3.07631169       4.23751064       5.32832834       0.00112532      -0.00159097       0.00194862
Se       5.02059934       1.48787272       8.69593373      -0.00111531       0.00157785      -0.00193173
