9
Lattice="6.721806191878205 2.3261046539054226e-08 3.8808365209484386 2.240602137883 6.337379561190797 3.880836430894213 4.435681557996606e-08 -7.892844185899995e-08 7.761672965068629" Properties=species:S:1:pos:R:3:forces:R:3 energy=-34.00712585449219 free_energy=-34.00712585449219 stress="-7.349964107561391e-06 -3.0147186969031736e-09 7.655605038792146e-09 -3.0147186969031736e-09 -7.344789537455654e-06 3.2420908180341712e-09 7.655605038792146e-09 3.2420908180341712e-09 -7.359788924077293e-06" pbc="T T T"
Ba       2.24060214       1.58434485       3.88083636      -0.00000003       0.00000007      -0.00000009
Ba       6.72180608       4.75303445      11.64250939       0.00000010      -0.00000020       0.00000036
Bi       0.00000020       0.00000012       0.00000077      -0.00000033       0.00000088      -0.00000489
Te       2.47940184       1.75320164       7.76167299      -0.00060606      -0.00042878      -0.00000038
Te       6.48300667       4.58417788       7.76167302       0.00060669       0.00042994      -0.00000021
Te       5.48210554       1.75320144       6.02806132       0.00030243      -0.00042805      -0.00052446
Te       3.48030335       4.58417739       9.49528461      -0.00030459       0.00042976       0.00052547
Te       3.48030287       4.58417821       6.02806094      -0.00030257       0.00042826      -0.00052312
Te       5.48210481       1.75320206       9.49528420       0.00030427      -0.00043188       0.00052741
