9
Lattice="6.438500247787694 -4.4683143894218785e-07 3.717270225850116 2.1461664987027533 6.070276013787113 3.717269930159848 8.693526827828908e-08 -3.006726014508331e-07 7.434540301123823" Properties=species:S:1:pos:R:3:forces:R:3 energy=-34.592647552490234 free_energy=-34.592647552490234 stress="-0.00023529269674327224 4.174179668581246e-09 -6.925386930589639e-09 4.174179668581246e-09 -0.00023528034216724336 -1.9412447205269245e-09 -6.925386930589639e-09 -1.9412447205269245e-09 -0.0002352874435018748" pbc="T T T"
Ba       2.14616676       1.51756901       3.71727089      -0.00000040      -0.00000055      -0.00000119
Ba       6.43849944       4.55270732      11.15180987       0.00000126      -0.00000175      -0.00000035
B        0.00000102       0.00000033       0.00000296      -0.00000020       0.00000033      -0.00000130
Te       1.93085149       1.36531642       7.43454013       0.00721045       0.00510041      -0.00000154
Te       6.65381531       4.70495794       7.43454028      -0.00721000      -0.00509801      -0.00000218
Te       5.47307528       1.36531692       5.38943514      -0.00360769       0.00510134       0.00624599
Te       3.11159224       4.70495701       9.47964391       0.00360342      -0.00509611      -0.00624427
Te       3.11159190       4.70495882       5.38943549       0.00360665      -0.00510186       0.00624710
Te       5.47307389       1.36531709       9.47964333      -0.00360347       0.00509621      -0.00624232
