9
Lattice="6.270904349012054 6.682184468260109e-09 3.6205083330051737 2.090301486977376 5.912265225781748 3.6205082793000263 9.982556359580569e-09 -5.8716368224018515e-08 7.241016648720051" Properties=species:S:1:pos:R:3:forces:R:3 energy=-36.95914077758789 free_energy=-36.95914077758789 stress="3.7970394828334975e-07 -4.057973068682941e-09 2.6965061294959014e-09 -4.057973068682941e-09 3.8764386545153684e-07 2.716150193649014e-09 2.6965061294959014e-09 2.716150193649014e-09 3.962871062412887e-07" pbc="T T T"
Ba       2.09030147       1.47806676       3.62050835      -0.00000010      -0.00000030      -0.00000006
Ba       6.27090430       4.43419881      10.86152493       0.00000050      -0.00000021       0.00000024
Bi       0.00000031       0.00000034      -0.00000041      -0.00000303      -0.00000318       0.00000117
Se       2.32724740       1.64561267       7.24101679      -0.00038761      -0.00027364      -0.00000001
Se       6.03395913       4.26665293       7.24101654       0.00038838       0.00027475      -0.00000030
Se       5.10728041       1.64561194       5.63596352       0.00019465      -0.00027472      -0.00033678
Se       3.25392482       4.26665269       8.84606971      -0.00019404       0.00027572       0.00033647
Se       3.25392509       4.26665279       5.63596362      -0.00019403       0.00027572      -0.00033711
Se       5.10728041       1.64561177       8.84606998       0.00019519      -0.00027411       0.00033633
