9
Lattice="5.885943433110016 -4.262644199009892e-08 3.398251142267209 1.961981266339017 5.549320149900966 3.3982508614019746 2.0856281660970687e-07 -1.9651205439530836e-07 6.796501923293026" Properties=species:S:1:pos:R:3:forces:R:3 energy=-38.84904479980469 free_energy=-38.84904479980469 stress="-7.2320967774430756e-06 3.681953231193802e-08 1.9717822041798172e-08 3.681953231193802e-08 -7.137547072488815e-06 4.070912495990342e-09 1.9717822041798172e-08 4.070912495990342e-09 -7.131175607355544e-06" pbc="T T T"
Ba       1.96198113       1.38732999       3.39825092      -0.00000118      -0.00000007       0.00000069
Ba       5.88594394       4.16199024      10.19475326      -0.00000123      -0.00000136      -0.00000258
B       -0.00000028       0.00000008      -0.00000016       0.00000038      -0.00000018      -0.00000037
Se       1.78407772       1.26153269       6.79650193       0.00056550       0.00040034      -0.00000100
Se       6.06384770       4.28778702       6.79650200      -0.00056374      -0.00039998       0.00000086
Se       4.99390440       1.26153305       4.94330711      -0.00028264       0.00039885       0.00048922
Se       2.85402006       4.28778697       8.64969654       0.00028331      -0.00039872      -0.00048866
Se       2.85402017       4.28778703       4.94330723       0.00028240      -0.00039915       0.00048981
Se       4.99390510       1.26153263       8.64969692      -0.00028297       0.00040040      -0.00048788
