9
Lattice="4.990039755564619 9.234369216676274e-08 2.8810021977610996 1.6633463986899448 4.7046556037337846 2.881002671582157 -4.474399478371644e-07 2.639221470648753e-07 5.762005170510736" Properties=species:S:1:pos:R:3:forces:R:3 energy=-51.66749572753906 free_energy=-51.66749572753906 stress="-2.335877434234135e-05 5.405576075645513e-08 -3.642510293389023e-09 5.405576075645513e-08 -2.3480955860577524e-05 -7.875852503502756e-08 -3.642510293389023e-09 -7.875852503502756e-08 -2.3195974790723994e-05" pbc="T T T"
Ba       1.66334516       1.17616315       2.88100235       0.00000288       0.00000233      -0.00000103
Ba       4.99003948       3.52849199       8.64300821      -0.00000095      -0.00000028      -0.00000430
B       -0.00000268       0.00000065      -0.00000428      -0.00000728       0.00000253      -0.00000447
O        1.37057536       0.96914388       5.76200567       0.00075650       0.00053239       0.00000523
O        5.28281091       3.73551104       5.76200536      -0.00075340      -0.00053358       0.00000640
O        4.30475134       0.96914549       4.06795779      -0.00037771       0.00053334       0.00066209
O        2.34863417       3.73551211       7.45605373       0.00038582      -0.00054491      -0.00066185
O        2.34863579       3.73551073       4.06795787       0.00037646      -0.00053263       0.00065684
O        4.30475180       0.96914377       7.45605343      -0.00038183       0.00054097      -0.00065947
