9
Lattice="6.020000794798762 8.312046547258884e-10 3.4756489692046175 2.0066670125658113 5.6757107821860355 3.4756488303243755 5.985076633808174e-08 -1.277719862120752e-07 6.951297834744763" Properties=species:S:1:pos:R:3:forces:R:3 energy=-39.204105377197266 free_energy=-39.204105377197266 stress="0.0003169425472151488 3.967281614336571e-08 4.3647392367063276e-09 3.967281614336571e-08 0.0003168947296217084 2.747051031093406e-09 4.3647392367063276e-09 2.747051031093406e-09 0.00031690552714280784" pbc="T T T"
Ba       2.00666719       1.41892784       3.47564919       0.00000090      -0.00000062      -0.00000059
Ba       6.02000091       4.25678298      10.42694673       0.00000001      -0.00000140      -0.00000039
Bi       0.00000195       0.00000063       0.00000141      -0.00004699      -0.00001011      -0.00003231
S        2.05532093       1.45333093       6.95129778       0.00149241       0.00105557      -0.00000075
S        5.97134557       4.22237810       6.95129738      -0.00145662      -0.00102884       0.00000086
S        4.99234030       1.45333157       5.25560939      -0.00073823       0.00104474       0.00127953
S        3.03432757       4.22237843       8.64698646       0.00073338      -0.00103721      -0.00127256
S        3.03432735       4.22237956       5.25560867       0.00074553      -0.00105520       0.00129312
S        4.99233969       1.45333257       8.64698574      -0.00073029       0.00103332      -0.00126684
