9
Lattice="5.795150278447231 -1.9982800653223225e-09 3.345831285990165 1.931716787971629 5.463720124925171 3.345831233382193 5.870378578834592e-08 -2.2921471127067765e-08 6.691662470302373" Properties=species:S:1:pos:R:3:forces:R:3 energy=-38.22414779663086 free_energy=-38.22414779663086 stress="9.20110396691598e-05 1.1270200328539204e-09 2.6725681223638276e-08 1.1270200328539204e-09 9.20002639759332e-05 4.431533184856562e-08 2.6725681223638276e-08 4.431533184856562e-08 9.197372128255665e-05" pbc="T T T"
Ba       1.93171679       1.36593017       3.34583135       0.00000004      -0.00000016      -0.00000139
Ba       5.79515044       4.09779005      10.03749360      -0.00000118      -0.00000026      -0.00000005
Ga       0.00000071      -0.00000085       0.00000044      -0.00000570       0.00000468      -0.00000311
S        1.93439679       1.36782446       6.69166226       0.00622657       0.00440477       0.00000045
S        5.79247020       4.09589535       6.69166226      -0.00622287      -0.00440073      -0.00000056
S        4.82795215       1.36782517       5.02106825      -0.00311376       0.00440249       0.00539082
S        2.89891499       4.09589521       8.36225699       0.00311381      -0.00440407      -0.00539339
S        2.89891464       4.09589520       5.02106774       0.00311500      -0.00440496       0.00539547
S        4.82795184       1.36782566       8.36225705      -0.00311168       0.00439841      -0.00538802
