9
Lattice="5.183150895553276 -2.096027597907984e-08 2.9924935386762503 1.7277169387329567 4.8867216546574195 2.992493550263601 -3.361678356485795e-08 -9.579155590205387e-09 5.984987135578482" Properties=species:S:1:pos:R:3:forces:R:3 energy=-47.96208190917969 free_energy=-47.96208190917969 stress="0.00016629791934974492 -4.1510880066653044e-08 -2.5318169782906352e-09 -4.1510880066653044e-08 0.00016623405099380761 -3.488269939566635e-08 -2.5318169782906352e-09 -3.488269939566635e-08 0.0001662791328271851" pbc="T T T"
Ba       1.72771683       1.22168046       2.99249349       0.00000121      -0.00000025       0.00000072
Ba       5.18315109       3.66504114       8.97748057      -0.00000167       0.00000069      -0.00000030
Ga       0.00000001      -0.00000001       0.00000014       0.00000185       0.00000106      -0.00000183
O        1.58022640       1.11738877       5.98498711       0.00289750       0.00204927      -0.00000085
O        5.33064163       3.76933283       5.98498712      -0.00289953      -0.00205088      -0.00000032
O        4.39303763       1.11738872       4.36100963      -0.00144929       0.00205016       0.00251132
O        2.51783002       3.76933278       7.60896454       0.00144866      -0.00204915      -0.00250965
O        2.51783004       3.76933280       4.36100965       0.00144950      -0.00205034       0.00251150
O        4.39303763       1.11738885       7.60896450      -0.00144857       0.00204936      -0.00251049
