9
Lattice="6.502718298593111 3.3741555684781607e-07 3.754346249642487 2.167573047103142 6.1308216933890405 3.7543463140971487 4.914857571350815e-08 1.1369385389715031e-07 7.508692414157181" Properties=species:S:1:pos:R:3:forces:R:3 energy=-33.225059509277344 free_energy=-33.225059509277344 stress="-0.00015501020243391395 -1.610096056481325e-09 7.42824290966837e-09 -1.610096056481325e-09 -0.00015502549649681896 -1.6815452141827336e-08 7.42824290966837e-09 -1.6815452141827336e-08 -0.00015500698646064848" pbc="T T T"
Ba       2.16757296       1.53270598       3.75434647       0.00000014      -0.00000002      -0.00000027
Ba       6.50271835       4.59811622      11.26303844       0.00000007       0.00000035       0.00000001
Ga       0.00000020      -0.00000006      -0.00000029      -0.00000098      -0.00000090       0.00000129
Te       2.30471595       1.62968000       7.50869240       0.00689884       0.00487882       0.00000081
Te       6.36557501       4.50114189       7.50869227      -0.00689718      -0.00487763       0.00000020
Te       5.35036053       1.62968028       5.75028913      -0.00344865       0.00487800       0.00597361
Te       3.31993079       4.50114193       9.26709628       0.00344930      -0.00487877      -0.00597467
Te       3.31993091       4.50114181       5.75028908       0.00344848      -0.00487776       0.00597373
Te       5.35036087       1.62968054       9.26709615      -0.00345006       0.00487810      -0.00597474
