9
Lattice="5.770839669835195 -5.946703431238423e-08 3.3317958123133558 1.9236131707425352 5.440799720125651 3.3317958061988384 -1.1461449719453301e-07 -8.853336439191553e-08 6.663591823144817" Properties=species:S:1:pos:R:3:forces:R:3 energy=-45.43535614013672 free_energy=-45.43535614013672 stress="-6.397298420779407e-05 -1.9169672071939203e-08 -9.420336510856941e-09 -1.9169672071939203e-08 -6.394412775989622e-05 1.9289112529463637e-09 -9.420336510856941e-09 1.9289112529463637e-09 -6.387654138961807e-05" pbc="T T T"
Ba       1.92361303       1.36019976       3.33179587       0.00000159      -0.00000092       0.00000028
Ba       5.77083960       4.08059964       9.99538747       0.00000012      -0.00000114       0.00000240
Ir       0.00000018       0.00000046      -0.00000031       0.00000124      -0.00000021      -0.00000077
S        1.91971489       1.35744332       6.66359200      -0.00268584      -0.00189948       0.00000054
S        5.77473814       4.08335617       6.66359175       0.00268197       0.00189781      -0.00000068
S        4.81098208       1.35744315       4.99431784       0.00134358      -0.00189888      -0.00232714
S        2.88347054       4.08335609       8.33286570      -0.00134376       0.00190198       0.00232780
S        2.88347045       4.08335637       4.99431779      -0.00134265       0.00190109      -0.00232869
S        4.81098194       1.35744327       8.33286583       0.00134373      -0.00190055       0.00232691
