9
Lattice="5.135986050936128 4.5221595005936344e-08 2.965262840998344 1.7119953924984934 4.84225404843204 2.965262841775815 1.1034267333526116e-07 7.897624977105869e-08 5.930525490877627" Properties=species:S:1:pos:R:3:forces:R:3 energy=-56.70252227783203 free_energy=-56.70252227783203 stress="7.386505603790283e-05 7.144285607552092e-09 -1.0667770666827892e-08 7.144285607552092e-09 7.383696356555447e-05 -4.288714272604466e-09 -1.0667770666827892e-08 -4.288714272604466e-09 7.382351759588346e-05" pbc="T T T"
Ba       1.71199533       1.21056362       2.96526281       0.00000086      -0.00000003      -0.00000020
Ba       5.13598613       3.63169067       8.89578825      -0.00000104      -0.00000058       0.00000124
Ir      -0.00000006      -0.00000006       0.00000025       0.00000520      -0.00000368      -0.00001231
O        1.56206387       1.10454598       5.93052550       0.00233334       0.00164866      -0.00000036
O        5.28591767       3.73770822       5.93052571      -0.00233436      -0.00165075      -0.00000035
O        4.35495422       1.10454605       4.31804963      -0.00116920       0.00165337       0.00202698
O        2.49302741       3.73770807       7.54300164       0.00116393      -0.00164479      -0.00201607
O        2.49302729       3.73770817       4.31804969       0.00116760      -0.00164992       0.00202280
O        4.35495433       1.10454615       7.54300166      -0.00116652       0.00164801      -0.00202101
