9
Lattice="6.05002994739123 3.623475735725504e-08 3.4929864067250107 2.0166767213756662 5.704022903899734 3.492986340763666 8.590994365750402e-08 -2.0038273867412204e-08 6.985972664649663" Properties=species:S:1:pos:R:3:forces:R:3 energy=-45.0630989074707 free_energy=-45.0630989074707 stress="-0.0002726600505411625 5.059404006857449e-09 -5.3563158353142626e-09 5.059404006857449e-09 -0.00027265347307547927 3.616105415105153e-09 -5.3563158353142626e-09 3.616105415105153e-09 -0.00027265044627711177" pbc="T T T"
Ba       2.01667673       1.42600594       3.49298636       0.00000079       0.00000007      -0.00000024
Ba       6.05003009       4.27801705      10.47895906      -0.00000062       0.00000003       0.00000067
Mo      -0.00000020      -0.00000025      -0.00000026      -0.00000021      -0.00000031       0.00000116
Se       2.04406947       1.44537557       6.98597270       0.00166097       0.00117449      -0.00000020
Se       6.02263681       4.25864744       6.98597277      -0.00165907      -0.00117321       0.00000019
Se       5.02799521       1.44537547       5.26320254      -0.00083045       0.00117353       0.00143720
Se       3.03871166       4.25864748       8.70874287       0.00083028      -0.00117482      -0.00143757
Se       3.03871188       4.25864748       5.26320264       0.00082971      -0.00117457       0.00143713
Se       5.02799544       1.44537553       8.70874301      -0.00083143       0.00117473      -0.00143844
