9
Lattice="5.145190497282842 1.9038621522688255e-07 2.970577147448344 1.7150636489557234 4.850931976720224 2.970577198780103 1.2998835900690728e-07 1.5478398576655025e-07 5.941154069750222" Properties=species:S:1:pos:R:3:forces:R:3 energy=-57.822689056396484 free_energy=-57.822689056396484 stress="-0.00017320210463367403 1.813013739138114e-07 1.6141397551905357e-08 1.813013739138114e-07 -0.00017312138515990227 1.936972005012194e-08 1.6141397551905357e-08 1.936972005012194e-08 -0.00017321186896879226" pbc="T T T"
Ba       1.71506394       1.21273310       2.97057707      -0.00000205      -0.00000012       0.00000025
Ba       5.14519035       3.63819929       8.91173157       0.00000225       0.00000018      -0.00000045
Mo       0.00000013       0.00000014      -0.00000015      -0.00000421      -0.00000196      -0.00000204
O        1.56547516       1.10695878       5.94115395      -0.00755262      -0.00534320      -0.00000070
O        5.29477862       3.74397317       5.94115467       0.00755954       0.00534725      -0.00000233
O        4.36245369       1.10695798       4.32631836       0.00377005      -0.00533515      -0.00653541
O        2.49780106       3.74397432       7.55598991      -0.00377357       0.00533748       0.00653887
O        2.49780074       3.74397423       4.32631828      -0.00377029       0.00533599      -0.00653803
O        4.36245365       1.10695851       7.55598992       0.00377190      -0.00534064       0.00653946
