9
Lattice="5.823070514135163 4.494317556880121e-08 3.3619511941908167 1.941023438982706 5.490043831422394 3.361951381428666 -1.6124150604795675e-07 1.1530364870088104e-07 6.72390266766013" Properties=species:S:1:pos:R:3:forces:R:3 energy=-49.093414306640625 free_energy=-49.093414306640625 stress="-4.288165655452758e-05 7.929657819261138e-09 1.5100349415320125e-08 7.929657819261138e-09 -4.285860632080585e-05 -2.266002674389256e-08 1.5100349415320125e-08 -2.266002674389256e-08 -4.2938092519761994e-05" pbc="T T T"
Ba       1.94102376       1.37251107       3.36195110      -0.00000120       0.00000109       0.00000031
Ba       5.82307019       4.11753305      10.08585437       0.00000095      -0.00000100      -0.00000211
Mo       0.00000013      -0.00000021       0.00000018      -0.00000064       0.00000301       0.00000229
S        1.92546146       1.36150721       6.72390255       0.00192543       0.00136257       0.00000064
S        5.83863250       4.12853683       6.72390239      -0.00192865      -0.00136264       0.00000209
S        4.86033929       1.36150747       5.02944970      -0.00096258       0.00136121       0.00166919
S        2.90375383       4.12853702       8.41835563       0.00096701      -0.00136589      -0.00167461
S        2.90375436       4.12853662       5.02944957       0.00096237      -0.00136140       0.00167042
S        4.86033964       1.36150690       8.41835543      -0.00096264       0.00136304      -0.00166810
