9
Lattice="5.035692388493504 3.6428082314116696e-08 2.9073578076493445 1.6785642554003248 4.747695497369284 2.9073576490666313 2.173647529693715e-07 -4.052325868434003e-08 5.814715238811933" Properties=species:S:1:pos:R:3:forces:R:3 energy=-48.50400161743164 free_energy=-48.50400161743164 stress="3.829708293778822e-05 1.8256118394788245e-08 -4.194588426598145e-11 1.8256118394788245e-08 3.812952127191238e-05 9.254066957176121e-11 -4.194588426598145e-11 9.254066957176121e-11 3.852020381600596e-05" pbc="T T T"
Ba       1.67856418       1.18692421       2.90735771       0.00000096      -0.00000049       0.00000056
Ba       5.03569267       3.56077157       8.72207342      -0.00000067       0.00000056      -0.00000064
N        0.00000117      -0.00000033      -0.00000012      -0.00001352      -0.00000108      -0.00000438
O        1.30789251       0.92481919       5.81471516      -0.00076008      -0.00054026       0.00000028
O        5.40636485       3.82287669       5.81471521       0.00075996       0.00053298       0.00000217
O        4.38174638       0.92481910       4.04002455       0.00038242      -0.00053465      -0.00065315
O        2.33250981       3.82287688       7.58940591      -0.00037575       0.00053859       0.00065970
O        2.33250990       3.82287650       4.04002454      -0.00037509       0.00053501      -0.00065541
O        4.38174701       0.92481834       7.58940627       0.00038081      -0.00053024       0.00064957
