9
Lattice="5.85183808937545 7.54136311610941e-08 3.3785603826174113 1.9506128113666312 5.517165562387329 3.3785603067406593 1.1930841369928847e-07 -8.565907893098438e-09 6.757120558586569" Properties=species:S:1:pos:R:3:forces:R:3 energy=-42.341285705566406 free_energy=-42.341285705566406 stress="-5.3665979066863656e-05 -1.2557730855178306e-08 -7.91960985679907e-09 -1.2557730855178306e-08 -5.362304000300355e-05 -9.695342306770272e-09 -7.91960985679907e-09 -9.695342306770272e-09 -5.362210140447132e-05" pbc="T T T"
Ba       1.95061302       1.37929139       3.37856032      -0.00000005      -0.00000199      -0.00000028
Ba       5.85183824       4.13787424      10.13568097       0.00000138       0.00000143      -0.00000136
P       -0.00000056       0.00000009       0.00000059       0.00001131      -0.00000000      -0.00001068
S        1.81678445       1.28466079       6.75712035       0.00408101       0.00288576      -0.00000013
S        5.98566711       4.23250527       6.75712064      -0.00409222      -0.00289387       0.00000018
S        4.94344603       1.28466040       4.95194137      -0.00204438       0.00289273       0.00354445
S        2.85900508       4.23250496       8.56229962       0.00204068      -0.00288469      -0.00353402
S        2.85900490       4.23250493       4.95194150       0.00204372      -0.00288779       0.00353831
S        4.94344593       1.28466054       8.56229970      -0.00204086       0.00288874      -0.00353640
