9
Lattice="5.968901733647162 3.490275748564048e-08 3.446146675823479 1.9896338423859474 5.627534703776673 3.446146852036088 -1.8397521912645628e-07 8.572531507267768e-08 6.892293670301364" Properties=species:S:1:pos:R:3:forces:R:3 energy=-38.89583969116211 free_energy=-38.89583969116211 stress="-1.3823328117723577e-05 -8.243536520069483e-09 -4.07894562570732e-09 -8.243536520069483e-09 -1.3894677067582961e-05 1.23027934506581e-08 -4.07894562570732e-09 1.23027934506581e-08 -1.381970287184231e-05" pbc="T T T"
Ba       1.98963378       1.40688388       3.44614683      -0.00000009       0.00000009       0.00000038
Ba       5.96890159       4.22065118      10.33844054      -0.00000066       0.00000103      -0.00000160
P        0.00000010      -0.00000016      -0.00000034       0.00000192      -0.00000025       0.00000430
Se       1.92054917       1.35803340       6.89229386       0.00069222       0.00048886       0.00000018
Se       6.03798625       4.26950117       6.89229360      -0.00069270      -0.00049160      -0.00000005
Se       5.00862731       1.35803359       5.10939075      -0.00034507       0.00048901       0.00059837
Se       2.94990801       4.26950157       8.67519597       0.00034638      -0.00048968      -0.00060081
Se       2.94990849       4.26950150       5.10939109       0.00034575      -0.00048898       0.00059912
Se       5.00862695       1.35803325       8.67519641      -0.00034757       0.00049168      -0.00060010
