9
Lattice="5.055725576133343 -2.61837064304695e-08 2.9189245879674393 1.6852418650094914 4.7665834891235885 2.9189245343004937 1.7712527088510908e-07 5.951820860608642e-08 5.837848869144881" Properties=species:S:1:pos:R:3:forces:R:3 energy=-55.58705139160156 free_energy=-55.58705139160156 stress="4.3981744966004044e-05 4.7443219131082515e-08 -1.2499328683190924e-08 4.7443219131082515e-08 4.402699414640665e-05 2.34247092834039e-08 -1.2499328683190924e-08 2.34247092834039e-08 4.39628965978045e-05" pbc="T T T"
Ba       1.68524198       1.19164606       2.91892434      -0.00000020      -0.00000056       0.00000069
Ba       5.05572562       3.57493754       8.75677379       0.00000063       0.00000084      -0.00000191
P        0.00000002      -0.00000029       0.00000004      -0.00000271       0.00000026       0.00001119
O        1.41400147       0.99985011       5.83784878       0.00161910       0.00114512      -0.00000119
O        5.32696534       3.76673306       5.83784890      -0.00161886      -0.00114441      -0.00000099
O        4.34872497       0.99985043       4.14348568      -0.00080943       0.00114429       0.00140095
O        2.39224288       3.76673363       7.53221206       0.00081086      -0.00114644      -0.00140619
O        2.39224304       3.76673334       4.14348585       0.00080931      -0.00114453       0.00140190
O        4.34872506       0.99984994       7.53221268      -0.00080979       0.00114560      -0.00140476
