9
Lattice="5.731207320093975 -1.1151651353640808e-07 3.3089143524557687 1.910402290235181 5.403434202997512 3.3089144298045206 -1.1644642789609356e-08 8.649846366798341e-08 6.61782872508064" Properties=species:S:1:pos:R:3:forces:R:3 energy=-44.163021087646484 free_energy=-44.163021087646484 stress="9.546588262310252e-05 -2.8698904586121898e-08 1.9371876547324973e-08 -2.8698904586121898e-08 9.547977242618799e-05 1.439841046391166e-08 1.9371876547324973e-08 1.439841046391166e-08 9.553181735100225e-05" pbc="T T T"
Ba       1.91040233       1.35085861       3.30891442       0.00000112      -0.00000019      -0.00000048
Ba       5.73120680       4.05257506       9.92674279       0.00000064       0.00000120       0.00000176
Rh       0.00000010       0.00000021      -0.00000044      -0.00000078      -0.00000150      -0.00000011
S        1.90194070       1.34487546       6.61782892       0.00640085       0.00452507      -0.00000013
S        5.73966874       4.05855889       6.61782892      -0.00639912      -0.00452489      -0.00000059
S        4.78023702       1.34487524       4.95604379      -0.00319983       0.00452319       0.00553963
S        2.86137267       4.05855911       8.27961377       0.00319834      -0.00452316      -0.00553903
S        2.86137271       4.05855895       4.95604388       0.00319868      -0.00452313       0.00553817
S        4.78023726       1.34487514       8.27961387      -0.00319976       0.00452319      -0.00553969
