9
Lattice="5.74292901029403 -1.8065458010039155e-07 3.315681643698912 1.9143095277055062 5.414485384760296 3.3156815953222507 -6.51768070367999e-08 -1.0533596090854728e-07 6.631363400287368" Properties=species:S:1:pos:R:3:forces:R:3 energy=-45.62099838256836 free_energy=-45.62099838256836 stress="0.00035838939948007464 3.020024763600304e-08 4.297544098363915e-09 3.020024763600304e-08 0.0003583921061363071 -4.065552783316662e-09 4.297544098363915e-09 -4.065552783316662e-09 0.00035836841561831534" pbc="T T T"
Ba       1.91430954       1.35362126       3.31568153      -0.00000018       0.00000082       0.00000048
Ba       5.74292888       4.06086375       9.94704493      -0.00000018      -0.00000035       0.00000029
Ru      -0.00000024       0.00000101       0.00000102      -0.00000182       0.00000369       0.00000293
S        1.92594961       1.36185149       6.63136327       0.00196689       0.00139096      -0.00000073
S        5.73128906       4.05263320       6.63136328      -0.00196606      -0.00139168      -0.00000017
S        4.77995448       1.36185112       4.98360221      -0.00098488       0.00139222       0.00170463
S        2.87728418       4.05263364       8.27912394       0.00098476      -0.00139439      -0.00170678
S        2.87728404       4.05263357       4.98360265       0.00098518      -0.00139394       0.00170487
S        4.77995429       1.36185124       8.27912381      -0.00098380       0.00139266      -0.00170618
