9
Lattice="5.173067799159648 5.0249938489009005e-08 2.9866721323025835 1.724355983416167 4.877215133389773 2.986672127129148 4.673537705872754e-08 2.6710813808161967e-08 5.9733441836571215" Properties=species:S:1:pos:R:3:forces:R:3 energy=-53.023406982421875 free_energy=-53.023406982421875 stress="0.0004557037609629333 1.87756388214666e-09 1.0750960122152264e-08 1.87756388214666e-09 0.000455721456091851 1.251933490209467e-08 1.0750960122152264e-08 1.251933490209467e-08 0.00045583516475744545" pbc="T T T"
Ba       1.72435612       1.21930378       2.98667206      -0.00000038      -0.00000013      -0.00000029
Ba       5.17306769       3.65791132       8.96001613       0.00000060       0.00000020       0.00000055
Rh       0.00000007       0.00000009      -0.00000045       0.00000097      -0.00000226       0.00000978
O        1.58529840       1.12097518       5.97334412      -0.00660855      -0.00467274       0.00000056
O        5.31212531       3.75624002       5.97334417       0.00660950       0.00467291       0.00000153
O        4.38041869       1.12097511       4.35958073       0.00330579      -0.00467592      -0.00572526
O        2.51700493       3.75624018       7.58710815      -0.00330195       0.00466982       0.00572109
O        2.51700521       3.75624008       4.35958083      -0.00330725       0.00467661      -0.00572717
O        4.38041892       1.12097497       7.58710810       0.00330135      -0.00466824       0.00571889
