9
Lattice="5.938080364599119 -1.2475049756471576e-07 3.428352311850047 1.9793600385511643 5.598475666073251 3.4283522518622283 7.994420784154646e-08 -1.6940719665131195e-08 6.856704485232714" Properties=species:S:1:pos:R:3:forces:R:3 energy=-41.52332305908203 free_energy=-41.52332305908203 stress="6.833491170255002e-06 -3.0754129909382755e-08 -1.522143833199152e-08 -3.0754129909382755e-08 6.831129212514497e-06 1.9408943785492738e-08 -1.522143833199152e-08 1.9408943785492738e-08 6.9166062530712225e-06" pbc="T T T"
Ba       1.97936039       1.39961904       3.42835221      -0.00000023      -0.00000078       0.00000026
Ba       5.93808017       4.19885670      10.28505672      -0.00000021      -0.00000031      -0.00000031
Rh       0.00000016      -0.00000013      -0.00000029      -0.00000306      -0.00000004       0.00000238
Se       2.01753651       1.42661359       6.85670457       0.00057806       0.00040859      -0.00000026
Se       5.89990373       4.17186168       6.85670444      -0.00057487      -0.00040615       0.00000188
Se       4.92931176       1.42661407       5.17559095      -0.00028523       0.00040420       0.00049358
Se       2.98812870       4.17186165       8.53781853       0.00028645      -0.00040600      -0.00049695
Se       2.98812848       4.17186168       5.17559053       0.00028714      -0.00040592       0.00049651
Se       4.92931205       1.42661385       8.53781854      -0.00028808       0.00040644      -0.00049712
