9
Lattice="6.652082125705025 6.263378543160697e-08 3.8405814643809566 2.217360723891991 6.271643064257781 3.8405815401200707 -1.1566552218410352e-08 8.458231074080336e-08 7.681162948795787" Properties=species:S:1:pos:R:3:forces:R:3 energy=-34.12039566040039 free_energy=-34.12039566040039 stress="-4.4638732106250245e-06 -7.9726580892725e-09 3.923662283966678e-09 -7.9726580892725e-09 -4.460647232917836e-06 -8.73597993944486e-09 3.923662283966678e-09 -8.73597993944486e-09 -4.46193189418409e-06" pbc="T T T"
Ba       2.21736077       1.56791125       3.84058144       0.00000001       0.00000003       0.00000015
Ba       6.65208213       4.70373193      11.52174472       0.00000034       0.00000044      -0.00000001
Sb       0.00000031       0.00000023       0.00000048       0.00000052       0.00000100      -0.00000171
Te       2.40570280       1.70108894       7.68116336      -0.00276682      -0.00195678      -0.00000076
Te       6.46373955       4.57055408       7.68116292       0.00276825       0.00195700      -0.00000016
Te       5.44923107       1.70108858       5.92398115       0.00138244      -0.00195657      -0.00239567
Te       3.42021243       4.57055374       9.43834428      -0.00138505       0.00195779       0.00239728
Te       3.42021215       4.57055463       5.92398125      -0.00138357       0.00195469      -0.00239670
Te       5.44923018       1.70108947       9.43834424       0.00138392      -0.00195761       0.00239752
