9
Lattice="6.161052117562694 -3.947910374330494e-08 3.5570851269174946 2.0536840989604466 5.808695663066704 3.557084958918737 -7.795323534441106e-10 -2.063067882563534e-07 7.114170255185206" Properties=species:S:1:pos:R:3:forces:R:3 energy=-37.64335632324219 free_energy=-37.64335632324219 stress="0.0002901550324168056 8.873953127874756e-09 -3.777427259876731e-10 8.873953127874756e-09 0.0002901575353462249 4.704980849368212e-09 -3.777427259876731e-10 4.704980849368212e-09 0.00029013946186751127" pbc="T T T"
Ba       2.05368387       1.45217400       3.55708506       0.00000067       0.00000004      -0.00000019
Ba       6.16105220       4.35652157      10.67125529      -0.00000015       0.00000007      -0.00000020
Sb      -0.00000011       0.00000050      -0.00000098       0.00000087      -0.00000421       0.00001215
Se       2.18103735       1.54222639       7.11416996      -0.00616400      -0.00435843       0.00000042
Se       6.03369860       4.26646895       7.11416988       0.00616522       0.00435989       0.00000052
Se       5.07053343       1.54222671       5.44591890       0.00308321      -0.00436080      -0.00534014
Se       3.14420229       4.26646977       8.78242188      -0.00307997       0.00435518       0.00533494
Se       3.14420322       4.26646840       5.44591918      -0.00308444       0.00436254      -0.00534102
Se       5.07053404       1.54222541       8.78242221       0.00307865      -0.00435434       0.00533366
