9
Lattice="6.659107390143953 5.319286186176683e-07 3.844637752124687 2.2197029175891005 6.278267348862273 3.8446378340497698 1.1388519174033411e-07 1.8086629426786258e-07 7.689275306994463" Properties=species:S:1:pos:R:3:forces:R:3 energy=-31.62234115600586 free_energy=-31.62234115600586 stress="-8.92601310624741e-05 1.7641960781134003e-08 -1.875567789966226e-08 1.7641960781134003e-08 -8.928714669309556e-05 2.33815224959244e-08 -1.875567789966226e-08 2.33815224959244e-08 -8.927113958634436e-05" pbc="T T T"
Ba       2.21970311       1.56956743       3.84463729      -0.00000005      -0.00000036       0.00000009
Ba       6.65910732       4.70870122      11.53391347      -0.00000037       0.00000006      -0.00000008
Tl       0.00000008       0.00000130       0.00000238      -0.00000155      -0.00000521      -0.00000873
Te       2.48681088       1.75844090       7.68927549      -0.00109628      -0.00077471       0.00000060
Te       6.39199804       4.51982580       7.68927533       0.00110216       0.00077924      -0.00000077
Te       5.41570328       1.75843964       5.99827720       0.00054574      -0.00077362      -0.00094491
Te       3.46310879       4.51982670       9.38027149      -0.00054985       0.00077796       0.00095278
Te       3.46310795       4.51982825       5.99827835      -0.00054870       0.00077310      -0.00094812
Te       5.41570250       1.75844095       9.38027262       0.00054896      -0.00077643       0.00094917
