9
Lattice="6.148603998218602 1.6256401093470325e-07 3.5498981201749666 2.0495347667753294 5.796959608084894 3.5498982112190522 9.15654681285072e-08 1.7625237677095006e-07 7.099796081753835" Properties=species:S:1:pos:R:3:forces:R:3 energy=-34.42716979980469 free_energy=-34.42716979980469 stress="-1.915547181852162e-05 3.271778226121569e-08 -6.489385029340156e-09 3.271778226121569e-08 -1.91095496120397e-05 1.2888857980897228e-08 -6.489385029340156e-09 1.2888857980897228e-08 -1.9153576431563124e-05" pbc="T T T"
Ba       2.04953483       1.44923996       3.54989821       0.00000016       0.00000059      -0.00000009
Ba       6.14860408       4.34772002      10.64969407      -0.00000047       0.00000069      -0.00000073
Tl       0.00000009       0.00000004      -0.00000012       0.00000004      -0.00000113       0.00000341
Se       2.25954356       1.59773859       7.09979560       0.00034410       0.00024365       0.00000139
Se       5.93859485       4.19922139       7.09979626      -0.00034362      -0.00024423       0.00000061
Se       5.01883202       1.59773961       5.50672011      -0.00017150       0.00024214       0.00029880
Se       3.17930637       4.19922139       8.69287230       0.00017311      -0.00024544      -0.00029945
Se       3.17930698       4.19922003       5.50672063       0.00017104      -0.00024197       0.00029629
Se       5.01883265       1.59773872       8.69287255      -0.00017296       0.00024574      -0.00030026
