9
Lattice="5.862587978516485 -2.5958138831606744e-07 3.384766926127989 1.954195913980768 5.527300485107923 3.3847666388195554 1.6859885207343718e-07 -2.3266222828376263e-07 6.769533560234233" Properties=species:S:1:pos:R:3:forces:R:3 energy=-51.7089958190918 free_energy=-51.7089958190918 stress="-2.2173191609908827e-05 8.46970937828928e-09 2.3900691203948554e-08 8.46970937828928e-09 -2.2155682017910294e-05 -1.9132077255790136e-08 2.3900691203948554e-08 -1.9132077255790136e-08 -2.215478161815554e-05" pbc="T T T"
Ba       1.95419593       1.38182505       3.38476674      -0.00000078      -0.00000107       0.00000023
Ba       5.86258803       4.14547499      10.15430036       0.00000048      -0.00000003      -0.00000061
Ta       0.00000024      -0.00000078       0.00000035      -0.00000154       0.00000819      -0.00000193
S        1.97633746       1.39748084       6.76953341      -0.00040632      -0.00028667       0.00000072
S        5.84044737       4.12981907       6.76953344       0.00040388       0.00028428      -0.00000004
S        4.87441939       1.39748090       5.09632514       0.00020349      -0.00028625      -0.00035211
S        2.94236423       4.12981943       8.44274270      -0.00020239       0.00028580       0.00034985
S        2.94236436       4.12981904       5.09632476      -0.00020170       0.00028610      -0.00035015
S        4.87441933       1.39748131       8.44274190       0.00020498      -0.00029045       0.00035390
