9
Lattice="5.232879753122409 -1.3657294124173956e-07 3.0212043970146403 1.744293060366325 4.933606498539582 3.02120450424985 -1.6439931621640477e-07 1.5087873995804588e-08 6.042409078777211" Properties=species:S:1:pos:R:3:forces:R:3 energy=-64.67791748046875 free_energy=-64.67791748046875 stress="0.0002000727690756321 -1.5279891840691562e-07 -2.5780797940910816e-08 -1.5279891840691562e-07 0.00020023612887598574 7.427608750276704e-08 -2.5780797940910816e-08 7.427608750276704e-08 0.00020027543359901756" pbc="T T T"
Ba       1.74429333       1.23340147       3.02120475       0.00000152      -0.00000069      -0.00000055
Ba       5.23287973       3.70020494       9.06361365      -0.00000218       0.00000108      -0.00000108
Ta       0.00000031      -0.00000018      -0.00000014      -0.00000230       0.00000458      -0.00000355
O        1.61245810       1.14017968       6.04240907      -0.00274485      -0.00193954      -0.00000082
O        5.36471441       3.79342642       6.04240886       0.00274527       0.00194132      -0.00000044
O        4.42665004       1.14018011       4.41763455       0.00137749      -0.00194824      -0.00238830
O        2.55052257       3.79342608       7.66718334      -0.00137946       0.00195009       0.00238699
O        2.55052227       3.79342660       4.41763404      -0.00137323       0.00194126      -0.00237817
O        4.42665000       1.14018035       7.66718331       0.00137821      -0.00194949       0.00238627
