9
Lattice="5.925923553474925 -1.510423474492618e-07 3.4213335641873 1.975307739324428 5.587014052096294 3.4213335112382186 2.5563045775244443e-08 -4.67733463119708e-08 6.842667084098165" Properties=species:S:1:pos:R:3:forces:R:3 energy=-36.242469787597656 free_energy=-36.242469787597656 stress="7.03337209415622e-05 -2.4629125405795094e-08 9.497860276042047e-09 -2.4629125405795094e-08 7.032530993456021e-05 -1.8918022703928727e-08 9.497860276042047e-09 -1.8918022703928727e-08 7.034379086690024e-05" pbc="T T T"
Ba       1.97530786       1.39675341       3.42133353       0.00000046       0.00000050      -0.00000056
Ba       5.92592333       4.19026032      10.26400054       0.00000007       0.00000053      -0.00000085
Tl       0.00000064      -0.00000060       0.00000058      -0.00000860       0.00000592      -0.00001238
S        2.12739064       1.50429181       6.84266730      -0.00346148      -0.00244775       0.00000043
S        5.77383990       4.08272109       6.84266743       0.00346410       0.00245205      -0.00000026
S        4.86222875       1.50429246       5.26370829       0.00173125      -0.00244862      -0.00300023
S        3.03900335       4.08272151       8.42162609      -0.00173271       0.00245023       0.00300103
S        3.03900277       4.08272224       5.26370729      -0.00172874       0.00244215      -0.00299409
S        4.86222805       1.50429324       8.42162543       0.00173518      -0.00245515       0.00300682
