9
Lattice="6.071537829424017 8.408483919057783e-08 3.5054038830555716 2.0238459564849363 5.724300640163965 3.5054039972536897 -5.940680832042437e-09 1.3566302354424963e-07 7.010807776400666" Properties=species:S:1:pos:R:3:forces:R:3 energy=-47.64338684082031 free_energy=-47.64338684082031 stress="-5.650300590787083e-05 2.282313005252945e-08 3.954205407552536e-09 2.282313005252945e-08 -5.652213440043852e-05 -9.499887987374223e-09 3.954205407552536e-09 -9.499887987374223e-09 -5.652364052366465e-05" pbc="T T T"
Ba       2.02384596       1.43107522       3.50540394       0.00000026       0.00000027      -0.00000049
Ba       6.07153790       4.29322573      10.51621187      -0.00000039       0.00000029       0.00000054
Ta       0.00000062       0.00000037      -0.00000019      -0.00000588      -0.00000441      -0.00000125
Se       2.10018956       1.48505880       7.01080750      -0.00151385      -0.00107134       0.00000042
Se       5.99519320       4.23924152       7.01080770       0.00152110       0.00107577       0.00000019
Se       5.02144324       1.48505831       5.32422145       0.00075709      -0.00107173      -0.00131178
Se       3.07394096       4.23924266       8.69739455      -0.00075817       0.00107185       0.00131236
Se       3.07394082       4.23924230       5.32422165      -0.00075795       0.00107222      -0.00131291
Se       5.02144283       1.48505863       8.69739429       0.00075766      -0.00107309       0.00131302
