9
Lattice="6.5378587588297705 -1.558241851046056e-07 3.774634510546374 2.1792861265575643 6.163952239106176 3.774634474992919 -4.4641546546254755e-08 -7.511023075676313e-08 7.549269098414252" Properties=species:S:1:pos:R:3:forces:R:3 energy=-43.233638763427734 free_energy=-43.233638763427734 stress="-6.711618334520608e-05 4.016412802343439e-08 1.1446545933324614e-09 4.016412802343439e-08 -6.712777394568548e-05 -1.7391506901276443e-08 1.1446545933324614e-09 -1.7391506901276443e-08 -6.716311327181756e-05" pbc="T T T"
Ba       2.17928635       1.54098805       3.77463437       0.00000021      -0.00000019      -0.00000011
Ba       6.53785866       4.62296365      11.32390353      -0.00000004       0.00000079       0.00000056
Ta       0.00000005       0.00000001       0.00000006      -0.00000128       0.00000061      -0.00000019
Te       2.27621600       1.60952825       7.54926894       0.00040324       0.00028391      -0.00000012
Te       6.44092879       4.55442371       7.54926897      -0.00040306      -0.00028440       0.00000060
Te       5.39975089       1.60952739       5.74589558      -0.00020349       0.00028765       0.00035214
Te       3.31739368       4.55442478       9.35264275       0.00020433      -0.00028819      -0.00035231
Te       3.31739393       4.55442471       5.74589527       0.00020447      -0.00028712       0.00035150
Te       5.39975096       1.60952751       9.35264287      -0.00020448       0.00028689      -0.00035210
