9
Lattice="5.186667307393855 3.8292023689658163e-08 2.9945238066392705 1.7288891463811114 4.89003688519825 2.9945237931042987 7.619310102497095e-08 3.7299767618733644e-08 5.989047481308226" Properties=species:S:1:pos:R:3:forces:R:3 energy=-43.72525405883789 free_energy=-43.72525405883789 stress="0.00042218982707709074 -2.3366871104713027e-08 -3.850773477864777e-09 -2.3366871104713027e-08 0.00042221532203257084 3.759411626447218e-08 -3.850773477864777e-09 3.759411626447218e-08 0.00042223342461511493" pbc="T T T"
Ba       1.72888912       1.22250914       2.99452389       0.00000040      -0.00000016      -0.00000062
Ba       5.18666748       3.66752779       8.98357119      -0.00000008       0.00000049       0.00000053
Tl       0.00000006      -0.00000004      -0.00000011      -0.00000027      -0.00000029      -0.00000052
O        1.79108059       1.26648528       5.98904748       0.00725877       0.00513154      -0.00000006
O        5.12447593       3.62355179       5.98904759      -0.00725847      -0.00513238       0.00000022
O        4.29112707       1.26648519       4.54564508      -0.00362906       0.00513244       0.00628585
O        2.62442943       3.62355171       7.43245002       0.00362915      -0.00513160      -0.00628513
O        2.62442941       3.62355168       4.54564519       0.00362933      -0.00513214       0.00628513
O        4.29112705       1.26648529       7.43245006      -0.00362948       0.00513232      -0.00628585
