9
Lattice="5.4397875137850455 3.1167231403680783e-07 3.140662944720677 1.8132628362295211 5.128681876412632 3.140662879271625 -3.2835993831472235e-08 -1.0337695209626922e-07 6.281325946314946" Properties=species:S:1:pos:R:3:forces:R:3 energy=-29.140033721923828 free_energy=-29.140033721923828 stress="3.47268178302329e-05 7.891840070328726e-09 2.587127312381199e-08 7.891840070328726e-09 3.4586675610626116e-05 -6.852856415662245e-08 2.587127312381199e-08 -6.852856415662245e-08 3.4613309253472835e-05" pbc="T T T"
Be       1.81326191       1.28216964       3.14066288      -0.00000190      -0.00000316      -0.00000067
Be       5.43978718       3.84651099       9.42198843      -0.00000230      -0.00000321      -0.00000184
B       -0.00000016       0.00000010      -0.00000008       0.00000021      -0.00000029       0.00000014
Se       1.71619666       1.21353478       6.28132589       0.00226031       0.00159985       0.00000058
Se       5.53685358       3.91514770       6.28132607      -0.00226034      -0.00159743       0.00000069
Se       4.58169014       1.21353491       4.62693274      -0.00112966       0.00160296       0.00196259
Se       2.67136118       3.91514766       7.93571936       0.00113363      -0.00160166      -0.00196220
Se       2.67136118       3.91514732       4.62693301       0.00113003      -0.00159721       0.00195770
Se       4.58168953       1.21353524       7.93571884      -0.00113001       0.00160010      -0.00195687
