9
Lattice="5.945381363906439 -1.3464897999251248e-08 3.432567558844834 1.981793755208544 5.605359443110523 3.4325675935992463 -5.7386630956527187e-08 1.9867876108534157e-09 6.8651352170862" Properties=species:S:1:pos:R:3:forces:R:3 energy=-25.85797882080078 free_energy=-25.85797882080078 stress="0.00024259522615466267 -3.743900744979101e-09 -5.782320400271601e-09 -3.743900744979101e-09 0.00024259510973934084 8.077606139522686e-09 -5.782320400271601e-09 8.077606139522686e-09 0.0002425957500236109" pbc="T T T"
Be       1.98179372       1.40133966       3.43256758      -0.00000054      -0.00000055      -0.00000033
Be       5.94538140       4.20401946      10.29770285       0.00000017      -0.00000037       0.00000012
B        0.00000013      -0.00000008       0.00000006       0.00000055       0.00000055       0.00000097
Te       1.87563607       1.32627526       6.86513518       0.00431037       0.00304680       0.00000016
Te       6.05153886       4.27908414       6.86513501      -0.00431041      -0.00304781       0.00000023
Te       5.00756320       1.32627544       5.05691631      -0.00215457       0.00304730       0.00373220
Te       2.91961166       4.27908444       8.67335382       0.00215522      -0.00304812      -0.00373214
Te       2.91961195       4.27908432       5.05691657       0.00215483      -0.00304590       0.00373220
Te       5.00756325       1.32627503       8.67335404      -0.00215562       0.00304808      -0.00373332
