9
Lattice="4.839436906168304 -5.458193442481765e-08 2.7940501274195495 1.6131455840834197 4.562664842267493 2.794050127152248 -4.3854625001800327e-10 -6.374743773788211e-10 5.588100255598683" Properties=species:S:1:pos:R:3:forces:R:3 energy=-31.558712005615234 free_energy=-31.558712005615234 stress="-0.0007033107103779912 -9.591679450693391e-09 1.0036098174737162e-08 -9.591679450693391e-09 -0.0007033100700937212 -1.8622131614520754e-09 1.0036098174737162e-08 -1.8622131614520754e-09 -0.0007033279398456216" pbc="T T T"
Be       1.61314558       1.14066633       2.79405020       0.00000061       0.00000326       0.00000079
Be       4.83943691       3.42199863       8.38215018       0.00000132       0.00000010       0.00000059
B        0.00000005       0.00000007       0.00000008      -0.00000060      -0.00000225      -0.00000055
S        1.56260114       1.10492581       5.58810027      -0.00273186      -0.00192848       0.00000079
S        4.88998139       3.45773886       5.58810026       0.00273302       0.00193131      -0.00000095
S        4.05813621       1.10492576       4.14730244       0.00136642      -0.00193274      -0.00236785
S        2.39444627       3.45773897       7.02889816      -0.00136793       0.00193113       0.00236511
S        2.39444610       3.45773889       4.14730236      -0.00136580       0.00192845      -0.00236309
S        4.05813630       1.10492581       7.02889807       0.00136447      -0.00193080       0.00236431
