9
Lattice="4.157772607200877 -1.1589848388427254e-09 2.4004909707778115 1.385924216000482 3.9199852215542053 2.400490945328955 -3.2170936351214238e-09 -3.3443178853627755e-08 4.800981947127801" Properties=species:S:1:pos:R:3:forces:R:3 energy=-40.15482711791992 free_energy=-40.15482711791992 stress="-0.0004837545857299119 1.2988937214686302e-07 -4.0708832216296287e-07 1.2988937214686302e-07 -0.00048368307761847973 -3.4627478839865944e-07 -4.0708832216296287e-07 -3.4627478839865944e-07 -0.0004838036256842315" pbc="T T T"
Be       1.38592331       0.97999779       2.40049177      -0.00001515       0.00001928       0.00000878
Be       4.15777201       2.93998962       7.20147098      -0.00001347       0.00001396      -0.00000870
N       -0.00000181       0.00000089       0.00000284      -0.00001930       0.00001924       0.00003289
O        1.26436657       0.89404089       4.80098172       0.00373840       0.00262582      -0.00000261
O        4.27933127       3.02594385       4.80098232      -0.00372028      -0.00263262      -0.00000374
O        3.52559103       0.89404064       3.49546344      -0.00184280       0.00262380       0.00321841
O        2.01810735       3.02594274       6.10649908       0.00186348      -0.00265658      -0.00324297
O        2.01810727       3.02594269       3.49546318       0.00186980      -0.00264668       0.00322437
O        3.52559021       0.89404168       6.10650003      -0.00186127       0.00263309      -0.00322497
