9
Lattice="5.323294342111512 -9.797171002035961e-09 3.073405357548628 1.7744314441412494 5.018849785809791 3.0734053471431277 4.7334879044490595e-08 2.0726726115536137e-08 6.146810633110797" Properties=species:S:1:pos:R:3:forces:R:3 energy=-29.20908546447754 free_energy=-29.20908546447754 stress="9.19513786357129e-06 1.1390600462846123e-08 1.2800091653275558e-08 1.1390600462846123e-08 9.219820640282705e-06 -1.8116711686388953e-08 1.2800091653275558e-08 -1.8116711686388953e-08 9.24436972127296e-06" pbc="T T T"
Be       1.77443162       1.25471220       3.07340531       0.00000050      -0.00000093      -0.00000010
Be       5.32329437       3.76413749       9.22021625      -0.00000002       0.00000030      -0.00000046
P       -0.00000014       0.00000002       0.00000008       0.00000118      -0.00000096       0.00000033
Se       2.02776719       1.43384787       6.14681058      -0.00017673      -0.00012450       0.00000002
Se       5.06995880       3.58500207       6.14681062       0.00017267       0.00012428       0.00000153
Se       4.30941061       1.43384799       4.82950310       0.00008795      -0.00012456      -0.00015253
Se       2.78831507       3.58500182       7.46411825      -0.00008674       0.00012480       0.00014842
Se       2.78831509       3.58500185       4.82950323      -0.00008781       0.00012527      -0.00014853
Se       4.30941073       1.43384789       7.46411799       0.00008890      -0.00012359       0.00015141
