9
Lattice="3.8407545069406934 -2.5532191525614177e-08 2.2174606661300844 1.2802514882362452 3.621098069273521 2.2174606488188178 2.0283820279155047e-08 -6.859060625077089e-09 4.434921297127558" Properties=species:S:1:pos:R:3:forces:R:3 energy=-56.780540466308594 free_energy=-56.780540466308594 stress="-1.6573727407376282e-05 -4.985606665286468e-07 2.452431715482817e-07 -4.985606665286468e-07 -1.7085219951695763e-05 -7.47038875203998e-09 2.452431715482817e-07 -7.47038875203998e-09 -1.642691313463729e-05" pbc="T T T"
Be       1.28025187       0.90527423       2.21745879      -0.00008606       0.00007970       0.00041868
Be       3.84075488       2.71582305       6.65238024      -0.00009798       0.00010382       0.00040879
P       -0.00000708       0.00000709       0.00003201       0.00162159      -0.00161644      -0.00729265
O        1.36609467       0.96597516       4.43492195      -0.00029445      -0.00029320      -0.00017353
O        3.75491252       2.65512408       4.43492205       0.00003040      -0.00002402      -0.00019360
O        3.15771347       0.96596590       3.40052302      -0.00130388       0.00185287       0.00213522
O        1.96330455       2.65511491       5.46929977      -0.00146362       0.00211036       0.00243783
O        1.96329506       2.65512830       3.40052803       0.00071952      -0.00097173       0.00097221
O        3.15770418       0.96597933       5.46930478       0.00087601      -0.00124103       0.00128722
