9
Lattice="5.362348064268662 -1.229109989765415e-07 3.0959533214917334 1.7874492700480225 5.055670401024594 3.0959532674978085 -2.9699677078131878e-08 -8.71296502009204e-08 6.1919066944247945" Properties=species:S:1:pos:R:3:forces:R:3 energy=-31.001834869384766 free_energy=-31.001834869384766 stress="-1.4678681509394664e-05 3.203466647505593e-08 6.949479569584582e-08 3.203466647505593e-08 -1.4798880329180975e-05 -8.85596804778288e-08 6.949479569584582e-08 -8.85596804778288e-08 -1.484843323851237e-05" pbc="T T T"
Be       1.78744740       1.26391561       3.09595309      -0.00000732      -0.00000821      -0.00000158
Be       5.36234608       3.79175253       9.28785923      -0.00001000      -0.00000196      -0.00000297
P        0.00000029       0.00000048      -0.00000021      -0.00000135      -0.00000233       0.00000688
S        1.74538518       1.23417320       6.19190637       0.00029171       0.00020283      -0.00000232
S        5.40441287       3.82149673       6.19190565      -0.00028360      -0.00020063      -0.00000180
S        4.48965613       1.23417329       4.60750121      -0.00014424       0.00020385       0.00025523
S        2.66014264       3.82149735       7.77631337       0.00015420      -0.00020754      -0.00025421
S        2.66014252       3.82149783       4.60750164       0.00014454      -0.00019425       0.00025016
S        4.48965599       1.23417387       7.77631294      -0.00014406       0.00020832      -0.00024855
