9
Lattice="6.266159634100289 -2.658253683457789e-07 3.6177692761803937 2.0887196066658906 5.907792013827445 3.617769312111748 8.112837720032567e-09 4.9743439243067144e-08 7.23553853830902" Properties=species:S:1:pos:R:3:forces:R:3 energy=-27.611543655395508 free_energy=-27.611543655395508 stress="1.993924524867907e-05 -1.8442301907839465e-08 1.8700245796310355e-09 -1.8442301907839465e-08 1.9945986423408613e-05 -1.6410163894420293e-08 1.8700245796310355e-09 -1.6410163894420293e-08 1.9952000002376735e-05" pbc="T T T"
Bi       2.08871954       1.47694670       3.61776882      -0.00000124      -0.00000357      -0.00000166
Bi       6.26615883       4.43084312      10.85330751      -0.00000167      -0.00000207      -0.00000099
Ag      -0.00000030       0.00000024      -0.00000019       0.00000386      -0.00000110       0.00000225
Te       2.26657952       1.60271366       7.23553856       0.00092210       0.00065150       0.00000080
Te       6.08829956       4.30507838       7.23553852      -0.00092287      -0.00065073      -0.00000023
Te       5.13287023       1.60271406       5.58068509      -0.00045943       0.00065160       0.00079767
Te       3.22200991       4.30507834       8.89039206       0.00046092      -0.00065043      -0.00079719
Te       3.22200971       4.30507824       5.58068558       0.00045893      -0.00064804       0.00079625
Te       5.13286998       1.60271448       8.89039258      -0.00046054       0.00065287      -0.00079686
