9
Lattice="5.5915995560860665 -1.7769304936879965e-07 3.2283109090861712 1.8638662971351432 5.271809186340174 3.2283110026681507 8.821992406795948e-09 1.2085216071352425e-07 6.456621802892203" Properties=species:S:1:pos:R:3:forces:R:3 energy=-35.86770248413086 free_energy=-35.86770248413086 stress="-0.0001363563642371446 5.4562278251069074e-08 3.7635849992057047e-08 5.4562278251069074e-08 -0.00013648695312440395 1.7710135580273345e-08 3.7635849992057047e-08 1.7710135580273345e-08 -0.00013648427557200193" pbc="T T T"
Bi       1.86386610       1.31795137       3.22831067      -0.00000169      -0.00000580      -0.00000405
Bi       5.59159936       3.95385727       9.68493540      -0.00000007       0.00000109       0.00001854
As       0.00000051       0.00000138       0.00000109      -0.00000901      -0.00002105      -0.00001550
S        1.90558962       1.34745551       6.45662144       0.00561261       0.00396961      -0.00000114
S        5.54987548       3.92435292       6.45662045      -0.00559109      -0.00395605      -0.00001026
S        4.63880494       1.34745439       4.87859938      -0.00280815       0.00397420       0.00486478
S        2.81666133       3.92435388       8.03464312       0.00279522      -0.00395712      -0.00484988
S        2.81666199       3.92435497       4.87859962       0.00280944      -0.00396478       0.00485706
S        4.63880404       1.34745469       8.03464366      -0.00280735       0.00395995      -0.00485989
