9
Lattice="4.665099454715582 -2.6931304763685887e-08 2.693396274816065 1.555033083857951 4.3982979139088485 2.6933963481213743 -9.068525950098789e-08 2.565611926476775e-08 5.3867927067035914" Properties=species:S:1:pos:R:3:forces:R:3 energy=-50.579288482666016 free_energy=-50.579288482666016 stress="-7.432189886458218e-05 1.7830420473430308e-09 8.708067156248944e-09 1.7830420473430308e-09 -7.440456101903692e-05 1.1633165541979906e-08 8.708067156248944e-09 1.1633165541979906e-08 -7.450253906426951e-05" pbc="T T T"
Bi       1.55503338       1.09957503       2.69339610       0.00000050       0.00000153      -0.00000017
Bi       4.66509924       3.29872300       8.08018914       0.00000013      -0.00000061      -0.00000042
As       0.00000002      -0.00000010       0.00000017      -0.00000039       0.00000119      -0.00000210
O        1.50615068       1.06500998       5.38679248      -0.00061703      -0.00043809      -0.00000071
O        4.71398173       3.33328827       5.38679288       0.00061846       0.00043452       0.00000068
O        3.91202402       1.06500982       3.99776151       0.00030839      -0.00043786      -0.00053298
O        2.30810850       3.33328822       6.77582354      -0.00030971       0.00043714       0.00053728
O        2.30810854       3.33328784       3.99776138      -0.00030893       0.00043631      -0.00053656
O        3.91202379       1.06500974       6.77582413       0.00030869      -0.00043452       0.00053453
