9
Lattice="4.74235295443317 -6.08014433827817e-08 2.7379991366465406 1.5807842459194104 4.47113317572843 2.7379991624555573 -8.602358703171935e-08 -2.9218439934298968e-08 5.475998422290294" Properties=species:S:1:pos:R:3:forces:R:3 energy=-47.36674499511719 free_energy=-47.36674499511719 stress="9.250346920453012e-05 6.7587282437386875e-09 -2.5467350894814444e-08 6.7587282437386875e-09 9.247907291864976e-05 3.74193547258983e-08 -2.5467350894814444e-08 3.74193547258983e-08 9.259131911676377e-05" pbc="T T T"
Bi       1.58078442       1.11778339       2.73799941      -0.00000192      -0.00000108       0.00000012
Bi       4.74235271       3.35334959       8.21399779       0.00000061       0.00000100       0.00000085
As      -0.00000021      -0.00000010      -0.00000003       0.00000065      -0.00000023      -0.00000037
N        1.55861845       1.10210964       5.47599827       0.00198209       0.00140095       0.00000024
N        4.76451884       3.36902343       5.47599818      -0.00198090      -0.00140107       0.00000007
N        3.96304363       1.10210997       4.08780248      -0.00098997       0.00140107       0.00171435
N        2.36009317       3.36902353       6.86419415       0.00098991      -0.00140011      -0.00171483
N        2.36009367       3.36902344       4.08780237       0.00099158      -0.00140142       0.00171602
N        3.96304386       1.10210947       6.86419447      -0.00099230       0.00140131      -0.00171673
