9
Lattice="5.8307814177223 -1.2894642087705742e-09 3.3664033000236993 1.94359393532505 5.497313777574241 3.3664030737600386 7.394000518003936e-08 -2.248317441539413e-07 6.732806471979444" Properties=species:S:1:pos:R:3:forces:R:3 energy=-30.796354293823242 free_energy=-30.796354293823242 stress="6.936646241229028e-05 1.8363188303283096e-08 -8.995486133756003e-09 1.8363188303283096e-08 6.937971920706332e-05 -1.3883449945240045e-08 -8.995486133756003e-09 -1.3883449945240045e-08 6.9343441282399e-05" pbc="T T T"
Bi       1.94359326       1.37432932       3.36640358      -0.00000132       0.00000401       0.00000147
Bi       5.83078125       4.12298495      10.09920948      -0.00000361       0.00000024      -0.00000079
Au      -0.00000002      -0.00000004      -0.00000010      -0.00000017      -0.00000075       0.00000046
Se       2.07927844       1.47027131       6.73280636      -0.00163804      -0.00115804      -0.00000023
Se       5.69509722       4.02704176       6.73280651       0.00163972       0.00115690      -0.00000086
Se       4.79114243       1.47027172       5.16711130       0.00082130      -0.00115873      -0.00141925
Se       2.98323340       4.02704166       8.29850181      -0.00081967       0.00115767       0.00142027
Se       2.98323302       4.02704154       5.16711053      -0.00081921       0.00115672      -0.00141968
Se       4.79114265       1.47027196       8.29850186       0.00082123      -0.00115809       0.00141877
