9
Lattice="5.793326782366088 -1.5692598341054648e-09 3.3447787999275183 1.9311089442683356 5.462000904598234 3.344778768243923 1.4277470703168258e-07 6.215273002025812e-08 6.689557352561945" Properties=species:S:1:pos:R:3:forces:R:3 energy=-32.90092468261719 free_energy=-32.90092468261719 stress="-1.583296398166567e-05 4.987370960662929e-09 -1.1093837848363819e-08 4.987370960662929e-09 -1.5845664165681228e-05 1.0142125361767285e-08 -1.1093837848363819e-08 1.0142125361767285e-08 -1.5849636838538572e-05" pbc="T T T"
Bi       1.93110775       1.36550122       3.34478005      -0.00000517       0.00000434       0.00000548
Bi       5.79332668       4.09649925      10.03433628      -0.00000150      -0.00000585      -0.00000030
As       0.00000007      -0.00000004      -0.00000031       0.00000020       0.00000120       0.00000249
Se       2.04428583       1.44552866       6.68955712      -0.00088803      -0.00062698      -0.00000155
Se       5.68015048       4.01647241       6.68955773       0.00088921       0.00062712      -0.00000043
Se       4.77118441       1.44552864       5.11518183       0.00044659      -0.00062785      -0.00077084
Se       2.95325204       4.01647273       8.26393271      -0.00044330       0.00062768       0.00076760
Se       2.95325156       4.01647247       5.11518153      -0.00044408       0.00062657      -0.00077026
Se       4.77118469       1.44552852       8.26393275       0.00044603      -0.00062622       0.00076795
