9
Lattice="6.142600634980252 3.606821726411012e-08 3.5464321919104633 2.0475334964456535 5.791299272896763 3.5464323348969833 -3.0189353599100994e-07 -3.83489946987012e-08 7.092864906715905" Properties=species:S:1:pos:R:3:forces:R:3 energy=-29.028900146484375 free_energy=-29.028900146484375 stress="-0.00015270590665750206 -7.829590309427203e-09 1.7810225516612377e-09 -7.829590309427203e-09 -0.0001527078275103122 4.757430449586764e-09 1.7810225516612377e-09 4.757430449586764e-09 -0.00015275570331141353" pbc="T T T"
Bi       2.04753292       1.44782476       3.54643244      -0.00000245      -0.00000155       0.00000082
Bi       6.14260112       4.34347482      10.63929703       0.00000401       0.00000183       0.00000094
Be       0.00000010       0.00000103       0.00000111       0.00000128      -0.00000890      -0.00000666
Te       1.99169991       1.40834559       7.09286482       0.00683616       0.00483551      -0.00000002
Te       6.19843281       4.38295396       7.09286468      -0.00683331      -0.00483175      -0.00000047
Te       5.14675054       1.40834436       5.27129582      -0.00341953       0.00483513       0.00592446
Te       3.04338380       4.38295404       8.91443253       0.00341467      -0.00482916      -0.00591590
Te       3.04338336       4.38295466       5.27129621       0.00341694      -0.00483330       0.00591950
Te       5.14675064       1.40834382       8.91443311      -0.00341780       0.00483215      -0.00592260
