9
Lattice="6.148660609856961 6.926631608521917e-08 3.5499309235080676 2.0495535738620134 5.797013083960064 3.549930972112691 -5.523105089536553e-08 2.047402395507318e-08 7.099861942679125" Properties=species:S:1:pos:R:3:forces:R:3 energy=-30.564899444580078 free_energy=-30.564899444580078 stress="-0.0001090588848455809 -1.1795531662528447e-08 2.246445518494511e-08 -1.1795531662528447e-08 -0.0001090594450943172 -2.3641909763227886e-08 2.246445518494511e-08 -2.3641909763227886e-08 -0.00010902885696850717" pbc="T T T"
Bi       2.04955236       1.44925365       3.54993147      -0.00000615       0.00000155       0.00000311
Bi       6.14866144       4.34775946      10.64979278       0.00000508      -0.00000293      -0.00000038
Ba      -0.00000118      -0.00000069      -0.00000092       0.00001187       0.00000626       0.00001084
S        2.39291190       1.69204465       7.09986228       0.00054990       0.00039236      -0.00000012
S        5.80530324       4.10496927       7.09986208      -0.00056327      -0.00039984       0.00000122
S        4.95220510       1.69204478       5.62225342      -0.00027362       0.00039383       0.00048160
S        3.24600892       4.10496953       8.57747069       0.00027870      -0.00039334      -0.00048502
S        3.24600894       4.10496815       5.62225368       0.00027245      -0.00039358       0.00047860
S        4.95220576       1.69204398       8.57746990      -0.00027502       0.00039580      -0.00048999
