9
Lattice="5.612194466670735 3.85921287275798e-08 3.24020204508765 1.8707314432741546 5.291228118449946 3.2402021871177036 -1.5772624231009397e-07 6.242131999305045e-08 6.480404363365134" Properties=species:S:1:pos:R:3:forces:R:3 energy=-34.65361785888672 free_energy=-34.65361785888672 stress="-0.0004430109402164817 -1.7278749098181834e-08 -2.692458700437328e-08 -1.7278749098181834e-08 -0.0004430030530784279 -2.139277377466442e-08 -2.692458700437328e-08 -2.139277377466442e-08 -0.00044303396134637296" pbc="T T T"
Bi       1.87073262       1.32280692       3.24020195       0.00000482      -0.00000095      -0.00000074
Bi       5.61219382       3.96842091       9.72060552      -0.00000137       0.00000069      -0.00000352
B        0.00000009       0.00000007       0.00000026       0.00000033       0.00000065       0.00000010
Se       1.79805410       1.27141632       6.48040406       0.00678624       0.00479800       0.00000139
Se       5.68487146       4.01981201       6.48040468      -0.00678888      -0.00480082       0.00000038
Se       4.71316673       1.27141633       4.79736277      -0.00339378       0.00480094       0.00587941
Se       2.76975856       4.01981175       8.16344591       0.00339321      -0.00479987      -0.00587697
Se       2.76975847       4.01981176       4.79736320       0.00339444      -0.00479871       0.00587762
Se       4.71316702       1.27141674       8.16344600      -0.00339504       0.00480008      -0.00587766
