9
Lattice="6.9310781061790285 -3.273492006629839e-08 4.001659701428049 2.3103594647512233 6.5346827274522115 4.001659481652109 1.2138421786190099e-07 -1.8333785252436002e-07 8.003319192612427" Properties=species:S:1:pos:R:3:forces:R:3 energy=-27.81549835205078 free_energy=-27.81549835205078 stress="1.893249645945616e-05 9.259646521764253e-11 1.2817566563683158e-08 9.259646521764253e-11 1.8949991499539465e-05 -1.0239963543767772e-08 1.2817566563683158e-08 -1.0239963543767772e-08 1.8950639059767127e-05" pbc="T T T"
Bi       2.31035969       1.63367098       4.00165922       0.00000021       0.00000026      -0.00000027
Bi       6.93107842       4.90101113      12.00498012       0.00000074      -0.00000209       0.00000305
Ba      -0.00000007      -0.00000026       0.00000035      -0.00000054      -0.00000070      -0.00000085
Te       2.75134788       1.94549698       8.00331893      -0.00019108      -0.00013385       0.00000043
Te       6.49008962       4.58918539       8.00331864       0.00019205       0.00013500      -0.00000028
Te       5.55540413       1.94549753       6.38439659       0.00009570      -0.00013378      -0.00016546
Te       3.68603333       4.58918549       9.62224141      -0.00009598       0.00013384       0.00016396
Te       3.68603406       4.58918523       6.38439687      -0.00009629       0.00013584      -0.00016624
Te       5.55540372       1.94549761       9.62224138       0.00009520      -0.00013451       0.00016563
