9
Lattice="5.416063011992874 2.2677491384125054e-07 3.126965665663388 1.8053545209680457 5.10631381224376 3.1269657179165686 1.1890257758341654e-07 1.4807360785609346e-07 6.2539311253815" Properties=species:S:1:pos:R:3:forces:R:3 energy=-37.635353088378906 free_energy=-37.635353088378906 stress="-1.709655589365866e-05 -2.6168617495159197e-08 -1.0371341563342185e-09 -2.6168617495159197e-08 -1.7125459635281004e-05 -7.658611522742831e-09 -1.0371341563342185e-09 -7.658611522742831e-09 -1.7150709027191624e-05" pbc="T T T"
Bi       1.80535526       1.27657651       3.12696565       0.00000522      -0.00000914      -0.00000037
Bi       5.41606253       3.82973489       9.38089604      -0.00000425      -0.00000493      -0.00000509
B       -0.00000007       0.00000048      -0.00000050       0.00000015       0.00000105      -0.00000196
S        1.67321136       1.18313972       6.25393138      -0.00029987      -0.00021109       0.00000065
S        5.54820576       3.92317547       6.25393143       0.00029892       0.00021416       0.00000247
S        4.57945715       1.18313973       4.57600927       0.00014918      -0.00021079      -0.00025609
S        2.64196032       3.92317523       7.93185331      -0.00014818       0.00021493       0.00026020
S        2.64196061       3.92317473       4.57600932      -0.00014947       0.00021321      -0.00025907
S        4.57945749       1.18313995       7.93185402       0.00014850      -0.00020766       0.00025880
