9
Lattice="4.546689661979471 6.000933341766576e-08 2.6250325947561604 1.5155632659671787 4.286660395526072 2.625032614276394 -5.406729523209572e-08 -1.4324052925908005e-08 5.250065283159659" Properties=species:S:1:pos:R:3:forces:R:3 energy=-47.23488235473633 free_energy=-47.23488235473633 stress="-0.00047379007446579635 -9.44915878875463e-09 3.338282184017771e-08 -9.44915878875463e-09 -0.0004739828873425722 2.8804793217318547e-08 3.338282184017771e-08 2.8804793217318547e-08 -0.0004740161239169538" pbc="T T T"
Bi       1.51556379       1.07166530       2.62503286      -0.00000060       0.00000072       0.00000041
Bi       4.54668924       3.21499553       7.87509881      -0.00000049       0.00000240       0.00000206
Be      -0.00000008       0.00000008      -0.00000010       0.00000002       0.00000084      -0.00000003
O        1.40895242       0.99627962       5.25006518       0.00522304       0.00369298       0.00000013
O        4.65330039       3.29038054       5.25006462      -0.00522268      -0.00369292      -0.00000149
O        3.84221317       0.99627976       3.84522087      -0.00261271       0.00369233       0.00452322
O        2.22003951       3.29038047       6.65490955       0.00261196      -0.00369382      -0.00452423
O        2.22003953       3.29038042       3.84522102       0.00261104      -0.00369382       0.00452280
O        3.84221343       0.99628008       6.65490928      -0.00261009       0.00369138      -0.00452304
