9
Lattice="5.361121982448165 -7.132945051377644e-08 3.0952451397789074 1.7870405091485317 5.054514671415489 3.095245285994283 2.7550917716257108e-08 1.9855794763714344e-07 6.190490231838266" Properties=species:S:1:pos:R:3:forces:R:3 energy=-35.442378997802734 free_energy=-35.442378997802734 stress="-3.715066850418225e-05 -4.947549481215674e-09 8.966093645312867e-09 -4.947549481215674e-09 -3.718111111083999e-05 -8.669916340409145e-09 8.966093645312867e-09 -8.669916340409145e-09 -3.71261230611708e-05" pbc="T T T"
Bi       1.78704062       1.26363024       3.09524521       0.00000102       0.00000286      -0.00000058
Bi       5.36112212       3.79088528       9.28573549      -0.00000013       0.00000004      -0.00000112
Be       0.00000007       0.00000018       0.00000007       0.00000013      -0.00000019       0.00000011
S        1.81995021       1.28689892       6.19049041      -0.00097676      -0.00069125      -0.00000003
S        5.32821230       3.76761558       6.19049023       0.00097875       0.00068969       0.00000072
S        4.45114686       1.28689914       4.67136835       0.00048820      -0.00069135      -0.00084566
S        2.69701569       3.76761561       7.70961222      -0.00048922       0.00069016       0.00084893
S        2.69701575       3.76761533       4.67136859      -0.00048994       0.00069082      -0.00084834
S        4.45114650       1.28689900       7.70961217       0.00048789      -0.00069068       0.00084586
