9
Lattice="6.391917755965435 1.1396935164053422e-07 3.690374730954844 2.130639454169978 6.02635711165893 3.6903745668774612 -3.3152828095781486e-07 -4.3537872368853466e-07 7.380750036133319" Properties=species:S:1:pos:R:3:forces:R:3 energy=-29.187252044677734 free_energy=-29.187252044677734 stress="-9.319597302237526e-05 -8.082734126446667e-08 1.2769318402661156e-07 -8.082734126446667e-08 -9.310874884249642e-05 7.000683410751662e-08 1.2769318402661156e-07 7.000683410751662e-08 -9.305137791670859e-05" pbc="T T T"
Bi       2.13063795       1.50658799       3.69037439      -0.00000323      -0.00000359      -0.00000091
Bi       6.39191684       4.51976679      11.07112535      -0.00000200      -0.00000425       0.00000378
Ba       0.00000103       0.00000040       0.00000132      -0.00000267      -0.00000180      -0.00000479
Se       2.57050038       1.81761718       7.38075138      -0.00201686      -0.00142906       0.00000772
Se       5.95205660       4.20873874       7.38074669       0.00201882       0.00142465      -0.00001126
Se       5.10666800       1.81762059       5.91649287       0.00101306      -0.00141631      -0.00174938
Se       3.41588848       4.20873780       8.84500362      -0.00101542       0.00142729       0.00174128
Se       3.41589112       4.20873903       5.91649562      -0.00100149       0.00142963      -0.00173862
Se       5.10666719       1.81761867       8.84500619       0.00100985      -0.00142648       0.00175223
