9
Lattice="6.201107759743555 5.113876284039325e-07 3.580210584087032 2.0670363267914134 5.846459206843176 3.580210714447958 -2.240678712550884e-08 1.4381492476415184e-07 7.160421206983723" Properties=species:S:1:pos:R:3:forces:R:3 energy=-30.390165328979492 free_energy=-30.390165328979492 stress="-2.4540446247556247e-05 -7.797773982076706e-09 -1.7682440400790256e-08 -7.797773982076706e-09 -2.4478209525113925e-05 -6.864937507344848e-09 -1.7682440400790256e-08 -6.864937507344848e-09 -2.4496061087120324e-05" pbc="T T T"
Bi       2.06703620       1.46161450       3.58020948       0.00000091      -0.00000129      -0.00000304
Bi       6.20110657       4.38484608      10.74063402      -0.00000550       0.00000436       0.00000589
B       -0.00000093       0.00000060      -0.00000050       0.00000342      -0.00000154       0.00000443
Te       1.92051412       1.35800670       7.16042131       0.00257252       0.00181480       0.00000132
Te       6.34763080       4.48845280       7.16042049      -0.00257322      -0.00181885      -0.00000180
Te       5.24085146       1.35800836       5.24342370      -0.00128379       0.00181757       0.00222668
Te       3.02729273       4.48845127       9.07741889       0.00128666      -0.00181971      -0.00222689
Te       3.02729413       4.48845177       5.24342359       0.00128734      -0.00181520       0.00222394
Te       5.24085112       1.35800728       9.07741910      -0.00128835       0.00181986      -0.00223055
