9
Lattice="5.537851826730572 1.9200369611564624e-07 3.197280513764123 1.8459507681701401 5.2211365473735585 3.1972805514584097 1.0270813965803435e-07 1.187915025840298e-07 6.394560849632513" Properties=species:S:1:pos:R:3:forces:R:3 energy=-30.683727264404297 free_energy=-30.683727264404297 stress="0.0004346003697719425 2.07022523568412e-08 -3.849649843346015e-08 2.07022523568412e-08 0.0004346407949924469 -1.8006945268211894e-08 -3.849649843346015e-08 -1.8006945268211894e-08 0.0004346237692516297" pbc="T T T"
Bi       1.84595407       1.30528446       3.19728013       0.00001228       0.00000161      -0.00000355
Bi       5.53785332       3.91585695       9.59184163       0.00001049       0.00002629       0.00000149
Cd      -0.00000021       0.00000000       0.00000014       0.00000534      -0.00000498      -0.00000046
S        2.02540722       1.43217772       6.39456120      -0.00733712      -0.00519952       0.00000117
S        5.35839490       3.78895818       6.39456072       0.00733480       0.00518954      -0.00000220
S        4.52514770       1.43217711       4.95133496       0.00366174      -0.00519535      -0.00634980
S        2.85865326       3.78895748       7.83778668      -0.00367497       0.00518987       0.00635827
S        2.85865325       3.78895793       4.95133492      -0.00367193       0.00518724      -0.00635722
S        4.52514721       1.43217760       7.83778731       0.00365964      -0.00519463       0.00635257
