9
Lattice="5.770414021105907 5.699743188905055e-09 3.3315499078529647 1.9234713614969987 5.440398560938667 3.331549880565204 -9.049880819719973e-08 -9.741285789303861e-08 6.66309997245436" Properties=species:S:1:pos:R:3:forces:R:3 energy=-28.36543846130371 free_energy=-28.36543846130371 stress="0.0002841262030415237 -2.0847663151357665e-08 2.4606965354223576e-09 -2.0847663151357665e-08 0.00028411223320290446 1.1590377546610853e-08 2.4606965354223576e-09 1.1590377546610853e-08 0.00028414424741640687" pbc="T T T"
Bi       1.92346898       1.36009887       3.33155049      -0.00001171      -0.00000399       0.00000323
Bi       5.77041333       4.08029877       9.99464950      -0.00000321      -0.00000007       0.00000097
Cd      -0.00000011       0.00000069      -0.00000012       0.00000000      -0.00000581      -0.00000095
Se       2.15175580       1.52152034       6.66309988       0.00240618       0.00169992      -0.00000084
Se       5.54212997       3.91887716       6.66309994      -0.00239845      -0.00169726      -0.00000133
Se       4.69453692       1.52152108       5.19502559      -0.00119903       0.00170010       0.00208114
Se       2.99934974       3.91887803       8.13117438       0.00120170      -0.00169414      -0.00208043
Se       2.99934958       3.91887780       5.19502507       0.00120177      -0.00169691       0.00207944
Se       4.69453696       1.52152116       8.13117435      -0.00119738       0.00169830      -0.00208107
