9
Lattice="6.389854207347918 7.181931461626632e-07 3.6891825342167657 2.129952060954034 6.024411390909657 3.689182566457623 -1.367980179087828e-07 -5.7244009841560736e-08 7.378365305374567" Properties=species:S:1:pos:R:3:forces:R:3 energy=-25.462615966796875 free_energy=-25.462615966796875 stress="0.00012452612281776965 3.831766193229669e-08 3.207710008723552e-08 3.831766193229669e-08 0.0001245657040271908 -5.5327880055244805e-09 3.207710008723552e-08 -5.5327880055244805e-09 0.00012462407175917178" pbc="T T T"
Bi       2.12995186       1.50610206       3.68918073      -0.00000276      -0.00000374      -0.00000665
Bi       6.38985509       4.51831067      11.06755166       0.00000511       0.00000549       0.00001469
Cd       0.00000015       0.00000086       0.00000240      -0.00000116      -0.00000667      -0.00001881
Te       2.35290990       1.66376014       7.37836554      -0.00297473      -0.00210172       0.00000080
Te       6.16689530       4.36065153       7.37836218       0.00298038       0.00210412      -0.00001049
Te       5.21340063       1.66375721       5.72686312       0.00148437      -0.00209939      -0.00256552
Te       3.30640669       4.36065283       9.02986599      -0.00149275       0.00210866       0.00258000
Te       3.30640730       4.36065418       5.72686347      -0.00148245       0.00210324      -0.00257164
Te       5.21339781       1.66375863       9.02986671       0.00148389      -0.00210994       0.00257763
