9
Lattice="4.668571434270535 -9.38011302356427e-08 2.695400832293833 1.5561904185029036 4.401571044648471 2.6954007823254456 4.665666955304102e-08 -2.8207307964863344e-08 5.390801583775964" Properties=species:S:1:pos:R:3:forces:R:3 energy=-52.621726989746094 free_energy=-52.621726989746094 stress="-0.00014419907529372722 2.1912708092486355e-08 -2.133158316652839e-09 2.1912708092486355e-08 -0.00014418913633562624 -3.326204023323953e-08 -2.133158316652839e-09 -3.326204023323953e-08 -0.00014442260726355016" pbc="T T T"
Bi       1.55619049       1.10039269       2.69540044      -0.00000111       0.00000079      -0.00000299
Bi       4.66857094       3.30117768       8.08620191      -0.00000300      -0.00000323      -0.00000343
Cr      -0.00000020      -0.00000004      -0.00000003      -0.00000099      -0.00000103      -0.00000016
O        1.49507526       1.05717790       5.39080163       0.00018907       0.00013378       0.00000191
O        4.72968653       3.34439308       5.39080196      -0.00018674      -0.00013226       0.00000089
O        3.92103400       1.05717792       3.99017375      -0.00009376       0.00013420       0.00016308
O        2.30372842       3.34439323       6.79142989       0.00009528      -0.00013450      -0.00016236
O        2.30372817       3.34439348       3.99017379       0.00009593      -0.00013140       0.00016591
O        3.92103398       1.05717785       6.79142968      -0.00009474       0.00013384      -0.00016242
