9
Lattice="4.515585761221947 -1.3742138878342374e-07 2.6070745991997746 1.505195113698872 4.257335466873469 2.6070746173510244 7.163118328924591e-08 7.288160360905022e-08 5.214149074330715" Properties=species:S:1:pos:R:3:forces:R:3 energy=-50.18894577026367 free_energy=-50.18894577026367 stress="0.0002479315153323114 2.444561886250085e-08 2.763477091605182e-08 2.444561886250085e-08 0.0002478622191119939 5.540077552268485e-08 2.763477091605182e-08 5.540077552268485e-08 0.00024774513440206647" pbc="T T T"
Bi       1.50519506       1.06433398       2.60707527      -0.00000353      -0.00000952       0.00001600
Bi       4.51558556       3.19300134       7.82122437      -0.00000377      -0.00000743       0.00001546
C       -0.00000556      -0.00000904       0.00002022      -0.00009305      -0.00015858       0.00033898
N        1.37008559       0.96879568       5.21415149      -0.00314355      -0.00222456       0.00001441
N        4.65070809       3.28854699       5.21415109       0.00331426       0.00234318       0.00001699
N        3.83054895       0.96878582       3.79359408       0.00166374      -0.00236374      -0.00287467
N        2.19023829       3.28853558       6.63469513      -0.00156558       0.00220597       0.00271696
N        2.19022813       3.28855028       3.79358993      -0.00170118       0.00239164      -0.00291872
N        3.83053923       0.96880049       6.63469128       0.00153190      -0.00217718       0.00267428
