9
Lattice="4.338646993947294 2.7704317606106594e-08 2.504918711880093 1.4462157424962574 4.090515312588827 2.504918622285814 1.6105750867977634e-07 4.1547120782680056e-09 5.009837144800404" Properties=species:S:1:pos:R:3:forces:R:3 energy=-49.94129180908203 free_energy=-49.94129180908203 stress="-0.00031767861219123006 4.314597745747051e-08 1.6601518382231006e-08 4.314597745747051e-08 -0.00031762878643348813 1.5415939458307548e-07 1.6601518382231006e-08 1.5415939458307548e-07 -0.0003177408070769161" pbc="T T T"
Bi       1.44621564       1.02262874       2.50491870       0.00000328       0.00000073       0.00000517
Bi       4.33864728       3.06788664       7.51475611       0.00000139      -0.00000029       0.00000358
C       -0.00000311       0.00000099      -0.00001106      -0.00007655       0.00001350      -0.00025125
O        1.32930251       0.93995802       5.00983745       0.00577879       0.00409138       0.00000032
O        4.45556216       3.15055832       5.00983739      -0.00573933      -0.00406581       0.00000420
O        3.67399531       0.93995932       3.65612919      -0.00290328       0.00411248       0.00503635
O        2.11086535       3.15055907       6.36354943       0.00285602      -0.00403923      -0.00494456
O        2.11086809       3.15055525       3.65613004       0.00291908      -0.00413507       0.00506282
O        3.67399830       0.93995512       6.36355065      -0.00283778       0.00402254      -0.00492013
