9
Lattice="5.696117942000291 -4.877913819754286e-08 3.2886551746277948 1.8987059862508915 5.370351377549435 3.2886550852997765 4.421718823407928e-08 -7.813775912201479e-08 6.577310272669147" Properties=species:S:1:pos:R:3:forces:R:3 energy=-32.286067962646484 free_energy=-32.286067962646484 stress="-6.262972601689398e-05 3.3298046986374175e-08 -2.9380165855741325e-08 3.3298046986374175e-08 -6.259918882278726e-05 1.7082468772855464e-08 -2.9380165855741325e-08 1.7082468772855464e-08 -6.269643199630082e-05" pbc="T T T"
Bi       1.89870598       1.34258799       3.28865499      -0.00000056       0.00000251       0.00000056
Bi       5.69611784       4.02776213       9.86596554      -0.00000069      -0.00000686       0.00000090
Cu      -0.00000006       0.00000002      -0.00000014       0.00000038      -0.00000001       0.00000153
Se       1.99759796       1.41251550       6.57731032       0.00380239       0.00269113       0.00000022
Se       5.59722578       3.95783576       6.57731049      -0.00380039      -0.00268795       0.00000015
Se       4.69731921       1.41251558       5.01862588      -0.00190231       0.00268893       0.00329173
Se       2.89750512       3.95783620       8.13599474       0.00190108      -0.00268868      -0.00329408
Se       2.89750521       3.95783649       5.01862580       0.00190236      -0.00268869       0.00329337
Se       4.69731884       1.41251531       8.13599448      -0.00190227       0.00268942      -0.00329417
