9
Lattice="6.57841092338655 1.9254107400834852e-07 3.79804744169236 2.192803802888961 6.20218541353261 3.7980474759341614 7.438659005249805e-08 9.453668672456888e-08 7.596094754543237" Properties=species:S:1:pos:R:3:forces:R:3 energy=-28.053302764892578 free_energy=-28.053302764892578 stress="2.7838326786877587e-05 7.236324872650357e-09 -1.3212920535465855e-08 7.236324872650357e-09 2.7824202334159054e-05 -9.100030062825226e-09 -1.3212920535465855e-08 -9.100030062825226e-09 2.7814321583718993e-05" pbc="T T T"
Bi       2.19280345       1.55054638       3.79804793      -0.00000058       0.00000046       0.00000335
Bi       6.57841147       4.65163876      11.39414062       0.00000179      -0.00000233      -0.00000722
Ca      -0.00000061      -0.00000057       0.00000126       0.00000276       0.00000342      -0.00000695
Te       2.48406746       1.75650172       7.59609457       0.00011197       0.00008060       0.00000010
Te       6.28714758       4.44568485       7.59609663      -0.00011512      -0.00008111       0.00000482
Te       5.33637720       1.75650143       5.94931233      -0.00005915       0.00008254       0.00010125
Te       3.43483794       4.44568475       9.24287646       0.00005693      -0.00007803      -0.00009836
Te       3.43483693       4.44568397       5.94931244       0.00005635      -0.00008531       0.00010115
Te       5.33637774       1.75650158       9.24287646      -0.00005493       0.00007980      -0.00009823
