9
Lattice="6.148859286979397 -2.1703171586281397e-07 3.550045620487125 2.049619712844915 5.797200066941337 3.550045351780386 3.431360155065486e-09 -3.266708666039863e-07 7.100091235030878" Properties=species:S:1:pos:R:3:forces:R:3 energy=-29.344829559326172 free_energy=-29.344829559326172 stress="-0.00010794308764161542 -1.0259146421276455e-08 -6.577048239364558e-09 -1.0259146421276455e-08 -0.00010792085231514648 6.4362737361989275e-09 -6.577048239364558e-09 6.4362737361989275e-09 -0.00010792561079142615" pbc="T T T"
Bi       2.04962033       1.44930081       3.55004469       0.00000189       0.00000371      -0.00000286
Bi       6.14885981       4.34789930      10.65013476       0.00000209      -0.00000162      -0.00000585
Cu       0.00000021       0.00000007       0.00000032      -0.00000058      -0.00000112      -0.00000245
Te       2.14899443       1.51956866       7.10009123      -0.00232536      -0.00164308       0.00000077
Te       6.04948447       4.27763080       7.10009195       0.00232504       0.00164385       0.00000213
Te       5.07436176       1.51956845       5.41112983       0.00116176      -0.00164418      -0.00201261
Te       3.12411706       4.27762997       8.78905326      -0.00116355       0.00164287       0.00201678
Te       3.12411639       4.27763094       5.41112979      -0.00116420       0.00164341      -0.00201232
Te       5.07436160       1.51956912       8.78905295       0.00116298      -0.00164388       0.00201635
