9
Lattice="5.717379847922535 6.228711987520642e-08 3.300930839777479 1.9057933369026951 5.3903974881058305 3.300930847507563 -7.556943410286077e-09 4.1238056881255215e-09 6.6018616926440155" Properties=species:S:1:pos:R:3:forces:R:3 energy=-32.91339874267578 free_energy=-32.91339874267578 stress="2.4786106678220676e-06 1.753818779093308e-08 -1.180576791881549e-08 1.753818779093308e-08 2.4434809802187374e-06 2.9123702560696074e-08 -1.180576791881549e-08 2.9123702560696074e-08 2.452109356454457e-06" pbc="T T T"
Bi       1.90579529       1.34759829       3.30093064       0.00001364      -0.00000755      -0.00000032
Bi       5.71737993       4.04279797       9.90279285       0.00000081      -0.00000050       0.00000329
Ca       0.00000013       0.00000087      -0.00000010      -0.00000285      -0.00001178       0.00000186
S        2.09300926       1.47998104       6.60186146      -0.00033248      -0.00023609      -0.00000033
S        5.53016294       3.91041675       6.60186160       0.00033788       0.00024646      -0.00000177
S        4.67087492       1.47998120       5.11352962       0.00016315      -0.00023524      -0.00029042
S        2.95229771       3.91041643       8.09019325      -0.00017076       0.00024078       0.00029196
S        2.95229800       3.91041670       5.11353007      -0.00016966       0.00023894      -0.00029449
S        4.67087453       1.47998097       8.09019412       0.00016034      -0.00023517       0.00029019
