9
Lattice="6.023604257142909 8.125115739539263e-08 3.4777294493728172 2.007868157773153 5.679108598999855 3.477729457245811 -6.613520439989282e-08 -3.712224790711813e-08 6.955459013295054" Properties=species:S:1:pos:R:3:forces:R:3 energy=-30.471267700195312 free_energy=-30.471267700195312 stress="2.2000904209562577e-05 3.915297241974258e-08 1.327916265836393e-08 3.915297241974258e-08 2.1981317331665196e-05 -3.7213113146528087e-10 1.327916265836393e-08 -3.7213113146528087e-10 2.1974361516186036e-05" pbc="T T T"
Bi       2.00786898       1.41977702       3.47772848       0.00000590      -0.00000178      -0.00000757
Bi       6.02360473       4.25933143      10.43318921       0.00000348      -0.00000012       0.00000554
Ca      -0.00000011      -0.00000014      -0.00000091      -0.00000008       0.00000050       0.00001175
Se       2.22173358       1.57100301       6.95545919       0.00001672       0.00001328       0.00000131
Se       5.80973859       4.10810604       6.95545876      -0.00001849      -0.00001024      -0.00000245
Se       4.91273784       1.57100313       5.40180721      -0.00000652       0.00001150       0.00001338
Se       3.11873415       4.10810576       8.50911117       0.00000762      -0.00001839      -0.00001915
Se       3.11873486       4.10810611       5.40180730       0.00000791      -0.00000893       0.00001438
Se       4.91273678       1.57100220       8.50911129      -0.00001644       0.00001422      -0.00001697
