9
Lattice="6.196025339015343 5.018632117880555e-08 3.5772774516575816 2.0653418378537696 5.84166904261318 3.577277432837327 -7.69214917921713e-09 -2.8489190660064422e-08 7.154554916638349" Properties=species:S:1:pos:R:3:forces:R:3 energy=-35.258544921875 free_energy=-35.258544921875 stress="-3.451815064181574e-05 1.8975547799726655e-09 -1.6094347188300162e-08 1.8975547799726655e-09 -3.453558019828051e-05 2.1620103041186667e-08 -1.6094347188300162e-08 2.1620103041186667e-08 -3.453044701018371e-05" pbc="T T T"
Bi       2.06533958       1.46041716       3.57727715      -0.00001010       0.00000014      -0.00000219
Bi       6.19602624       4.38125245      10.73183238       0.00000467       0.00000232       0.00000046
Cr       0.00000009       0.00000002      -0.00000021      -0.00000183      -0.00000187       0.00000160
Te       2.13339524       1.50853832       7.15455512       0.00019587       0.00013802       0.00000034
Te       6.12797232       4.33313016       7.15455483      -0.00019246      -0.00013778       0.00000057
Te       5.12932878       1.50853816       5.42485318      -0.00009435       0.00013600       0.00016762
Te       3.13203895       4.33313105       8.88425705       0.00009762      -0.00013725      -0.00016756
Te       3.13203883       4.33313149       5.42485284       0.00009707      -0.00013808       0.00017013
Te       5.12932864       1.50853744       8.88425688      -0.00009656       0.00013851      -0.00017108
