9
Lattice="6.137468614717922 -3.774285010110632e-07 3.543468197433944 2.0458226410733498 5.786459466407388 3.543467980332228 2.417680726608491e-07 -9.493838903260489e-08 7.086935976113279" Properties=species:S:1:pos:R:3:forces:R:3 energy=-33.64207077026367 free_energy=-33.64207077026367 stress="-0.00018817743693944067 -1.6738514574399233e-08 -8.286688668590614e-09 -1.6738514574399233e-08 -0.00018809344328474253 7.4504877822789695e-09 -8.286688668590614e-09 7.4504877822789695e-09 -0.00018819810065906495" pbc="T T T"
Bi       2.04582023       1.44661038       3.54346824      -0.00000478      -0.00001103      -0.00000048
Bi       6.13747092       4.33984853      10.63040455       0.00000333       0.00001046       0.00000153
Co      -0.00000023      -0.00000040      -0.00000063       0.00000133       0.00000681       0.00000697
Te       2.01431353       1.42433188       7.08693587       0.00331798       0.00234386      -0.00000196
Te       6.16897795       4.36212773       7.08693500      -0.00332221      -0.00234625       0.00000086
Te       5.13031330       1.42433198       5.28791521      -0.00165664       0.00234289       0.00287530
Te       3.05297821       4.36212704       8.88595808       0.00166089      -0.00234788      -0.00287970
Te       3.05297944       4.36212749       5.28791438       0.00165821      -0.00234544       0.00287555
Te       5.13031261       1.42433134       8.88595801      -0.00165808       0.00234650      -0.00287803
