9
Lattice="4.804979878441076 6.196328298370701e-09 2.7741564926094116 1.6016599820580213 4.530178390697123 2.7741564636223157 6.85980479882494e-08 1.3004340427147308e-08 5.548312866403554" Properties=species:S:1:pos:R:3:forces:R:3 energy=-54.23862075805664 free_energy=-54.23862075805664 stress="-0.0003419157874304801 -2.1617616141611506e-08 -3.482298183143939e-08 -2.1617616141611506e-08 -0.00034185423282906413 -2.7225560472743382e-08 -3.482298183143939e-08 -2.7225560472743382e-08 -0.00034188912832178175" pbc="T T T"
Bi       1.60166009       1.13254411       2.77415668       0.00000044      -0.00000069       0.00000012
Bi       4.80497992       3.39763398       8.32247008      -0.00000017      -0.00000066       0.00000275
Cr      -0.00000008      -0.00000008       0.00000005       0.00000038       0.00000121      -0.00000398
N        1.52948861       1.08151150       5.54831295       0.00313842       0.00221843      -0.00000071
N        4.87715145       3.44866705       5.54831253      -0.00314045      -0.00221825      -0.00000126
N        4.04023576       1.08151180       4.09873203      -0.00157124       0.00222152       0.00272000
N        2.36640409       3.44866693       6.99789339       0.00156957      -0.00221789      -0.00271881
N        2.36640438       3.44866687       4.09873219       0.00157112      -0.00222158       0.00271928
N        4.04023568       1.08151136       6.99789345      -0.00156820       0.00221753      -0.00271767
