9
Lattice="5.428627731735672 -4.8778999012525135e-08 3.1342198316875183 1.8095425751721879 5.118158816354304 3.134219755622316 8.518926757844994e-08 -3.292258182292246e-08 6.2684395158228305" Properties=species:S:1:pos:R:3:forces:R:3 energy=-39.69388961791992 free_energy=-39.69388961791992 stress="-0.00017780647613108158 6.384736295217408e-09 1.2283672967683401e-09 6.384736295217408e-09 -0.00017780977941583842 -1.9241042537032627e-08 1.2283672967683401e-09 -1.9241042537032627e-08 -0.00017783181101549417" pbc="T T T"
Bi       1.80954317       1.27953954       3.13421939       0.00000152       0.00000014      -0.00000132
Bi       5.42862703       3.83861862       9.40265973      -0.00000310      -0.00000332       0.00000049
Co      -0.00000015       0.00000006       0.00000021       0.00000011       0.00000012       0.00000058
S        1.80608374       1.27709422       6.26843928      -0.00245067      -0.00173272       0.00000016
S        5.43208675       3.84106468       6.26843936       0.00245008       0.00173262      -0.00000116
S        4.52558616       1.27709386       4.69833380       0.00122395      -0.00173008      -0.00212124
S        2.71258464       3.84106460       7.83854523      -0.00122289       0.00173151       0.00212154
S        2.71258461       3.84106523       4.69833409      -0.00122343       0.00173388      -0.00212190
S        4.52558568       1.27709406       7.83854538       0.00122458      -0.00173207       0.00212353
