9
Lattice="4.6243035248246045 8.35670445280577e-08 2.66984296235961 1.5414345445753483 4.359835599613311 2.6698430359497074 2.1605776666470398e-08 1.054066921450619e-07 5.339685887296866" Properties=species:S:1:pos:R:3:forces:R:3 energy=-48.4551887512207 free_energy=-48.4551887512207 stress="-4.699632336269133e-05 2.9288466762977805e-08 -1.6762966126293577e-08 2.9288466762977805e-08 -4.6899993321858346e-05 3.4583216290684504e-08 -1.6762966126293577e-08 3.4583216290684504e-08 -4.7094395995372906e-05" pbc="T T T"
Bi       1.54143506       1.08995855       2.66984266       0.00000130      -0.00000164      -0.00000082
Bi       4.62430363       3.26987666       8.00952867       0.00000063      -0.00000138       0.00000043
Co      -0.00000007       0.00000003       0.00000012       0.00000159      -0.00000225      -0.00000292
O        1.47022750       1.03960782       5.33968611       0.00120074       0.00084889       0.00000012
O        4.69551026       3.32022797       5.33968594      -0.00119990      -0.00084767      -0.00000060
O        3.88918976       1.03960813       3.94309726      -0.00060087       0.00085026       0.00104040
O        2.27654837       3.32022773       6.73627447       0.00059769      -0.00084564      -0.00103682
O        2.27654841       3.32022792       3.94309752       0.00060019      -0.00084773       0.00103939
O        3.88918953       1.03960832       6.73627475      -0.00060025       0.00084713      -0.00103879
