9
Lattice="5.383097552916567 2.2405589743927663e-07 3.1079341784455985 1.7943654258581103 5.075236117574344 3.107935280646606 -4.573708661977834e-07 1.0265050081895749e-06 6.2158691490807865" Properties=species:S:1:pos:R:3:forces:R:3 energy=-36.65052795410156 free_energy=-36.65052795410156 stress="-5.63058492843993e-05 2.4373201767957653e-07 1.2665421422752843e-07 2.4373201767957653e-07 -5.6374807172687724e-05 -1.2113714831230027e-07 1.2665421422752843e-07 -1.2113714831230027e-07 -5.65542395634111e-05" pbc="T T T"
Bi       1.79436731       1.26880718       3.10793252      -0.00000015      -0.00000376      -0.00001121
Bi       5.38309906       3.80643004       9.32380663       0.00001729      -0.00000210       0.00000730
C       -0.00000138       0.00000350       0.00000275      -0.00002889       0.00005987       0.00004922
S        1.60810379       1.13710406       6.21586967       0.00208211       0.00147186       0.00000523
S        5.56935945       3.93813011       6.21586820      -0.00210243      -0.00148022      -0.00000294
S        4.57904542       1.13710440       4.50059595      -0.00103199       0.00145915       0.00178313
S        2.59841620       3.93812950       7.93113743       0.00106408      -0.00150783      -0.00185433
S        2.59841648       3.93813357       4.50060005       0.00104968      -0.00147538       0.00182664
S        4.57904421       1.13710645       7.93114213      -0.00104947       0.00147848      -0.00180274
