9
Lattice="4.608398325943422 -1.472032293749892e-07 2.6606599504578825 1.5361326876916142 4.344839203435689 2.6606598618432886 1.2763853990671036e-08 -9.95048933880945e-08 5.321319878808149" Properties=species:S:1:pos:R:3:forces:R:3 energy=-45.46343231201172 free_energy=-45.46343231201172 stress="-0.0002859580854419619 -7.83808999926805e-08 -5.558464977184485e-08 -7.83808999926805e-08 -0.0002859051455743611 1.3353305128305237e-08 -5.558464977184485e-08 1.3353305128305237e-08 -0.0002858766820281744" pbc="T T T"
Bi       1.53613258       1.08620999       2.66066027       0.00000013      -0.00000012       0.00000108
Bi       4.60839742       3.25862859       7.98197998      -0.00000350      -0.00000055      -0.00000049
Cu       0.00000007       0.00000007      -0.00000004      -0.00000369       0.00000079      -0.00000376
O        1.53419258       1.08483748       5.32131977       0.00677687       0.00479168      -0.00000132
O        4.61033868       3.26000138       5.32131976      -0.00677419      -0.00479025       0.00000042
O        3.84130219       1.08483802       3.98930960      -0.00338736       0.00479198       0.00586554
O        2.30322932       3.26000101       6.65333020       0.00338766      -0.00478995      -0.00586596
O        2.30322906       3.26000121       3.98930907       0.00338894      -0.00479338       0.00586790
O        3.84130228       1.08483803       6.65333023      -0.00338495       0.00479034      -0.00586376
