9
Lattice="5.724316053270804 -3.228361625767593e-08 3.3049354777660622 1.9081053527569138 5.396936962089527 3.304935422160517 2.70175044038009e-09 -6.619224495618034e-08 6.609870950852653" Properties=species:S:1:pos:R:3:forces:R:3 energy=-39.332557678222656 free_energy=-39.332557678222656 stress="-0.0001065258402377367 -1.1873926730743278e-08 -1.3384136465788288e-08 -1.1873926730743278e-08 -0.0001065138858393766 -6.4715637293488726e-09 -1.3384136465788288e-08 -6.4715637293488726e-09 -0.00010649739851942286" pbc="T T T"
Bi       1.90810501       1.34923428       3.30493561      -0.00000201      -0.00000008       0.00000171
Bi       5.72431692       4.04770307       9.91480639       0.00000560       0.00000275       0.00000088
Cr       0.00000006      -0.00000012      -0.00000027      -0.00000106       0.00000141       0.00000185
Se       1.94482466       1.37519860       6.60987085       0.00063237       0.00044711       0.00000009
Se       5.68759683       4.02173815       6.60987110      -0.00063262      -0.00044783       0.00000056
Se       4.75190368       1.37519870       4.98920309      -0.00031579       0.00044490       0.00054539
Se       2.88051725       4.02173837       8.23053876       0.00031534      -0.00044703      -0.00054966
Se       2.88051745       4.02173819       4.98920312       0.00031449      -0.00044634       0.00054606
Se       4.75190372       1.37519823       8.23053875      -0.00031644       0.00044503      -0.00054692
