9
Lattice="4.797652380663498 -2.9640592555449518e-08 2.7699260054791095 1.5992174666140226 4.523270291824876 2.769925946003517 9.413561305845024e-08 -6.278513914845488e-09 5.539851847910557" Properties=species:S:1:pos:R:3:forces:R:3 energy=-42.59681701660156 free_energy=-42.59681701660156 stress="-0.00019047863315790892 -5.4426323004008736e-08 2.1811649375536035e-08 -5.4426323004008736e-08 -0.0001904862147057429 -1.3293562517446844e-07 2.1811649375536035e-08 -1.3293562517446844e-07 -0.00019029311079066247" pbc="T T T"
Bi       1.59921901       1.13081761       2.76992576       0.00000946       0.00000096      -0.00000058
Bi       4.79765322       3.39245239       8.30977932       0.00000620      -0.00000091       0.00000959
Ca       0.00000052      -0.00000005       0.00000050      -0.00000370       0.00000446      -0.00000556
O        1.76135760       1.24546825       5.53985203      -0.00733748      -0.00518490       0.00000206
O        4.63551174       3.27780252       5.53985107       0.00733575       0.00519007      -0.00000662
O        3.91697277       1.24546835       4.29530638       0.00366457      -0.00518641      -0.00635815
O        2.47989598       3.27780196       6.78439678      -0.00367370       0.00518598       0.00635314
O        2.47989633       3.27780177       4.29530674      -0.00366922       0.00518753      -0.00635517
O        3.91697263       1.24546820       6.78439663       0.00366803      -0.00519693       0.00636089
