9
Lattice="4.756670098197629 6.278036329122429e-08 2.7462646996247386 1.5855567513330742 4.4846315844281035 2.7462647121925228 7.685833901158816e-09 2.082704127539476e-08 5.492529385937223" Properties=species:S:1:pos:R:3:forces:R:3 energy=-49.602622985839844 free_energy=-49.602622985839844 stress="-7.671899948036298e-05 -1.3631873407859985e-08 -4.870314818106181e-09 -1.3631873407859985e-08 -7.685011951252818e-05 -3.079884081103046e-08 -4.870314818106181e-09 -3.079884081103046e-08 -7.662687130505219e-05" pbc="T T T"
Bi       1.58555668       1.12115791       2.74626481       0.00000056       0.00000005       0.00000065
Bi       4.75666994       3.36347374       8.23879401      -0.00000022       0.00000001      -0.00000028
Co       0.00000018      -0.00000022      -0.00000004       0.00000006      -0.00000081      -0.00000005
N        1.52916285       1.08128164       5.49252940       0.00073314       0.00051832       0.00000076
N        4.81306371       3.40335003       5.49252941      -0.00073212      -0.00051710      -0.00000096
N        3.99208866       1.08128156       4.07055856      -0.00036663       0.00051787       0.00063401
N        2.35013839       3.40335025       6.91450010       0.00036564      -0.00051779      -0.00063390
N        2.35013828       3.40335011       4.07055856       0.00036639      -0.00051767       0.00063384
N        3.99208872       1.08128168       6.91450011      -0.00036666       0.00051710      -0.00063431
