9
Lattice="5.4337182323497215 3.4733376042697513e-07 3.137158256436054 1.8112396078750688 5.122959423430132 3.137158482256644 2.6662618534796187e-08 2.954259012280093e-07 6.274316466691098" Properties=species:S:1:pos:R:3:forces:R:3 energy=-34.69248962402344 free_energy=-34.69248962402344 stress="-2.2379248548531905e-05 -5.31077049004125e-09 -6.428046095408035e-09 -5.31077049004125e-09 -2.234495332231745e-05 -1.4856289531905986e-08 -6.428046095408035e-09 -1.4856289531905986e-08 -2.2376812921720557e-05" pbc="T T T"
Bi       1.81123947       1.28073968       3.13715825      -0.00000066      -0.00000043      -0.00000081
Bi       5.43371916       3.84222047       9.41147404       0.00000309       0.00000205      -0.00000292
Cu      -0.00000016       0.00000006       0.00000040       0.00000078      -0.00000021      -0.00000182
S        1.89828343       1.34228932       6.27431704      -0.00017202      -0.00012124       0.00000145
S        5.34667525       3.78067040       6.27431715       0.00016922       0.00011852       0.00000051
S        4.48457635       1.34228914       4.78111935       0.00008336      -0.00011948      -0.00014621
S        2.76038107       3.78067090       7.76751315      -0.00008580       0.00012225       0.00014728
S        2.76038031       3.78067067       4.78111998      -0.00008488       0.00011945      -0.00014544
S        4.48457665       1.34228974       7.76751347       0.00008690      -0.00012094       0.00014806
