9
Lattice="5.812383048082154 -1.0665970153736497e-07 3.3557808384809182 1.937460993966591 5.479966917375261 3.3557807025168 5.631161821293234e-08 -1.2670304999052084e-07 6.7115615794272765" Properties=species:S:1:pos:R:3:forces:R:3 energy=-37.97446060180664 free_energy=-37.97446060180664 stress="-0.00027362204855307937 -6.351621095745941e-08 -2.7252736956029366e-08 -6.351621095745941e-08 -0.00027363287517800927 1.4551324589717751e-08 -2.7252736956029366e-08 1.4551324589717751e-08 -0.00027361599495634437" pbc="T T T"
Bi       1.93746131       1.36999138       3.35578058       0.00000194      -0.00000276      -0.00000104
Bi       5.81238391       4.10997528      10.06734167       0.00000237      -0.00000098      -0.00000359
Fe      -0.00000041      -0.00000056      -0.00000032       0.00000648       0.00000884       0.00000062
Se       1.88552509       1.33326686       6.71156144       0.00125568       0.00088885      -0.00000012
Se       5.86431949       4.14669976       6.71156191      -0.00126390      -0.00089195       0.00000025
Se       4.86962041       1.33326720       4.98869338      -0.00062847       0.00088836       0.00108908
Se       2.88022324       4.14669955       8.43443040       0.00062717      -0.00088926      -0.00108966
Se       2.88022291       4.14669998       4.98869326       0.00062756      -0.00088982       0.00109178
Se       4.86962050       1.33326739       8.43443012      -0.00062881       0.00088879      -0.00108714
