9
Lattice="4.794382065997032 8.4403782098725e-08 2.7680377816797783 1.5981273675838903 4.520187123542168 2.7680378982902645 -8.560756063204631e-08 8.228442049787556e-08 5.536075711636221" Properties=species:S:1:pos:R:3:forces:R:3 energy=-51.849395751953125 free_energy=-51.849395751953125 stress="-0.0003075501008424908 2.677782440230203e-08 3.658362501823831e-08 2.677782440230203e-08 -0.00030754657927900553 3.3094359253027505e-08 3.658362501823831e-08 3.3094359253027505e-08 -0.00030764174880459905" pbc="T T T"
Bi       1.59812746       1.13004689       2.76803788      -0.00000033       0.00000003       0.00000036
Bi       4.79438208       3.39014042       8.30411356      -0.00000002      -0.00000005       0.00000001
Fe      -0.00000057      -0.00000110      -0.00000012      -0.00000329      -0.00001000       0.00000026
N        1.52804276       1.08048970       5.53607580       0.00273311       0.00193298      -0.00000016
N        4.86446692       3.43969809       5.53607580      -0.00272894      -0.00192907      -0.00000006
N        4.03036067       1.08048963       4.09136175      -0.00136599       0.00193170       0.00236684
N        2.36214859       3.43969799       6.98078966       0.00136602      -0.00192919      -0.00236455
N        2.36214875       3.43969778       4.09136160       0.00136471      -0.00192884       0.00236270
N        4.03036070       1.08048976       6.98078966      -0.00136566       0.00193208      -0.00236526
