9
Lattice="5.497243936294549 -2.1332957505655217e-08 3.1738349880461114 1.8324146091516351 5.1828509307049035 3.1738350160481743 -1.4155614147539453e-08 2.4285843772915926e-08 6.347670000610454" Properties=species:S:1:pos:R:3:forces:R:3 energy=-40.94509506225586 free_energy=-40.94509506225586 stress="-7.245838060043752e-05 -1.4927998392977315e-08 -2.1877314182461305e-08 -1.4927998392977315e-08 -7.243314757943153e-05 2.6719396473140478e-08 -2.1877314182461305e-08 2.6719396473140478e-08 -7.241967978188768e-05" pbc="T T T"
Bi       1.83241531       1.29571322       3.17383495       0.00000317       0.00000225       0.00000010
Bi       5.49724393       3.88713766       9.52150419       0.00000146      -0.00000296      -0.00000460
Fe      -0.00000016      -0.00000014      -0.00000017       0.00000156       0.00000167      -0.00000180
S        1.80360160       1.27533913       6.34767003       0.00616249       0.00435874      -0.00000056
S        5.52605684       3.90751203       6.34767032      -0.00616559      -0.00435960       0.00000133
S        4.59544275       1.27533917       4.73580005      -0.00308210       0.00435823       0.00533670
S        2.73421572       3.90751149       7.95954011       0.00308050      -0.00435686      -0.00533471
S        2.73421512       3.90751179       4.73580013       0.00308071      -0.00436002       0.00533888
S        4.59544281       1.27533936       7.95954014      -0.00308239       0.00435871      -0.00533530
