9
Lattice="4.660489354731566 1.2872090233831035e-07 2.6907347310150835 1.5534965040320028 4.393951596208273 2.6907348503609816 -2.153704425215719e-08 1.309393112031783e-07 5.381469499333403" Properties=species:S:1:pos:R:3:forces:R:3 energy=-49.09041213989258 free_energy=-49.09041213989258 stress="8.890086064639036e-06 -1.7372046912100814e-08 -1.0495452329450927e-07 -1.7372046912100814e-08 8.959292244981043e-06 -3.9536022455877173e-08 -1.0495452329450927e-07 -3.9536022455877173e-08 8.880747373041231e-06" pbc="T T T"
Bi       1.55349601       1.09848869       2.69073583      -0.00000439       0.00000145       0.00000702
Bi       4.66048934       3.29546330       8.07220344       0.00000054      -0.00000143      -0.00000221
Fe       0.00000000       0.00000019       0.00000013      -0.00000156      -0.00000121      -0.00000465
O        1.48372124       1.04914959       5.38146890       0.00064006       0.00045513       0.00000074
O        4.73026466       3.34480188       5.38146994      -0.00063691      -0.00045358      -0.00000015
O        3.91862834       1.04914966       3.97567522      -0.00031772       0.00045253       0.00055107
O        2.29535756       3.34480230       6.78726378       0.00031751      -0.00045219      -0.00055182
O        2.29535650       3.34480207       3.97567511       0.00032000      -0.00045370       0.00055519
O        3.91862966       1.04914984       6.78726397      -0.00031759       0.00045323      -0.00055516
