9
Lattice="5.583021170368676 2.2311488802134342e-07 3.2233586815130235 1.8610072516447533 5.2637226968822155 3.2233587083590045 1.1162929709571224e-07 1.1181331831139947e-07 6.446717169678382" Properties=species:S:1:pos:R:3:forces:R:3 energy=-36.30254364013672 free_energy=-36.30254364013672 stress="-8.654868724988773e-05 -3.504890955241535e-08 -1.7222523851501137e-08 -3.504890955241535e-08 -8.646721835248172e-05 -2.391930387091179e-08 -1.7222523851501137e-08 -2.391930387091179e-08 -8.646702190162614e-05" pbc="T T T"
Bi       1.86100771       1.31592994       3.22335915       0.00000150      -0.00000261       0.00000335
Bi       5.58302081       3.94779116       9.67007433      -0.00000340      -0.00000810      -0.00001212
Ge      -0.00000004       0.00000036       0.00000034       0.00000134      -0.00000267      -0.00000900
S        1.88759643       1.33473282       6.44671724      -0.00866532      -0.00612542      -0.00000142
S        5.55643202       3.92899091       6.44671799       0.00866276       0.00612840       0.00000338
S        4.63922259       1.33473268       4.85806510       0.00432967      -0.00612354      -0.00750366
S        2.80480630       3.92899033       8.03536918      -0.00433195       0.00613499       0.00751048
S        2.80480538       3.92899028       4.85806572      -0.00433174       0.00612786      -0.00750369
S        4.63922296       1.33473381       8.03536927       0.00433740      -0.00612882       0.00751257
