9
Lattice="5.814149414595156 2.7430499043110266e-08 3.356800633937799 1.938049814074259 5.481632663226228 3.3568006627807856 -1.0338154888962272e-07 -3.777646963229966e-08 6.7136014469376795" Properties=species:S:1:pos:R:3:forces:R:3 energy=-33.173439025878906 free_energy=-33.173439025878906 stress="-8.42527788336156e-06 -1.0026343311153596e-08 -3.426267269901473e-09 -1.0026343311153596e-08 -8.478138624923304e-06 -7.814520586180151e-09 -3.426267269901473e-09 -7.814520586180151e-09 -8.446673746220767e-06" pbc="T T T"
Bi       1.93804992       1.37040892       3.35680106      -0.00000056       0.00000523       0.00000162
Bi       5.81414946       4.11122432      10.07040282       0.00000104      -0.00000201       0.00000514
Ge       0.00000004      -0.00000020      -0.00000041       0.00000036       0.00000026       0.00000357
Se       2.01469514       1.42460465       6.71360111       0.00089914       0.00063444      -0.00000076
Se       5.73750399       4.05702758       6.71360084      -0.00089766      -0.00063698      -0.00000212
Se       4.80680157       1.42460483       5.10157791      -0.00044846       0.00063420       0.00077560
Se       2.94539717       4.05702815       8.32562493       0.00044868      -0.00063619      -0.00077827
Se       2.94539735       4.05702782       5.10157773       0.00044886      -0.00063546       0.00077549
Se       4.80680182       1.42460454       8.32562495      -0.00045146       0.00063652      -0.00078036
