9
Lattice="6.30371647144065 -8.085546987548073e-08 3.639452336517534 2.1012387887855866 5.943200789751821 3.639452265151336 -4.799260090929234e-09 -9.079892206260162e-08 7.278904681347736" Properties=species:S:1:pos:R:3:forces:R:3 energy=-28.306028366088867 free_energy=-28.306028366088867 stress="2.158401912311092e-05 3.84250231633132e-09 3.2597398114120324e-09 3.84250231633132e-09 2.1588970412267372e-05 -5.211113762726427e-09 3.2597398114120324e-09 -5.211113762726427e-09 2.15809304791037e-05" pbc="T T T"
Bi       2.10123926       1.48580097       3.63945167       0.00000193       0.00000329      -0.00000220
Bi       6.30371528       4.45740180      10.91835778      -0.00000506       0.00000628       0.00000291
Ga       0.00000009      -0.00000005      -0.00000010      -0.00000063       0.00000120       0.00000130
Te       2.23896723       1.58318814       7.27890445       0.00331545       0.00234218       0.00000000
Te       6.16598837       4.36001173       7.27890389      -0.00331396      -0.00234520      -0.00000216
Te       5.18423286       1.58318812       5.57845489      -0.00165743       0.00234206       0.00286978
Te       3.22072269       4.36001166       8.97935534       0.00165940      -0.00234705      -0.00286981
Te       3.22072294       4.36001219       5.57845449       0.00165937      -0.00234448       0.00287014
Te       5.18423230       1.58318794       8.97935473      -0.00165908       0.00234177      -0.00287004
