9
Lattice="5.490382527591516 -3.3344267776971016e-09 3.1698737931997734 1.8301275933099483 5.176381505146042 3.1698736420670532 1.1350469475582748e-07 -1.0483908888997711e-07 6.339747389803689" Properties=species:S:1:pos:R:3:forces:R:3 energy=-34.97916030883789 free_energy=-34.97916030883789 stress="-0.0003258290817029774 1.6741994457447618e-08 -1.1804254240743717e-09 1.6741994457447618e-08 -0.00032591039780527353 6.8161436495017824e-09 -1.1804254240743717e-09 6.8161436495017824e-09 -0.0003258565266150981" pbc="T T T"
Bi       1.83012757       1.29409606       3.16987194       0.00000084       0.00000395      -0.00000983
Bi       5.49038253       3.88228476       9.50961718       0.00000043      -0.00000782      -0.00002409
Ga       0.00000001      -0.00000012      -0.00000007      -0.00000127      -0.00000026      -0.00000089
S        1.91810540       1.35630501       6.33974800      -0.00230289      -0.00162525       0.00000395
S        5.40240469       3.82007657       6.33974921       0.00230354       0.00162880       0.00001071
S        4.53133022       1.35630493       4.83100241       0.00115258      -0.00162867      -0.00199029
S        2.78918037       3.82007572       7.84849418      -0.00114977       0.00162339       0.00199926
S        2.78917977       3.82007667       4.83100237      -0.00115515       0.00162859      -0.00198951
S        4.53133032       1.35630597       7.84849406       0.00115164      -0.00162286       0.00200069
