9
Lattice="4.660849281000628 8.501464457139603e-08 2.690942727188045 1.5536164109762356 4.394291598687484 2.690942893770702 -1.5571258420344976e-07 9.391583772896169e-08 5.3818857240781846" Properties=species:S:1:pos:R:3:forces:R:3 energy=-49.266841888427734 free_energy=-49.266841888427734 stress="-2.0699508240795694e-05 -6.625217707778575e-08 4.172811429725698e-08 -6.625217707778575e-08 -2.0725516151287593e-05 -1.4268715098353368e-08 4.172811429725698e-08 -1.4268715098353368e-08 -2.0635739929275587e-05" pbc="T T T"
Bi       1.55361648       1.09857305       2.69094302      -0.00000109       0.00000001       0.00000016
Bi       4.66084899       3.29571897       8.07282847       0.00000085       0.00000044      -0.00000006
Ge      -0.00000012       0.00000028       0.00000016       0.00000238      -0.00000132       0.00000087
O        1.54584369       1.09307651       5.38188569       0.00027323       0.00019312      -0.00000018
O        4.66862202       3.30121509       5.38188539      -0.00027502      -0.00019383      -0.00000019
O        3.88792738       1.09307667       4.02968290      -0.00013667       0.00019360       0.00023532
O        2.32653818       3.30121468       6.73408827       0.00013638      -0.00019264      -0.00023568
O        2.32653803       3.30121463       4.02968301       0.00013494      -0.00019300       0.00023448
O        3.88792736       1.09307710       6.73408835      -0.00013512       0.00019324      -0.00023496
