9
Lattice="5.764401349948831 7.124277084415592e-08 3.3280786278402017 1.921467159251513 5.434729835395094 3.3280786703905387 -8.889678750990358e-09 4.582736759822432e-08 6.656157271077756" Properties=species:S:1:pos:R:3:forces:R:3 energy=-31.88966178894043 free_energy=-31.88966178894043 stress="2.645236236276105e-06 -1.2629488566062719e-08 1.3334375381646169e-08 -1.2629488566062719e-08 2.695074272196507e-06 -9.19110398900358e-10 1.3334375381646169e-08 -9.19110398900358e-10 2.7086862246505916e-06" pbc="T T T"
Bi       1.92146626       1.35868193       3.32807922      -0.00000404      -0.00000261       0.00000320
Bi       5.76440114       4.07604758       9.98423520      -0.00000059       0.00000089      -0.00000436
Ga       0.00000029       0.00000020      -0.00000027      -0.00000484      -0.00000393       0.00000224
Se       2.03710613       1.44045140       6.65615718      -0.00068203      -0.00048308      -0.00000091
Se       5.64876216       3.99427807       6.65615742       0.00069149       0.00048853       0.00000195
Se       4.74584824       1.44045179       5.09226455       0.00034266      -0.00048798      -0.00059464
Se       2.94002048       3.99427874       8.22005021      -0.00034204       0.00048570       0.00059444
Se       2.94002032       3.99427805       5.09226449      -0.00034548       0.00048646      -0.00059595
Se       4.74584897       1.44045202       8.22005030       0.00034475      -0.00048390       0.00059393
