9
Lattice="4.805956449271849 1.6807242588231074e-07 2.7747205175515934 1.6019855881799916 4.531099872087396 2.774720609992564 -8.967399513407234e-08 4.9807537126240903e-08 5.5494411904230905" Properties=species:S:1:pos:R:3:forces:R:3 energy=-42.970035552978516 free_energy=-42.970035552978516 stress="-9.896006667986512e-05 -7.030873661051373e-08 4.971877487491838e-08 -7.030873661051373e-08 -9.901247540256009e-05 5.214303300249412e-08 4.971877487491838e-08 5.214303300249412e-08 -9.90485496004112e-05" pbc="T T T"
Bi       1.60198515       1.13277499       2.77472070      -0.00000263      -0.00000125       0.00000194
Bi       4.80595689       3.39832517       8.32416111       0.00000318      -0.00000060      -0.00000311
Ga      -0.00000004      -0.00000001       0.00000007       0.00000364       0.00000427      -0.00000020
N        1.58848045       1.12322579       5.54944100       0.00299248       0.00211814      -0.00000205
N        4.81946161       3.40787408       5.54944204      -0.00299689      -0.00212157       0.00000262
N        4.01171610       1.12322518       4.15038537      -0.00149672       0.00211558       0.00259453
N        2.39622604       3.40787478       6.94849677       0.00149767      -0.00211513      -0.00259525
N        2.39622511       3.40787462       4.15038566       0.00149487      -0.00211665       0.00259617
N        4.01171654       1.12322583       6.94849671      -0.00149560       0.00211737      -0.00259519
