9
Lattice="6.314678018970684 2.1604246928312712e-07 3.645781035866699 2.10489283490602 5.9535355741624345 3.64578110821624 -8.760145038199801e-08 2.6666161406003347e-08 7.291562223463555" Properties=species:S:1:pos:R:3:forces:R:3 energy=-29.403852462768555 free_energy=-29.403852462768555 stress="-5.711219273507595e-05 -1.0530459171320672e-08 3.0540607820483956e-09 -1.0530459171320672e-08 -5.711382254958153e-05 -1.0656308724321661e-08 3.0540607820483956e-09 -1.0656308724321661e-08 -5.708776370738633e-05" pbc="T T T"
Bi       2.10489228       1.48838377       3.64578174      -0.00000205      -0.00000015       0.00000279
Bi       6.31467819       4.46515248      10.93734391       0.00000042       0.00000203       0.00000202
Ge       0.00000073       0.00000013      -0.00000027      -0.00000446      -0.00000000       0.00000102
Te       2.25601213       1.59524161       7.29156209       0.00156933       0.00111021      -0.00000016
Te       6.16355777       4.35829310       7.29156202      -0.00156529      -0.00110756      -0.00000001
Te       5.18667135       1.59524241       5.59954596      -0.00078346       0.00110600       0.00135541
Te       3.23289906       4.35829443       8.98357848       0.00078491      -0.00110859      -0.00135978
Te       3.23289944       4.35829344       5.59954539       0.00078373      -0.00110818       0.00135738
Te       5.18667215       1.59524177       8.98357809      -0.00078323       0.00110618      -0.00135867
