9
Lattice="6.391185165282637 2.369476726719305e-06 3.6899472795357573 2.1303975102787533 6.025668656336947 3.6899468963708038 -2.2660959548240782e-07 -6.29516314632101e-07 7.379894951570798" Properties=species:S:1:pos:R:3:forces:R:3 energy=-24.576501846313477 free_energy=-24.576501846313477 stress="1.2314880223129876e-05 1.5971833988714934e-07 6.428204812891636e-08 1.5971833988714934e-07 1.1970781997661106e-05 -9.11483795107415e-08 6.428204812891636e-08 -9.11483795107415e-08 1.2539036106318235e-05" pbc="T T T"
Bi       2.13038316       1.50640376       3.68994267      -0.00005202      -0.00006508      -0.00000988
Bi       6.39119367       4.51925612      11.06985601       0.00003173       0.00002384       0.00004274
Hg      -0.00000000      -0.00000170       0.00000528      -0.00000552      -0.00000142      -0.00003522
Te       2.36194464       1.67013557       7.37989466      -0.00175199      -0.00126468       0.00000206
Te       6.15963122       4.35553884       7.37989055       0.00176725       0.00128996      -0.00002468
Te       5.21023292       1.67013858       5.73544622       0.00090735      -0.00123572      -0.00149804
Te       3.31135766       4.35553386       9.02433634      -0.00091952       0.00127086       0.00151534
Te       3.31136125       4.35553487       5.73544983      -0.00088537       0.00125745      -0.00150695
Te       5.21022525       1.67014158       9.02433467       0.00090820      -0.00127523       0.00151464
