9
Lattice="4.756839604363132 1.3238991710340194e-07 2.7463627804797515 1.585613289014893 4.484791882922176 2.7463628450123636 -6.25767090377704e-08 3.478755702614978e-08 5.492725669345516" Properties=species:S:1:pos:R:3:forces:R:3 energy=-37.93988037109375 free_energy=-37.93988037109375 stress="7.696772809140384e-05 -1.1940042288216546e-09 4.963538469127116e-09 -1.1940042288216546e-09 7.700218702666461e-05 5.3638217423213064e-08 4.963538469127116e-09 5.3638217423213064e-08 7.699888374190778e-05" pbc="T T T"
Bi       1.58561270       1.12119797       2.74636251      -0.00000312      -0.00000192      -0.00000022
Bi       4.75683933       3.36359386       8.23908670      -0.00000140       0.00000002      -0.00000958
Hg      -0.00000007      -0.00000005      -0.00000027       0.00000125      -0.00000347       0.00001564
O        1.70311852       1.20428673       5.49272560      -0.00056493      -0.00039932      -0.00000099
O        4.63933437       3.28050529       5.49272664       0.00056732       0.00039998       0.00000474
O        3.90528064       1.20428662       4.22130727       0.00028631      -0.00040346      -0.00049117
O        2.43717294       3.28050542       6.76414496      -0.00028014       0.00039884       0.00048938
O        2.43717245       3.28050528       4.22130707      -0.00028533       0.00040308      -0.00049281
O        3.90528053       1.20428710       6.76414475       0.00028017      -0.00039345       0.00048500
