9
Lattice="5.5606366913348895 1.0915765195449175e-07 3.210435127803324 1.8535456797128 5.242618625497836 3.2104351052525364 5.9439277039860834e-08 1.4410974451980079e-08 6.420870152654772" Properties=species:S:1:pos:R:3:forces:R:3 energy=-29.347658157348633 free_energy=-29.347658157348633 stress="2.2549593268195167e-06 3.650761692952642e-09 -3.6741504061410524e-08 3.650761692952642e-09 2.324118213437032e-06 6.737138402712617e-09 -3.6741504061410524e-08 6.737138402712617e-09 2.285070877405815e-06" pbc="T T T"
Bi       1.85354590       1.31065559       3.21043257       0.00000292       0.00000702      -0.00001744
Bi       5.56063681       3.93196411       9.63130439       0.00000107       0.00000108      -0.00000283
Hg       0.00000041       0.00000042       0.00000016      -0.00000436      -0.00000262      -0.00000189
S        2.03408247       1.43831342       6.42087135      -0.00169721      -0.00120145       0.00000694
S        5.38009995       3.80430465       6.42087026       0.00170192       0.00120196       0.00000134
S        4.54359550       1.43831383       4.97200233       0.00085025      -0.00120339      -0.00146875
S        2.87058647       3.80430370       7.86973892      -0.00085188       0.00119670       0.00147581
S        2.87058687       3.80430545       4.97200260      -0.00084989       0.00120251      -0.00146720
S        4.54359530       1.43831389       7.86973894       0.00084719      -0.00120217       0.00147417
