9
Lattice="4.835655842458794 4.2750639646973325e-08 2.7918671019989647 1.611885296733584 4.559100189258427 2.791867144246694 -8.918434777835938e-08 -1.1320230473859742e-08 5.5837343584698065" Properties=species:S:1:pos:R:3:forces:R:3 energy=-53.039710998535156 free_energy=-53.039710998535156 stress="-1.6005977158783935e-05 3.775033974307007e-08 -4.044188983698405e-09 3.775033974307007e-08 -1.6053894796641544e-05 4.20765360331643e-08 -4.044188983698405e-09 4.20765360331643e-08 -1.5916430129436776e-05" pbc="T T T"
Bi       1.61188496       1.13977535       2.79186700      -0.00000253      -0.00000023      -0.00000125
Bi       4.83565637       3.41932565       8.37560017       0.00000217       0.00000160      -0.00000345
Hf      -0.00000002       0.00000016      -0.00000029      -0.00000052      -0.00000097      -0.00000232
N        1.74393454       1.23314823       5.58373420       0.00074473       0.00052652      -0.00000114
N        4.70360650       3.32595194       5.58373501      -0.00074321      -0.00052550       0.00000308
N        3.96368865       1.23314737       4.30215940      -0.00037150       0.00052297       0.00064650
N        2.48385283       3.32595217       6.86530994       0.00037284      -0.00052536      -0.00064293
N        2.48385183       3.32595196       4.30215916       0.00036895      -0.00052533       0.00064400
N        3.96368861       1.23314825       6.86530992      -0.00037099       0.00052583      -0.00064304
