9
Lattice="5.829235162721817 -2.061585371929702e-08 3.365510529899952 1.9430783739108564 5.495855527861307 3.365510519899571 2.855764354436405e-08 7.945356846551275e-09 6.73102101033658" Properties=species:S:1:pos:R:3:forces:R:3 energy=-27.258739471435547 free_energy=-27.258739471435547 stress="-9.172289878733864e-07 2.1740808264780753e-08 -1.1504265984285666e-08 2.1740808264780753e-08 -8.857442708176677e-07 7.347556341130712e-09 -1.1504265984285666e-08 7.347556341130712e-09 -9.281212669520755e-07" pbc="T T T"
Bi       1.94307770       1.37396371       3.36551112      -0.00000303      -0.00000090       0.00000275
Bi       5.82923507       4.12189367      10.09653199      -0.00000025       0.00001152       0.00000151
Hg       0.00000026      -0.00000006       0.00000028      -0.00000157      -0.00000083       0.00000091
Se       2.18796780       1.54712593       6.73102081      -0.00465434      -0.00329592      -0.00000099
Se       5.58434612       3.94872856       6.73102079       0.00465896       0.00329099      -0.00000090
Se       4.73525133       1.54712563       5.26034607       0.00232808      -0.00329544      -0.00403031
Se       3.03706214       3.94872986       8.20169578      -0.00232735       0.00329397       0.00403065
Se       3.03706222       3.94872905       5.26034545      -0.00232732       0.00329091      -0.00403411
Se       4.73525158       1.54712568       8.20169593       0.00232697      -0.00329411       0.00403028
