9
Lattice="4.780810024429188 1.097771225138071e-07 2.7602018534303068 1.5936034796166971 4.507390628347883 2.760201793429554 1.4026030793218008e-07 2.5693399374378916e-08 5.520403463922656" Properties=species:S:1:pos:R:3:forces:R:3 energy=-43.235130310058594 free_energy=-43.235130310058594 stress="3.0076810162427137e-06 -5.086538745757707e-09 -9.86449588680216e-09 -5.086538745757707e-09 3.1390504773298744e-06 -4.4993690551109466e-08 -9.86449588680216e-09 -4.4993690551109466e-08 2.777658892227919e-06" pbc="T T T"
Bi       1.59360224       1.12684642       2.76020210      -0.00000939      -0.00000612       0.00000251
Bi       4.78081099       3.38054406       8.28060591       0.00000410       0.00000508       0.00000559
In      -0.00000012       0.00000010      -0.00000017       0.00000232      -0.00000300       0.00000446
O        1.73082032       1.22387457       5.52040356      -0.00091183      -0.00064600      -0.00000103
O        4.64359324       3.28351625       5.52040325       0.00091219       0.00064588      -0.00000284
O        3.91540049       1.22387448       4.25913629       0.00045744      -0.00064504      -0.00078511
O        2.45901313       3.28351685       6.78167083      -0.00045606       0.00064671       0.00078219
O        2.45901355       3.28351644       4.25913601      -0.00045609       0.00065011      -0.00078714
O        3.91540070       1.22387396       6.78167076       0.00045753      -0.00064749       0.00078142
