9
Lattice="4.844747327751421 -1.5166059581587392e-09 2.7971163226249693 1.6149157599648305 4.567671692300337 2.797116347778581 -9.681195968060092e-08 -3.764961752533232e-08 5.59423281293317" Properties=species:S:1:pos:R:3:forces:R:3 energy=-51.43174743652344 free_energy=-51.43174743652344 stress="-0.0001654076186241582 5.959418292178498e-09 -4.8926477091981724e-08 5.959418292178498e-09 -0.00016534076712559909 -2.5779320012020435e-08 -4.8926477091981724e-08 -2.5779320012020435e-08 -0.00016530875291209668" pbc="T T T"
Bi       1.61491613       1.14191764       2.79711614       0.00000182      -0.00000170      -0.00000198
Bi       4.84474755       3.42575398       8.39134881       0.00000235       0.00000166      -0.00000137
Ir       0.00000026       0.00000027      -0.00000003      -0.00000373      -0.00000555      -0.00000202
N        1.62870455       1.15166793       5.59423289       0.00184953       0.00130785       0.00000125
N        4.83095815       3.41600376       5.59423286      -0.00184393      -0.00130284       0.00000105
N        4.03039497       1.15166788       4.20761591      -0.00092423       0.00130558       0.00160062
N        2.42926793       3.41600367       6.98084936       0.00092244      -0.00130451      -0.00159836
N        2.42926789       3.41600377       4.20761641       0.00092214      -0.00130445       0.00159967
N        4.03039455       1.15166776       6.98084961      -0.00092608       0.00130445      -0.00159848
