9
Lattice="5.901426240692648 1.5239078766850648e-08 3.4071899701293558 1.967142095073367 5.563918257380993 3.4071899693067564 -6.657564670391246e-08 -4.808354911658337e-08 6.8143800555711165" Properties=species:S:1:pos:R:3:forces:R:3 energy=-30.629261016845703 free_energy=-30.629261016845703 stress="-5.13045015395619e-05 -3.0216471547106494e-09 3.1463136540565984e-09 -3.0216471547106494e-09 -5.129101555212401e-05 1.7251469586199164e-08 3.1463136540565984e-09 1.7251469586199164e-08 -5.128171687829308e-05" pbc="T T T"
Bi       1.96714095       1.39097863       3.40719025      -0.00000769      -0.00000763       0.00000152
Bi       5.90142596       4.17293828      10.22156873      -0.00000076      -0.00000111      -0.00000644
In       0.00000003      -0.00000033       0.00000027      -0.00000214       0.00000361      -0.00000306
Se       2.16127393       1.52825139       6.81437967      -0.00052518      -0.00037105      -0.00000200
Se       5.70729463       4.03566691       6.81438061       0.00052308       0.00037069       0.00000299
Se       4.82078982       1.52825162       5.27890849       0.00026605      -0.00037053      -0.00045416
Se       3.04777942       4.03566720       8.34985188      -0.00025899       0.00037413       0.00045338
Se       3.04777886       4.03566743       5.27890850      -0.00025988       0.00037178      -0.00044903
Se       4.82078943       1.52825176       8.34985162       0.00026548      -0.00036999       0.00045684
