9
Lattice="4.767507973959353 1.2558970519380922e-08 2.7525221030084777 1.5891693377545497 4.494849713956388 2.7525221008248235 -3.2788280431028014e-08 -2.5859226484019256e-08 5.505044262807897" Properties=species:S:1:pos:R:3:forces:R:3 energy=-52.223209381103516 free_energy=-52.223209381103516 stress="-0.00010216158261755481 7.643397914591787e-09 -2.9857489813878146e-09 7.643397914591787e-09 -0.00010217936505796388 -3.1497048524897764e-08 -2.9857489813878146e-09 -3.1497048524897764e-08 -0.00010209213360212743" pbc="T T T"
Bi       1.58916975       1.12371222       2.75252171       0.00000120      -0.00000406      -0.00000097
Bi       4.76750781       3.37113719       8.25756611       0.00000195      -0.00000056      -0.00000273
Ir       0.00000012      -0.00000007      -0.00000032      -0.00000795      -0.00000218       0.00002084
O        1.57112064       1.11095018       5.50504432       0.00075382       0.00053459       0.00000062
O        4.78555649       3.38389958       5.50504444      -0.00074813      -0.00052825      -0.00000089
O        3.98194747       1.11095001       4.11315272      -0.00037387       0.00052971       0.00064653
O        2.37472959       3.38389961       6.89693598       0.00037852      -0.00053656      -0.00065684
O        2.37472972       3.38389974       4.11315287       0.00037241      -0.00052670       0.00064588
O        3.98194751       1.11095027       6.89693599      -0.00037786       0.00053355      -0.00065267
