9
Lattice="6.449007842920286 -2.098570380134782e-07 3.7233364899815653 2.149669135762132 6.080182720523537 3.72333639879979 -4.309250549612244e-08 -1.4214544108174672e-07 7.446673054601494" Properties=species:S:1:pos:R:3:forces:R:3 energy=-27.67906379699707 free_energy=-27.67906379699707 stress="-2.111288813466672e-05 -3.125501280010212e-08 3.521500313574677e-10 -3.125501280010212e-08 -2.1088293578941375e-05 1.0567109853809598e-08 3.521500313574677e-10 1.0567109853809598e-08 -2.1088437279104255e-05" pbc="T T T"
Bi       2.14966961       1.52004578       3.72333631       0.00000152      -0.00000004      -0.00000213
Bi       6.44900737       4.56013509      11.17001019      -0.00000169      -0.00000709       0.00000399
In      -0.00000002       0.00000036       0.00000010      -0.00000008      -0.00000268      -0.00000457
Te       2.34957874       1.66140358       7.44667339       0.00056438       0.00040200      -0.00000034
Te       6.24909758       4.41877928       7.44667267      -0.00056383      -0.00039816      -0.00000250
Te       5.27421844       1.66140403       5.75813141      -0.00028170       0.00040273       0.00048845
Te       3.32445924       4.41877812       9.13521371       0.00027907      -0.00039597      -0.00048330
Te       3.32445939       4.41877929       5.75813189       0.00028250      -0.00039881       0.00048737
Te       5.27421737       1.66140391       9.13521409      -0.00028017       0.00039805      -0.00048688
