9
Lattice="4.879965669431981 -2.9097812027078118e-08 2.8174496440901926 1.6266552158442247 4.600875721160431 2.8174496092172796 -7.198110565874541e-08 -9.360877424393395e-08 5.63489941285527" Properties=species:S:1:pos:R:3:forces:R:3 energy=-55.55738830566406 free_energy=-55.55738830566406 stress="-4.740852818940766e-05 5.666183611197084e-08 4.7139067760326725e-08 5.666183611197084e-08 -4.744173202197999e-05 2.337871229940447e-09 4.7139067760326725e-08 2.337871229940447e-09 -4.760947194881737e-05" pbc="T T T"
Bi       1.62665465       1.15021886       2.81744999      -0.00000101       0.00000026       0.00000187
Bi       4.87996533       3.45065681       8.45234924      -0.00000107       0.00000020       0.00000045
Mo      -0.00000022       0.00000003       0.00000005       0.00000030      -0.00000340       0.00000286
N        1.63129506       1.15349954       5.63489938       0.00049472       0.00034916       0.00000110
N        4.87532590       3.44737597       5.63489912      -0.00049233      -0.00034928      -0.00000124
N        4.06431833       1.15349985       4.23019239      -0.00024754       0.00035131       0.00043154
N        2.44230261       3.44737597       7.03960609       0.00024772      -0.00035083      -0.00043082
N        2.44230281       3.44737564       4.23019233       0.00024676      -0.00034893       0.00042701
N        4.06431856       1.15349971       7.03960599      -0.00024754       0.00035131      -0.00043249
