9
Lattice="5.613842317391744 -1.1320986586226212e-08 3.2411534504798856 1.8712807325663936 5.292781419953508 3.241153501097332 -1.4326939105427339e-08 5.186280474129582e-08 6.482306925774728" Properties=species:S:1:pos:R:3:forces:R:3 energy=-43.93074417114258 free_energy=-43.93074417114258 stress="-5.6326534831896424e-05 -3.616090893387991e-08 -6.2583005444594164e-09 -3.616090893387991e-08 -5.6363074691034853e-05 1.8563566239748752e-09 -6.2583005444594164e-09 1.8563566239748752e-09 -5.63319590582978e-05" pbc="T T T"
Bi       1.87128099       1.32319446       3.24115355       0.00000467      -0.00000384      -0.00000002
Bi       5.61384246       3.96958736       9.72345998       0.00000154       0.00000311      -0.00000154
Mo      -0.00000017      -0.00000049      -0.00000013       0.00000184       0.00000045       0.00000041
S        1.92032305       1.35787362       6.48230688       0.00250812       0.00177155       0.00000029
S        5.56479984       3.93490805       6.48230691      -0.00251085      -0.00177424       0.00000123
S        4.65368051       1.35787368       4.90420218      -0.00125493       0.00177047       0.00217269
S        2.83144242       3.93490778       8.06041186       0.00125214      -0.00176989      -0.00217147
S        2.83144249       3.93490764       4.90420232       0.00125272      -0.00177015       0.00217180
S        4.65368054       1.35787371       8.06041206      -0.00125536       0.00177248      -0.00217341
