9
Lattice="4.731237042261584 5.824190391834337e-08 2.7315809793359977 1.5770790353277113 4.460653149962857 2.73158103765497 -1.0586661733425036e-08 6.3939958155038e-08 5.46316197700863" Properties=species:S:1:pos:R:3:forces:R:3 energy=-53.676734924316406 free_energy=-53.676734924316406 stress="-0.00018701754743233323 3.977724105652669e-08 -5.20603915532547e-09 3.977724105652669e-08 -0.00018703423847910017 2.9295687653529967e-08 -5.20603915532547e-09 2.9295687653529967e-08 -0.00018700957298278809" pbc="T T T"
Bi       1.57707845       1.11516359       2.73158097      -0.00000580       0.00000161      -0.00000001
Bi       4.73123550       3.34548905       8.19474347      -0.00001539      -0.00000687       0.00000143
Mo      -0.00000018      -0.00000004      -0.00000015      -0.00000049      -0.00000305       0.00000371
O        1.58365915       1.11981599       5.46316182      -0.00086892      -0.00061280       0.00000109
O        4.72465764       3.34083732       5.46316182       0.00087124       0.00061250       0.00000140
O        3.93940778       1.11981652       4.10306962       0.00044170      -0.00061232      -0.00075334
O        2.36890884       3.34083746       6.82325479      -0.00042903       0.00061232       0.00075084
O        2.36890926       3.34083704       4.10306913      -0.00042942       0.00061613      -0.00075442
O        3.93940793       1.11981619       6.82325462       0.00043589      -0.00060773       0.00074929
