9
Lattice="5.543404767657915 -8.846687312123836e-08 3.200486611485941 1.8478015340794478 5.226372049863705 3.2004865625251204 1.7960919426482394e-08 -4.7264232723112795e-08 6.400973191862693" Properties=species:S:1:pos:R:3:forces:R:3 energy=-42.251556396484375 free_energy=-42.251556396484375 stress="-0.00014248871593736112 -5.520253143487253e-09 -4.74180339438135e-09 -5.520253143487253e-09 -0.00014250972890295088 2.800497611588071e-09 -4.74180339438135e-09 2.800497611588071e-09 -0.0001425252266926691" pbc="T T T"
Bi       1.84780157       1.30659281       3.20048752       0.00000182       0.00000148       0.00000532
Bi       5.54340381       3.91977922       9.60145948      -0.00000753       0.00000040      -0.00000238
Mn       0.00000018      -0.00000011       0.00000014      -0.00000237      -0.00000050      -0.00000028
S        1.83221390       1.29557037       6.40097309       0.00857064       0.00605690      -0.00000178
S        5.55899262       3.93080134       6.40097341      -0.00856686      -0.00605652       0.00000124
S        4.62729777       1.29557075       4.78723011      -0.00428466       0.00605816       0.00741893
S        2.76390882       3.93080138       8.01471620       0.00428694      -0.00605819      -0.00742069
S        2.76390857       3.93080097       4.78722974       0.00428487      -0.00606146       0.00741965
S        4.62729807       1.29557079       8.01471593      -0.00428268       0.00605959      -0.00742018
