9
Lattice="5.791399731820987 -1.252048768479237e-07 3.3436660910045 1.9304664980473947 5.460183733710603 3.3436660237697637 -4.4023893731255574e-08 -1.1347497253136382e-07 6.68733225826067" Properties=species:S:1:pos:R:3:forces:R:3 energy=-38.82036590576172 free_energy=-38.82036590576172 stress="0.0002294128789799288 -2.3839314522433597e-08 2.5182334439932674e-08 -2.3839314522433597e-08 0.00022937034373171628 9.297183467538161e-09 2.5182334439932674e-08 9.297183467538161e-09 0.00022936284949537367" pbc="T T T"
Bi       1.93046706       1.36504566       3.34366582       0.00000122       0.00000022       0.00000021
Bi       5.79139995       4.09513824      10.03099971       0.00000190       0.00000289       0.00000906
Mn      -0.00000027      -0.00000008      -0.00000039       0.00000113       0.00000008       0.00000401
Se       1.92440142       1.36075712       6.68733229      -0.00823048      -0.00582068      -0.00000125
Se       5.79746480       4.09942640       6.68733173       0.00822882       0.00581948      -0.00000204
Se       4.82919895       1.36075716       5.01024651       0.00411464      -0.00581977      -0.00713024
Se       2.89266661       4.09942642       8.36441759      -0.00411547       0.00581688       0.00712335
Se       2.89266757       4.09942645       5.01024670      -0.00411545       0.00582212      -0.00712977
Se       4.82919866       1.36075660       8.36441749       0.00411367      -0.00582118       0.00712660
