9
Lattice="4.785443207923412 4.4541106819574305e-08 2.762876923964613 1.5951477760597679 4.511759040480523 2.762876927270136 1.3730343874214282e-08 1.3757236117100461e-08 5.525753824147566" Properties=species:S:1:pos:R:3:forces:R:3 energy=-53.93083190917969 free_energy=-53.93083190917969 stress="-0.00016635148494970053 -1.8580788463395947e-08 1.4428723993376025e-08 -1.8580788463395947e-08 -0.00016630084428470582 -6.689292231243371e-09 1.4428723993376025e-08 -6.689292231243371e-09 -0.00016626973228994757" pbc="T T T"
Bi       1.59514780       1.12793940       2.76287687      -0.00000053      -0.00000114      -0.00000067
Bi       4.78544347       3.38381956       8.28863065       0.00000100       0.00000118       0.00000027
Mn      -0.00000003       0.00000001       0.00000003       0.00000169       0.00000041      -0.00000224
N        1.51806542       1.07343420       5.52575376       0.00334167       0.00236288      -0.00000032
N        4.86252561       3.43832522       5.52575398      -0.00334334      -0.00236434       0.00000050
N        4.02641040       1.07343408       4.07756001      -0.00167209       0.00236484       0.00289467
N        2.35418040       3.43832514       6.97394760       0.00167036      -0.00236228      -0.00289339
N        2.35418040       3.43832485       4.07756021       0.00167015      -0.00236294       0.00289324
N        4.02641054       1.07343399       6.97394763      -0.00166944       0.00236157      -0.00289324
