9
Lattice="4.663304827890849 -4.979006956037051e-08 2.692360249875678 1.5544348546957238 4.396606023093888 2.692360320875939 -2.1245851562329457e-08 7.193413138506052e-08 5.384720536550242" Properties=species:S:1:pos:R:3:forces:R:3 energy=-52.49802780151367 free_energy=-52.49802780151367 stress="0.00027932095690630376 -4.586930657524135e-08 -3.2330031984884045e-08 -4.586930657524135e-08 0.00027948187198489904 8.05838524797764e-08 -3.2330031984884045e-08 8.05838524797764e-08 0.0002792181621771306" pbc="T T T"
Bi       1.55443438       1.09915111       2.69236043      -0.00000101       0.00000040       0.00000008
Bi       4.66330481       3.29745456       8.07708049      -0.00000164      -0.00000179      -0.00000020
Mn      -0.00000023      -0.00000009       0.00000038       0.00000533       0.00000274      -0.00000962
O        1.50629820       1.06511365       5.38472056       0.00118059       0.00083503      -0.00000102
O        4.71144223       3.33149271       5.38472086      -0.00118804      -0.00083932      -0.00000101
O        3.91015566       1.06511355       3.99685269      -0.00059089       0.00083634       0.00102690
O        2.30758427       3.33149216       6.77258819       0.00058860      -0.00082910      -0.00102109
O        2.30758383       3.33149249       3.99685230       0.00059384      -0.00083765       0.00102869
O        3.91015567       1.06511407       6.77258839      -0.00058681       0.00083286      -0.00102231
