9
Lattice="5.905443846269856 -3.8945277018810724e-08 3.4095095726976705 1.9684812331501342 5.56770576958778 3.4095095938665065 -6.538970228240922e-08 -2.0311004469302433e-08 6.819019258653623" Properties=species:S:1:pos:R:3:forces:R:3 energy=-40.32707595825195 free_energy=-40.32707595825195 stress="1.7213593309861608e-05 -5.001047131969472e-09 -1.3824333677803224e-08 -5.001047131969472e-09 1.71757819771301e-05 -2.2646380326563076e-09 -1.3824333677803224e-08 -2.2646380326563076e-09 1.724596950225532e-05" pbc="T T T"
Bi       1.96848136       1.39192618       3.40950963      -0.00000108      -0.00000109       0.00000025
Bi       5.90544351       4.17577980      10.22852953      -0.00000037       0.00000255       0.00000296
Mo      -0.00000017       0.00000020      -0.00000035       0.00000170      -0.00000228       0.00000119
Se       2.02443852       1.43149405       6.81901923       0.00090601       0.00063916      -0.00000058
Se       5.84948646       4.13621123       6.81901909      -0.00090475      -0.00064085      -0.00000005
Se       4.89322453       1.43149428       5.16272479      -0.00045050       0.00063840       0.00078080
Se       2.98070040       4.13621173       8.47531343       0.00045126      -0.00063951      -0.00078055
Se       2.98070086       4.13621162       5.16272479       0.00045130      -0.00063688       0.00077904
Se       4.89322453       1.43149376       8.47531363      -0.00045351       0.00064040      -0.00078312
