9
Lattice="5.716763486891058 -1.3053579465637326e-07 3.300575025401737 1.905587720034408 5.389816070077077 3.300575000908669 6.160798421817361e-08 1.3565676244909051e-08 6.601149944095363" Properties=species:S:1:pos:R:3:forces:R:3 energy=-30.307918548583984 free_energy=-30.307918548583984 stress="-1.205673015647335e-05 8.227840631036543e-09 -6.150668863114106e-09 8.227840631036543e-09 -1.205186163133476e-05 -9.135120215830739e-09 -6.150668863114106e-09 -9.135120215830739e-09 -1.2133934433222748e-05" pbc="T T T"
Bi       1.90558861       1.34745415       3.30057548       0.00000459       0.00000229       0.00000190
Bi       5.71676376       4.04236177       9.90172570       0.00000080      -0.00000274       0.00000443
Mg      -0.00000018       0.00000000      -0.00000055       0.00000191      -0.00000337       0.00000842
Se       2.06532261       1.46040400       6.60114931      -0.00002808      -0.00001894      -0.00000239
Se       5.55702881       3.92941216       6.60114952       0.00002787       0.00001835      -0.00000281
Se       4.68410119       1.46040336       5.08919683       0.00001130      -0.00002116      -0.00002442
Se       2.93824883       3.92941255       8.11310305      -0.00001352       0.00001695       0.00002116
Se       2.93824954       3.92941225       5.08919718      -0.00001393       0.00002338      -0.00002664
Se       4.68410190       1.46040356       8.11310339       0.00000893      -0.00001450       0.00002029
