9
Lattice="5.473568533771391 -8.834055405421143e-08 3.160166517025174 1.8245228152028057 5.160529694143205 3.1601664236665106 2.0767913381049536e-09 -1.1287206920716802e-07 6.320333030453246" Properties=species:S:1:pos:R:3:forces:R:3 energy=-33.44309616088867 free_energy=-33.44309616088867 stress="0.00040437374264001846 2.8119011119542847e-08 -2.060211379273369e-08 2.8119011119542847e-08 0.0004043910594191402 4.3540207883552284e-08 -2.060211379273369e-08 4.3540207883552284e-08 0.00040436300332657993" pbc="T T T"
Bi       1.82452428       1.29013250       3.16016655       0.00000741       0.00000082      -0.00000287
Bi       5.47356841       3.87039823       9.48049754       0.00000128       0.00000538      -0.00000879
Mg       0.00000013       0.00000059      -0.00000043      -0.00000267      -0.00001055       0.00001050
S        1.94935433       1.37840097       6.32033240      -0.00185695      -0.00131490      -0.00000194
S        5.34873645       3.78212791       6.32033338       0.00186396       0.00131948       0.00000226
S        4.49889098       1.37840090       4.84835745       0.00092798      -0.00132051      -0.00161044
S        2.79920022       3.78212742       7.79230944      -0.00093086       0.00131387       0.00161520
S        2.79919967       3.78212787       4.84835747      -0.00093476       0.00131809      -0.00161349
S        4.49889093       1.37840161       7.79231005       0.00092492      -0.00131205       0.00160946
