9
Lattice="6.354124967646751 -2.294871630434327e-07 3.668555675712954 2.118041499107671 5.990726191436546 3.668555572503563 4.371232713859292e-08 -9.5495898296475e-08 7.33711127571402" Properties=species:S:1:pos:R:3:forces:R:3 energy=-36.502716064453125 free_energy=-36.502716064453125 stress="-7.578043005196378e-05 -3.4510527768816246e-08 5.188515395104787e-09 -3.4510527768816246e-08 -7.574832125101238e-05 -8.885889357657106e-09 5.188515395104787e-09 -8.885889357657106e-09 -7.572097092634067e-05" pbc="T T T"
Bi       2.11804134       1.49768094       3.66855633      -0.00000082      -0.00000232       0.00000264
Bi       6.35412563       4.49304504      11.00566612       0.00000218       0.00000233      -0.00000377
Nb       0.00000035       0.00000018       0.00000061      -0.00000228      -0.00000029      -0.00000619
Te       2.23055619       1.57724062       7.33711117       0.00219569       0.00155208      -0.00000138
Te       6.24161020       4.41348488       7.33711161      -0.00219358      -0.00154974       0.00000032
Te       5.23884658       1.57724100       5.60027390      -0.00109649       0.00154994       0.00189871
Te       3.23331969       4.41348455       9.07394805       0.00109348      -0.00154708      -0.00189579
Te       3.23331924       4.41348471       5.60027411       0.00109491      -0.00155125       0.00189962
Te       5.23884688       1.57724157       9.07394821      -0.00109302       0.00154638      -0.00189415
