9
Lattice="6.121735293642733 3.5683004857584705e-08 3.534385410697226 2.040578487173032 5.77162793318642 3.534385372043895 -1.47045555989405e-08 -5.77380871504786e-08 7.0687708468634876" Properties=species:S:1:pos:R:3:forces:R:3 energy=-31.955665588378906 free_energy=-31.955665588378906 stress="7.425856165355071e-05 3.4411492322306e-08 5.638597144752566e-09 3.4411492322306e-08 7.421521149808541e-05 1.2224695034035449e-08 5.638597144752566e-09 1.2224695034035449e-08 7.421390910167247e-05" pbc="T T T"
Bi       2.04057882       1.44290770       3.53438538       0.00000109       0.00000257       0.00000006
Bi       6.12173494       4.32872067      10.60315502      -0.00000024      -0.00000139      -0.00000328
Ni       0.00000041       0.00000011      -0.00000041      -0.00000405      -0.00000121       0.00000528
Te       2.07623805       1.46812263       7.06877073       0.00170580       0.00120664       0.00000039
Te       6.08607553       4.30350506       7.06877141      -0.00170328      -0.00120527       0.00000107
Te       5.08361598       1.46812214       5.33246009      -0.00085342       0.00120609       0.00147717
Te       3.07869790       4.30350558       8.80508235       0.00085523      -0.00120895      -0.00147928
Te       3.07869719       4.30350559       5.33246008       0.00085305      -0.00120724       0.00147808
Te       5.08361617       1.46812222       8.80508188      -0.00085421       0.00120871      -0.00147948
