9
Lattice="4.5839056753979 5.979649269734176e-08 2.6465192461985647 1.5279685522634832 4.321748164005818 2.646519354588769 7.132472026111329e-10 1.3325471258452764e-07 5.293038491161707" Properties=species:S:1:pos:R:3:forces:R:3 energy=-44.76925277709961 free_energy=-44.76925277709961 stress="-0.00013276113895699382 -3.987101848679231e-08 -3.735920728331621e-08 -3.987101848679231e-08 -0.00013282035070005804 2.3685782224447394e-08 -3.735920728331621e-08 2.3685782224447394e-08 -0.00013280959683470428" pbc="T T T"
Bi       1.52796747       1.08043681       2.64651925      -0.00000301       0.00000009      -0.00000152
Bi       4.58390533       3.24131141       7.93955727      -0.00000285      -0.00000011      -0.00000364
Ni       0.00000002       0.00000004       0.00000002       0.00000746       0.00000021       0.00000296
O        1.46708373       1.03738473       5.29303843       0.00275309       0.00194518       0.00000093
O        4.64479089       3.28436350       5.29303877      -0.00275750      -0.00194938       0.00000066
O        3.85036431       1.03738485       3.91705116      -0.00137524       0.00194608       0.00238553
O        2.26151053       3.28436362       6.66902631       0.00137693      -0.00194484      -0.00238380
O        2.26151024       3.28436343       3.91705099       0.00137818      -0.00194664       0.00238629
O        3.85036441       1.03738509       6.66902622      -0.00137693       0.00194933      -0.00238821
