9
Lattice="5.702883672181806 -3.0945012880545634e-08 3.2925613988713156 1.9009612124739694 5.376730045069409 3.2925613684070285 -1.1550974673676076e-08 -4.5478810639856416e-08 6.585122817749581" Properties=species:S:1:pos:R:3:forces:R:3 energy=-35.03059768676758 free_energy=-35.03059768676758 stress="4.4752425310434774e-05 -1.1178855618965144e-09 -1.943663185954847e-08 -1.1178855618965144e-09 4.4749845983460546e-05 -7.949504166049337e-09 -1.943663185954847e-08 -7.949504166049337e-09 4.4741351302945986e-05" pbc="T T T"
Bi       1.90096123       1.34418279       3.29256094       0.00000011       0.00000238      -0.00000189
Bi       5.70288328       4.03254783       9.87768393      -0.00000058       0.00000197      -0.00000180
Ni      -0.00000014      -0.00000008      -0.00000015       0.00000175       0.00000092       0.00000223
Se       1.93288003       1.36675241       6.58512281      -0.00169455      -0.00120021       0.00000000
Se       5.67096505       4.00997753       6.58512285       0.00169237       0.00119661       0.00000088
Se       4.73644389       1.36675222       4.96648479       0.00084735      -0.00119884      -0.00146659
Se       2.86740139       4.00997737       8.20376146      -0.00084576       0.00119689       0.00146750
Se       2.86740123       4.00997747       4.96648448      -0.00084664       0.00119786      -0.00146741
Se       4.73644346       1.36675232       8.20376120       0.00084593      -0.00119765       0.00146694
