9
Lattice="4.859553225715683 -7.472886325501132e-09 2.805664221689396 1.619851113406479 4.581630412861478 2.805664143377483 1.5748721415276048e-07 1.5448127466388144e-08 5.611328170602936" Properties=species:S:1:pos:R:3:forces:R:3 energy=-54.35938262939453 free_energy=-54.35938262939453 stress="-0.0001676371757639572 -2.7408820102436948e-08 -1.4291768657415105e-08 -2.7408820102436948e-08 -0.00016788650827948004 1.1635741259397037e-09 -1.4291768657415105e-08 1.1635741259397037e-09 -0.00016755146498326212" pbc="T T T"
Bi       1.61985137       1.14540820       2.80566368       0.00000141      -0.00000087      -0.00000078
Bi       4.85955262       3.43622252       8.41699189      -0.00000169       0.00000082      -0.00000250
Nb      -0.00000009      -0.00000019      -0.00000023      -0.00000058       0.00000116      -0.00000108
N        1.70864717       1.20819551       5.61132821      -0.00225616      -0.00159484       0.00000093
N        4.77075771       3.37343479       5.61132865       0.00225604       0.00159484       0.00000027
N        4.00522971       1.20819582       4.28539607       0.00112909      -0.00159550      -0.00195491
N        2.47417506       3.37343422       6.93726114      -0.00112885       0.00159365       0.00195611
N        2.47417470       3.37343474       4.28539572      -0.00112706       0.00159484      -0.00195229
N        4.00522973       1.20819616       6.93726088       0.00112802      -0.00159431       0.00195408
