9
Lattice="4.7665655971550285 1.609265444277938e-08 2.751977950284143 1.5888551862865845 4.493961263357989 2.7519779986731234 -1.505062826843469e-08 4.8621756247846603e-08 5.50395592663674" Properties=species:S:1:pos:R:3:forces:R:3 energy=-58.19362258911133 free_energy=-58.19362258911133 stress="-0.00014901647227816284 2.2416458023144514e-08 -7.821320258116771e-10 2.2416458023144514e-08 -0.00014900720270816237 5.50765584250712e-08 -7.821320258116771e-10 5.50765584250712e-08 -0.00014902649854775518" pbc="T T T"
Bi       1.58885432       1.12349054       2.75197752      -0.00000669       0.00000142      -0.00000497
Bi       4.76656477       3.37047098       8.25593286      -0.00000883      -0.00000039      -0.00001054
Nb      -0.00000011       0.00000013       0.00000002      -0.00000401      -0.00000448      -0.00000322
O        1.61289470       1.14048836       5.50395587      -0.00033355      -0.00023919       0.00000089
O        4.74252620       3.35347266       5.50395677       0.00034320       0.00024086       0.00000546
O        3.96011925       1.14048867       4.14878607       0.00017285      -0.00023627      -0.00028563
O        2.39530267       3.35347238       6.85912654      -0.00016701       0.00023657       0.00029451
O        2.39530260       3.35347268       4.14878526      -0.00016528       0.00023520      -0.00028753
O        3.96011879       1.14048894       6.85912655       0.00016856      -0.00023377       0.00029075
