9
Lattice="4.744760217153532 3.945429026961265e-08 2.7393886654186757 1.581586746929464 4.473403143043207 2.7393887162016974 -3.551637956240028e-08 3.7082380272998444e-08 5.478777392353574" Properties=species:S:1:pos:R:3:forces:R:3 energy=-47.276695251464844 free_energy=-47.276695251464844 stress="-4.620017352863215e-05 3.1411772738465515e-08 -2.0657875410279303e-08 3.1411772738465515e-08 -4.612013071891852e-05 4.6035751211093157e-08 -2.0657875410279303e-08 4.6035751211093157e-08 -4.61656236439012e-05" pbc="T T T"
Bi       1.58158660       1.11835067       2.73938859      -0.00000092       0.00000027      -0.00000031
Bi       4.74476022       3.35505244       8.21816624       0.00000048      -0.00000086      -0.00000050
Ni      -0.00000007       0.00000017       0.00000004       0.00000215      -0.00000145      -0.00000181
N        1.54201324       1.09036821       5.47877734       0.00112471       0.00079519       0.00000017
N        4.78433374       3.38303506       5.47877736      -0.00112551      -0.00079551      -0.00000013
N        3.97375383       1.09036823       4.07481147      -0.00056320       0.00079706       0.00097618
N        2.35259328       3.38303500       6.88274325       0.00056218      -0.00079533      -0.00097388
N        2.35259325       3.38303512       4.07481142       0.00056364      -0.00079536       0.00097594
N        3.97375359       1.09036801       6.88274326      -0.00056373       0.00079596      -0.00097558
