9
Lattice="5.619414152260307 3.826592199592662e-08 3.2443702418857336 1.8731380429827016 5.298034597868967 3.2443703178330843 -8.709107034758344e-08 3.143343291241462e-08 6.48874063461754" Properties=species:S:1:pos:R:3:forces:R:3 energy=-44.539432525634766 free_energy=-44.539432525634766 stress="-3.735292557394132e-05 2.88362378420004e-09 -1.6416322745627099e-09 2.88362378420004e-09 -3.736211147042923e-05 2.5030827188743388e-08 -1.6416322745627099e-09 2.5030827188743388e-08 -3.735478094313294e-05" pbc="T T T"
Bi       1.87313793       1.32450935       3.24437019      -0.00000187       0.00000379      -0.00000156
Bi       5.61941394       3.97352750       9.73311184      -0.00000177       0.00001101       0.00000522
Nb      -0.00000058      -0.00000008      -0.00000015       0.00000700       0.00000133       0.00000154
S        1.94847701       1.37778104       6.48874065       0.00037291       0.00025945      -0.00000104
S        5.54407586       3.92025299       6.48874019      -0.00037589      -0.00027030      -0.00000090
S        4.64517593       1.37778061       4.93180075      -0.00018825       0.00026214       0.00032598
S        2.84737626       3.92025352       8.04568046       0.00018851      -0.00026512      -0.00032357
S        2.84737673       3.92025344       4.93180056       0.00018895      -0.00026653       0.00032229
S        4.64517538       1.37778035       8.04568030      -0.00018980       0.00026436      -0.00032805
