9
Lattice="4.846629808082696 -1.1596120787767845e-07 2.798203026475019 1.615543246395004 4.569446072514072 2.798202876889288 1.0409601926773347e-07 -1.0959737985809899e-07 5.596405872650506" Properties=species:S:1:pos:R:3:forces:R:3 energy=-55.593605041503906 free_energy=-55.593605041503906 stress="-7.539730722783133e-05 -3.596965214569536e-08 1.6835292271366598e-08 -3.596965214569536e-08 -7.526471745222807e-05 -3.3441992286498134e-08 1.6835292271366598e-08 -3.3441992286498134e-08 -7.505874236812815e-05" pbc="T T T"
Bi       1.61554309       1.14236148       2.79820279      -0.00000119       0.00000036      -0.00000080
Bi       4.84662957       3.42708459       8.39460899      -0.00000080      -0.00000008       0.00000016
Os       0.00000007       0.00000001       0.00000003      -0.00000026      -0.00000413      -0.00000570
N        1.57837632       1.11608009       5.59640582      -0.00021207      -0.00015092      -0.00000032
N        4.88379684       3.45336570       5.59640584       0.00021517       0.00015235      -0.00000110
N        4.05744201       1.11608016       4.16511682       0.00010687      -0.00014985      -0.00018263
N        2.40473157       3.45336531       7.02769521      -0.00010985       0.00015450       0.00019038
N        2.40473163       3.45336557       4.16511677      -0.00010788       0.00015295      -0.00018966
N        4.05744157       1.11608036       7.02769494       0.00011045      -0.00015581       0.00018919
