9
Lattice="4.68851298905447 -2.4153527646711834e-07 2.7069144359143187 1.5628374921408248 4.420372412117464 2.7069143374570768 -1.1428663435608174e-07 -2.0139785981371552e-07 5.413829069778878" Properties=species:S:1:pos:R:3:forces:R:3 energy=-51.8947868347168 free_energy=-51.8947868347168 stress="-1.5741521565360017e-05 9.468141826118881e-08 1.0460765587083642e-08 9.468141826118881e-08 -1.5776910004206002e-05 1.4388651159435994e-08 1.0460765587083642e-08 1.4388651159435994e-08 -1.575592250446789e-05" pbc="T T T"
Bi       1.56283770       1.10509292       2.70691465      -0.00000028       0.00000017       0.00000010
Bi       4.68851278       3.31527904       8.12074331      -0.00000098      -0.00000114      -0.00000108
P       -0.00000006      -0.00000015      -0.00000021      -0.00000163      -0.00000409      -0.00000007
N        1.47509614       1.04304999       5.41382889      -0.00003958      -0.00002742      -0.00000002
N        4.77625424       3.37732186       5.41382883       0.00004125       0.00002897       0.00000101
N        3.95096493       1.04305016       3.98438481       0.00002134      -0.00002694      -0.00003242
N        2.30038541       3.37732162       6.84327312      -0.00002098       0.00002933       0.00003242
N        2.30038551       3.37732208       3.98438487      -0.00002086       0.00002909      -0.00003171
N        3.95096486       1.04305012       6.84327305       0.00002146      -0.00002706       0.00003147
