9
Lattice="5.897777919760948 5.360641403866324e-08 3.4050834914893935 1.9659259935846238 5.560478638203756 3.4050835438140448 -4.9823371725781377e-08 2.8853876290725e-08 6.810167069275454" Properties=species:S:1:pos:R:3:forces:R:3 energy=-30.32529067993164 free_energy=-30.32529067993164 stress="0.0001488042762503028 3.9417631825244825e-08 -5.875440578506641e-09 3.9417631825244825e-08 0.00014875018678139895 -1.1030881097440215e-08 -5.875440578506641e-09 -1.1030881097440215e-08 0.000148797407746315" pbc="T T T"
Bi       1.96592805       1.39012170       3.40508393       0.00001165       0.00000978       0.00000270
Bi       5.89777854       4.17035887      10.21525260       0.00000311      -0.00000098       0.00001134
Pb       0.00000003       0.00000027       0.00000043      -0.00000243      -0.00000266      -0.00000148
Se       2.27127712       1.60603576       6.81016743       0.00805769       0.00569866       0.00000086
Se       5.59242620       3.95444219       6.81016642      -0.00805451      -0.00569778      -0.00000330
Se       4.76213805       1.60603639       5.37206622      -0.00403491       0.00569990       0.00697457
Se       3.10156419       3.95444239       8.24826605       0.00402547      -0.00570096      -0.00697938
Se       3.10156472       3.95444199       5.37206698       0.00402774      -0.00570212       0.00697533
Se       4.76213853       1.60603527       8.24826635      -0.00403384       0.00569611      -0.00698088
