9
Lattice="4.887001101292052 -2.357934653518008e-08 2.8215115976744767 1.6290003517267202 4.607508921132729 2.8215115857922703 5.709958737284866e-08 2.582286154195622e-08 5.643023096449534" Properties=species:S:1:pos:R:3:forces:R:3 energy=-44.001216888427734 free_energy=-44.001216888427734 stress="-0.000501552945934236 -7.271147950405066e-08 -8.934011169747791e-11 -7.271147950405066e-08 -0.000501528731547296 -7.074729069245222e-08 -8.934011169747791e-11 -7.074729069245222e-08 -0.0005014371708966792" pbc="T T T"
Bi       1.62900013       1.15187736       2.82151135       0.00000024       0.00000198      -0.00000313
Bi       4.88700107       3.45563129       8.46453586      -0.00000129      -0.00000370       0.00000726
Pb      -0.00000004       0.00000004      -0.00000012       0.00000443      -0.00000755       0.00000449
O        1.67154893       1.18196390       5.64302333      -0.00525382      -0.00371343       0.00000169
O        4.84445254       3.42554514       5.64302244       0.00525475       0.00371325      -0.00000393
O        4.05122681       1.18196424       4.26911568       0.00262946      -0.00371234      -0.00455131
O        2.46477491       3.42554506       7.01693035      -0.00263083       0.00371617       0.00455271
O        2.46477556       3.42554505       4.26911577      -0.00262886       0.00372139      -0.00455759
O        4.05122613       1.18196365       7.01693041       0.00262581      -0.00371626       0.00454909
