9
Lattice="4.976770046810588 -8.101194969886437e-09 2.873339361218559 1.6589233734578588 4.6921436041529905 2.873339305517753 -1.162807221488856e-08 -7.644158838596604e-08 5.746678742577518" Properties=species:S:1:pos:R:3:forces:R:3 energy=-41.08542251586914 free_energy=-41.08542251586914 stress="-0.0002673802664503455 2.2957996392847235e-08 9.170123149715437e-08 2.2957996392847235e-08 -0.0002672900736797601 2.0164245384535207e-08 9.170123149715437e-08 2.0164245384535207e-08 -0.0002673777053132653" pbc="T T T"
Bi       1.65892364       1.17303528       2.87333926      -0.00000033      -0.00000485      -0.00000040
Bi       4.97677014       3.51910781       8.62001630       0.00000139       0.00000290      -0.00001503
Pb       0.00000015       0.00000025      -0.00000015      -0.00000169      -0.00000789      -0.00000900
N        1.75476935       1.24080908       5.74667858      -0.00460309      -0.00325722      -0.00000158
N        4.88092381       3.45133447       5.74667996       0.00460750       0.00326231       0.00000860
N        4.09938508       1.24080866       4.39301449       0.00229871      -0.00325930      -0.00398290
N        2.53630859       3.45133422       7.10034310      -0.00230020       0.00325927       0.00399387
N        2.53630768       3.45133456       4.39301475      -0.00230607       0.00325978      -0.00398654
N        4.09938526       1.24080976       7.10034345       0.00230366      -0.00325540       0.00399256
