9
Lattice="6.581012530484634 -1.818724303455844e-07 3.799548986627368 2.1936706598246536 6.204637744324386 3.799549007757118 -1.7540520506682127e-07 -9.815164429005338e-08 7.599098277065367" Properties=species:S:1:pos:R:3:forces:R:3 energy=-27.834871292114258 free_energy=-27.834871292114258 stress="0.00024115832638926804 2.5636406775220166e-08 1.8733125273229234e-08 2.5636406775220166e-08 0.00024120358284562826 -1.678578054331581e-09 1.8733125273229234e-08 -1.678578054331581e-09 0.00024119486624840647" pbc="T T T"
Bi       2.19366968       1.55116033       3.79954898      -0.00000442       0.00000320      -0.00000095
Bi       6.58101311       4.65347733      11.39864771       0.00000337      -0.00000269       0.00000100
Pb       0.00000013      -0.00000015       0.00000013      -0.00000045       0.00000069      -0.00000022
Te       2.50004377       1.76779905       7.59909839       0.00467390       0.00330827       0.00000030
Te       6.27463925       4.43683814       7.59909752      -0.00467303      -0.00330830      -0.00000070
Te       5.33099103       1.76779842       5.96465133      -0.00233538       0.00330738       0.00404947
Te       3.44369207       4.43683911       9.23354505       0.00233565      -0.00330787      -0.00404957
Te       3.44369222       4.43683944       5.96465117       0.00233565      -0.00330640       0.00405004
Te       5.33099076       1.76779822       9.23354479      -0.00233521       0.00330572      -0.00404928
