9
Lattice="4.8188560764737485 -1.0485656786416884e-07 2.7821679471091203 1.6062853025111654 4.543260949292076 2.782167873416711 9.846265196609112e-09 -8.329198852188556e-08 5.564335877164047" Properties=species:S:1:pos:R:3:forces:R:3 energy=-45.7230339050293 free_energy=-45.7230339050293 stress="-0.00040632826858200133 -3.811215876226015e-08 4.8794581708477835e-09 -3.811215876226015e-08 -0.0004064110980834812 -6.205552516291846e-09 4.8794581708477835e-09 -6.205552516291846e-09 -0.0004062828083988279" pbc="T T T"
Bi       1.60628499       1.13581485       2.78216821      -0.00000207      -0.00000089       0.00000071
Bi       4.81885635       3.40744548       8.34650368       0.00000158      -0.00000056       0.00000052
Pd      -0.00000000      -0.00000021       0.00000023      -0.00000214       0.00000906      -0.00000237
N        1.62803312       1.15119344       5.56433578      -0.00324714      -0.00229499      -0.00000024
N        4.79710816       3.39206758       5.56433586       0.00324351       0.00229329       0.00000091
N        4.00483955       1.15119329       4.19208629       0.00162473      -0.00229868      -0.00281423
N        2.42030179       3.39206796       6.93658525      -0.00162163       0.00229555       0.00280982
N        2.42030170       3.39206760       4.19208618      -0.00162342       0.00229374      -0.00280887
N        4.00483985       1.15119323       6.93658547       0.00162628      -0.00229648       0.00281394
