9
Lattice="5.529342262280919 1.327465720134284e-07 3.1923672082369747 1.8431141742600836 5.213114038569974 3.1923672746118315 3.658465693236513e-08 1.0716155865984801e-07 6.38473435310741" Properties=species:S:1:pos:R:3:forces:R:3 energy=-37.89304733276367 free_energy=-37.89304733276367 stress="-0.0001705498871160671 1.7956446995981423e-08 1.1768727326000317e-08 1.7956446995981423e-08 -0.00017059202946256846 -8.041096677402493e-09 1.1768727326000317e-08 -8.041096677402493e-09 -0.00017059658421203494" pbc="T T T"
Bi       1.84311415       1.30327806       3.19236693      -0.00000002      -0.00000215      -0.00000338
Bi       5.52934258       3.90983539       9.57710051       0.00000119      -0.00000323      -0.00000480
P       -0.00000008       0.00000010      -0.00000006       0.00000005       0.00000010       0.00000432
S        1.78699177       1.26359415       6.38473446       0.00832754       0.00588861       0.00000218
S        5.58546449       3.94952059       6.38473464      -0.00832957      -0.00588718       0.00000303
S        4.63584647       1.26359404       4.73994766      -0.00416341       0.00588864       0.00721478
S        2.73660988       3.94952022       8.02952170       0.00416705      -0.00589189      -0.00721654
S        2.73660992       3.94952002       4.73994795       0.00416252      -0.00588682       0.00721416
S        4.63584670       1.26359458       8.02952159      -0.00416511       0.00589406      -0.00721392
