9
Lattice="5.501119301900092 -3.3478242345810055e-07 3.176072264376771 1.8337062299595301 5.1865042649561675 3.176072071030105 -2.2137101598675734e-08 -2.524535959932884e-07 6.352144567096178" Properties=species:S:1:pos:R:3:forces:R:3 energy=-36.902061462402344 free_energy=-36.902061462402344 stress="-6.690908048767596e-05 2.078195926458193e-08 -3.892847377784392e-09 2.078195926458193e-08 -6.691300222883001e-05 8.633049830564232e-09 -3.892847377784392e-09 8.633049830564232e-09 -6.694522016914561e-05" pbc="T T T"
Bi       1.83370752       1.29662695       3.17607273       0.00000703       0.00000623       0.00000350
Bi       5.50112023       3.88987656       9.52821538       0.00000494      -0.00000692      -0.00000855
Pd       0.00000001       0.00000047      -0.00000048      -0.00000100      -0.00000835       0.00000403
S        1.92908762       1.36407136       6.35214439       0.00163794       0.00116199      -0.00000109
S        5.40573721       3.82243275       6.35214504      -0.00163949      -0.00115880       0.00000353
S        4.53657467       1.36407073       4.84671090      -0.00082204       0.00116110       0.00142050
S        2.79824997       3.82243267       7.85757841       0.00081870      -0.00116009      -0.00141889
S        2.79824956       3.82243224       4.84671063       0.00081572      -0.00116003       0.00141788
S        4.53657520       1.36407092       7.85757856      -0.00082201       0.00116453      -0.00142026
