9
Lattice="5.828981011885572 1.4882162907734916e-08 3.365363884340793 1.9429936780027839 5.495616124577815 3.365363895870654 -4.932330951225623e-08 -2.0755740303616767e-08 6.730727854112088" Properties=species:S:1:pos:R:3:forces:R:3 energy=-34.38251876831055 free_energy=-34.38251876831055 stress="-1.790180067473557e-05 4.086085780841131e-08 -1.3484302563426809e-08 4.086085780841131e-08 -1.7696296708891168e-05 -1.0442433584501032e-09 -1.3484302563426809e-08 -1.0442433584501032e-09 -1.7779739209800027e-05" pbc="T T T"
Bi       1.94299308       1.37390396       3.36536380      -0.00000561      -0.00000011      -0.00000112
Bi       5.82898139       4.12171189      10.09609121       0.00000283      -0.00000209      -0.00000503
Pd      -0.00000016       0.00000011      -0.00000039       0.00000258       0.00000013       0.00000575
Se       2.02891097       1.43465677       6.73072789      -0.00055286      -0.00039062      -0.00000027
Se       5.74306383       4.06095941       6.73072811       0.00055233       0.00039110       0.00000089
Se       4.81452547       1.43465692       5.12245244       0.00027834      -0.00039209      -0.00047980
Se       2.95744921       4.06095934       8.33900332      -0.00027680       0.00039114       0.00047906
Se       2.95744909       4.06095929       5.12245263      -0.00027774       0.00039364      -0.00047907
Se       4.81452564       1.43465685       8.33900342       0.00027695      -0.00039114       0.00047959
