9
Lattice="4.809900861930314 -2.674003259516321e-08 2.7769976224011725 1.6033003347275903 4.534817546446009 2.7769974966053605 1.4063481359785888e-07 -5.462396203517755e-08 5.5539950012157" Properties=species:S:1:pos:R:3:forces:R:3 energy=-47.27815628051758 free_energy=-47.27815628051758 stress="-0.00047141595860011876 1.784763981049764e-08 5.281185266881039e-09 1.784763981049764e-08 -0.00047137291403487325 -2.8893272219221444e-09 5.281185266881039e-09 -2.8893272219221444e-09 -0.00047136290231719613" pbc="T T T"
Bi       1.60329978       1.13370402       2.77699759      -0.00000058      -0.00000100      -0.00000073
Bi       4.80990080       3.40111334       8.33099286      -0.00000107       0.00000184       0.00000177
Pt      -0.00000013       0.00000009      -0.00000013       0.00000576      -0.00000832       0.00000147
N        1.63628321       1.15702627       5.55399527       0.00189143       0.00133836       0.00000025
N        4.77691831       3.37779097       5.55399451      -0.00189263      -0.00133848      -0.00000038
N        3.99175959       1.15702670       4.19406024      -0.00094724       0.00133920       0.00164020
N        2.42144194       3.37779109       6.91393005       0.00094691      -0.00133663      -0.00163805
N        2.42144237       3.37779099       4.19406010       0.00094455      -0.00133461       0.00163615
N        3.99175960       1.15702622       6.91392984      -0.00094721       0.00133926      -0.00164032
