9
Lattice="5.684315817614968 -6.388936969983776e-08 3.2818410947619 1.8947718879996565 5.359224540223877 3.281841079121293 -1.681079318317996e-07 -1.3802604176337535e-07 6.563682480695348" Properties=species:S:1:pos:R:3:forces:R:3 energy=-33.058860778808594 free_energy=-33.058860778808594 stress="4.561756213661283e-05 -1.9603161316439355e-09 -7.913467214848424e-09 -1.9603161316439355e-09 4.5597531425300986e-05 7.121452316738441e-09 -7.913467214848424e-09 7.121452316738441e-09 4.563742913887836e-05" pbc="T T T"
Bi       1.89477185       1.33980698       3.28184080      -0.00000003       0.00000468      -0.00000339
Bi       5.68431509       4.01941930       9.84552537      -0.00000133       0.00000742       0.00001599
Pb      -0.00000004       0.00000003      -0.00000070       0.00000009       0.00000017       0.00001022
S        2.07952339       1.47044458       6.56368250      -0.00146893      -0.00104202       0.00000029
S        5.49956462       3.88877917       6.56368144       0.00147093       0.00103689      -0.00000503
S        4.64455427       1.47044539       5.08276145       0.00073844      -0.00104157      -0.00127792
S        2.93453295       3.88877884       8.04460341      -0.00073632       0.00103554       0.00127105
S        2.93453424       3.88877936       5.08276078      -0.00073322       0.00104084      -0.00127856
S        4.64455373       1.47044369       8.04460360       0.00073062      -0.00104214       0.00126728
