9
Lattice="5.823938085780923 -1.6477287480122195e-07 3.3624521916191106 1.9413125533563662 5.490861315178699 3.362452168331022 -9.562024436287172e-09 -3.528334105921573e-08 6.724904399800141" Properties=species:S:1:pos:R:3:forces:R:3 energy=-35.97548294067383 free_energy=-35.97548294067383 stress="-4.833359707845375e-05 4.201974324047342e-09 -2.3480053457092254e-08 4.201974324047342e-09 -4.833954881178215e-05 1.4348638721628504e-08 -2.3480053457092254e-08 1.4348638721628504e-08 -4.8303743824362755e-05" pbc="T T T"
Bi       1.94131238       1.37271524       3.36245219      -0.00000068       0.00000061       0.00000055
Bi       5.82393807       4.11814584      10.08735586       0.00000040      -0.00000037      -0.00000102
Pt       0.00000009       0.00000006       0.00000020       0.00000165      -0.00000034      -0.00000368
Se       2.00368244       1.41681711       6.72490429       0.00325719       0.00230200      -0.00000092
Se       5.76156837       4.07404397       6.72490475      -0.00325865      -0.00230431       0.00000118
Se       4.82209702       1.41681701       5.09769190      -0.00162978       0.00230376       0.00282125
Se       2.94315357       4.07404394       8.35211700       0.00162873      -0.00230154      -0.00281864
Se       2.94315344       4.07404409       5.09769188       0.00162886      -0.00230382       0.00282174
Se       4.82209715       1.41681722       8.35211699      -0.00162779       0.00230379      -0.00282058
