9
Lattice="5.551897486960427 5.718075862200425e-08 3.2053895311963547 1.8506325360191682 5.234379175091825 3.2053895546566897 -7.042443058025511e-08 -2.1064696203239973e-08 6.4107791843714095" Properties=species:S:1:pos:R:3:forces:R:3 energy=-38.94319534301758 free_energy=-38.94319534301758 stress="-0.0002859663509298116 1.3211696181514299e-09 4.919291285432337e-08 1.3211696181514299e-09 -0.0002859552332665771 -7.990968775573037e-09 4.919291285432337e-08 -7.990968775573037e-09 -0.0002859567466657609" pbc="T T T"
Bi       1.85063291       1.30859578       3.20538944       0.00000234       0.00000428      -0.00000084
Bi       5.55189769       3.92578495       9.61616921      -0.00000019       0.00000298       0.00000246
Pt      -0.00000007      -0.00000011      -0.00000003       0.00000026      -0.00000216       0.00000017
S        1.90063171       1.34394948       6.41077919       0.00205725       0.00145370      -0.00000093
S        5.50189839       3.89042921       6.41077882      -0.00205541      -0.00145635       0.00000022
S        4.60158148       1.34394968       4.85138479      -0.00102925       0.00145417       0.00178084
S        2.80094812       3.89042919       7.97017354       0.00102806      -0.00145558      -0.00177976
S        2.80094868       3.89042936       4.85138490       0.00102714      -0.00145394       0.00177842
S        4.60158087       1.34394933       7.97017335      -0.00103030       0.00145268      -0.00178072
