9
Lattice="4.673829594744535 8.435036626047199e-09 2.6984367004643213 1.557943197886337 4.406528953628745 2.698436714865364 5.356514411712576e-09 2.1425233571518358e-08 5.396873391650849" Properties=species:S:1:pos:R:3:forces:R:3 energy=-47.21112823486328 free_energy=-47.21112823486328 stress="-0.00018846869352273643 3.123452785303016e-08 5.882190379224994e-08 3.123452785303016e-08 -0.0001884661614894867 -5.765141253277761e-08 5.882190379224994e-08 -5.765141253277761e-08 -0.00018854036170523614" pbc="T T T"
Bi       1.55794279       1.10163096       2.69843684       0.00000119      -0.00000613       0.00000160
Bi       4.67382948       3.30489716       8.09531065      -0.00000214      -0.00000081       0.00000168
Pd      -0.00000017      -0.00000009       0.00000051       0.00000263       0.00000253      -0.00002384
O        1.59449618       1.12747880       5.39687341       0.00253344       0.00179130       0.00000024
O        4.63727686       3.27905055       5.39687303      -0.00253665      -0.00179075      -0.00000061
O        3.87658141       1.12747871       4.07931040      -0.00127229       0.00179815       0.00220479
O        2.35519151       3.27905062       6.71443590       0.00126711      -0.00178747      -0.00219634
O        2.35519146       3.27905040       4.07931046       0.00127056      -0.00179562       0.00220282
O        3.87658157       1.12747916       6.71443613      -0.00126365       0.00178859      -0.00219072
