9
Lattice="4.697248276036947 -3.7350734764747345e-08 2.711957440146783 1.565749392012894 4.428608143380201 2.7119574368873813 -5.3511740058127874e-08 -4.18304004430822e-08 5.423914972978624" Properties=species:S:1:pos:R:3:forces:R:3 energy=-48.66855239868164 free_energy=-48.66855239868164 stress="8.263488416559994e-05 -1.476865776339764e-07 4.5654299896114026e-08 -1.476865776339764e-07 8.271434489870444e-05 -3.221540012532387e-08 4.5654299896114026e-08 -3.221540012532387e-08 8.270718535641208e-05" pbc="T T T"
Bi       1.56574875       1.10715222       2.71195779      -0.00000137       0.00000042       0.00000147
Bi       4.69724882       3.32145596       8.13587168       0.00000164       0.00000025      -0.00000262
Pt      -0.00000012       0.00000005       0.00000016       0.00001032       0.00000877       0.00000320
O        1.61251493       1.14022046       5.42391480       0.00121537       0.00086144      -0.00000120
O        4.65048294       3.28838769       5.42391535      -0.00122610      -0.00086832       0.00000030
O        3.89099067       1.14022051       4.10843682      -0.00060691       0.00085849       0.00105381
O        2.37200702       3.28838763       6.73939305       0.00060800      -0.00086021      -0.00105610
O        2.37200664       3.28838734       4.10843668       0.00060476      -0.00085855       0.00105315
O        3.89099079       1.14022055       6.73939283      -0.00060509       0.00085753      -0.00105214
