9
Lattice="4.834476884162964 -1.336540404052024e-07 2.7911866834186765 1.6114921976137913 4.557988439307436 2.791186633357177 -3.1594801680494185e-08 -8.36535172265899e-08 5.582373421561155" Properties=species:S:1:pos:R:3:forces:R:3 energy=-52.05143356323242 free_energy=-52.05143356323242 stress="-0.0001607025769772008 4.50160406728628e-08 -1.7040118649447322e-08 4.50160406728628e-08 -0.0001606848818482831 -1.8552178682185172e-09 -1.7040118649447322e-08 -1.8552178682185172e-09 -0.00016082207730505615" pbc="T T T"
Bi       1.61149190       1.13949724       2.79118671       0.00000057       0.00000091       0.00000001
Bi       4.83447724       3.41849069       8.37356053       0.00000033      -0.00000255       0.00000285
Ru      -0.00000029       0.00000017       0.00000030       0.00000105      -0.00000129       0.00000100
N        1.56693001       1.10798718       5.58237360       0.00716138       0.00506508      -0.00000017
N        4.87903901       3.45000104       5.58237277      -0.00716138      -0.00506538      -0.00000243
N        4.05101205       1.10798698       4.14818764      -0.00358224       0.00506759       0.00620592
N        2.39495688       3.45000116       7.01655865       0.00357956      -0.00506598      -0.00620437
N        2.39495737       3.45000127       4.14818808       0.00358188      -0.00506514       0.00620365
N        4.05101190       1.10798690       7.01655890      -0.00358182       0.00506657      -0.00620544
