9
Lattice="4.822660070371202 -1.5209241644953412e-09 2.784364164089586 1.6075533845830605 4.546847517508197 2.7843641134676456 -1.2769445523403606e-08 -7.102833707020565e-08 5.568728350296522" Properties=species:S:1:pos:R:3:forces:R:3 energy=-49.300880432128906 free_energy=-49.300880432128906 stress="-6.91863097017631e-05 5.953940984682049e-08 -3.444103668925891e-09 5.953940984682049e-08 -6.921182648511603e-05 -2.4835260514777246e-09 -3.444103668925891e-09 -2.4835260514777246e-09 -6.914335972396657e-05" pbc="T T T"
Bi       1.60755350       1.13671146       2.78436444      -0.00000002      -0.00000065      -0.00000008
Bi       4.82266035       3.41013564       8.35309313       0.00000225      -0.00000008       0.00000327
Rh      -0.00000012      -0.00000008      -0.00000038       0.00000168       0.00000351       0.00001948
N        1.61396920       1.14124898       5.56872827       0.00136298       0.00096422      -0.00000012
N        4.81624427       3.40559888       5.56872774      -0.00136709      -0.00096595      -0.00000157
N        4.01567556       1.14124873       4.18210246      -0.00068030       0.00096303       0.00117892
N        2.41453733       3.40559908       6.95535406       0.00068620      -0.00097132      -0.00119078
N        2.41453820       3.40559899       4.18210257       0.00068152      -0.00096285       0.00118053
N        4.01567541       1.14124799       6.95535421      -0.00068736       0.00096977      -0.00118929
