9
Lattice="5.526866792368619 1.583491219613367e-08 3.1909380108164975 1.8422889237314133 5.210780024527151 3.190938048899799 9.938689811232298e-08 1.1691949504093988e-07 6.381875849489853" Properties=species:S:1:pos:R:3:forces:R:3 energy=-40.2025032043457 free_energy=-40.2025032043457 stress="-0.00010972321615554392 4.362276229130657e-08 1.8317601657713567e-08 4.362276229130657e-08 -0.00010975423356285319 -1.9488631153308233e-08 1.8317601657713567e-08 -1.9488631153308233e-08 -0.00010976751946145669" pbc="T T T"
Bi       1.84228878       1.30269495       3.19093777      -0.00000021      -0.00000034      -0.00000089
Bi       5.52686677       3.90808554       9.57281411      -0.00000068       0.00000276       0.00000004
Rh       0.00000005      -0.00000010      -0.00000032      -0.00000014       0.00000032       0.00000530
S        1.90068541       1.34398723       6.38187573       0.00056094       0.00039542      -0.00000026
S        5.46847040       3.86679297       6.38187613      -0.00056118      -0.00039595       0.00000041
S        4.57652470       1.34398714       4.83697937      -0.00027958       0.00039661       0.00048709
S        2.79263103       3.86679292       7.92677298       0.00028172      -0.00040096      -0.00048923
S        2.79263156       3.86679295       4.83697925       0.00028068      -0.00039595       0.00048620
S        4.57652453       1.34398701       7.92677283      -0.00028181       0.00039825      -0.00048858
