9
Lattice="5.4948517984430705 -1.481821322016063e-07 3.172454108644459 1.8316170615193956 5.180596158782825 3.1724542210906685 -1.7413546835511588e-07 1.4585534757757361e-08 6.344908518900451" Properties=species:S:1:pos:R:3:forces:R:3 energy=-41.921653747558594 free_energy=-41.921653747558594 stress="5.079095353721641e-05 2.2347238726183605e-08 7.430597914748205e-09 2.2347238726183605e-08 5.081011477159336e-05 -2.4367064810348893e-08 7.430597914748205e-09 -2.4367064810348893e-08 5.082287316326983e-05" pbc="T T T"
Bi       1.83161657       1.29514828       3.17245419      -0.00000385      -0.00000315      -0.00000081
Bi       5.49485132       3.88544766       9.51736126      -0.00000204       0.00000341      -0.00000854
Ru      -0.00000014      -0.00000009      -0.00000047      -0.00000089      -0.00000044      -0.00000067
S        1.91037890       1.35084167       6.34490873       0.00360942       0.00254932       0.00000187
S        5.41608951       3.82975421       6.34490908      -0.00360614      -0.00254881       0.00000309
S        4.53966242       1.35084142       4.82689082      -0.00180322       0.00254938       0.00312775
S        2.78680681       3.82975441       7.86292625       0.00180522      -0.00255176      -0.00312370
S        2.78680658       3.82975446       4.82689139       0.00180295      -0.00254872       0.00312489
S        4.53966263       1.35084208       7.86292611      -0.00180155       0.00255078      -0.00312442
