9
Lattice="5.808775831866604 2.2478379279913343e-08 3.353698436382002 1.936258649413219 5.476566679023869 3.353698405901002 6.296994228295473e-08 7.19503929357332e-09 6.707396763696799" Properties=species:S:1:pos:R:3:forces:R:3 energy=-39.13243103027344 free_energy=-39.13243103027344 stress="-2.5898149033309892e-05 2.3352504374685168e-09 -8.806801510274909e-09 2.3352504374685168e-09 -2.586794835224282e-05 -2.9645095267483157e-08 -8.806801510274909e-09 -2.9645095267483157e-08 -2.586061782494653e-05" pbc="T T T"
Bi       1.93625883       1.36914220       3.35369847      -0.00000050       0.00000229       0.00000225
Bi       5.80877596       4.10742523      10.06109463      -0.00000013       0.00000128      -0.00000408
Ru      -0.00000012       0.00000020       0.00000025      -0.00000019      -0.00000077      -0.00000309
Se       1.98904616       1.40646779       6.70739672       0.00042671       0.00030161      -0.00000040
Se       5.75598868       4.07009856       6.70739707      -0.00042535      -0.00030091       0.00000096
Se       4.81425263       1.40646770       5.07626288      -0.00021467       0.00030113       0.00037146
Se       2.93078161       4.07009859       8.33853096       0.00021354      -0.00030190      -0.00036894
Se       2.93078161       4.07009845       5.07626275       0.00021297      -0.00030336       0.00036892
Se       4.81425281       1.40646810       8.33853068      -0.00021236       0.00030043      -0.00036725
