9
Lattice="4.901889808560259 5.306053039409878e-08 2.8301072958589777 1.6339632885829245 4.621546176479251 2.8301073494887445 2.8331394844536316e-09 6.768611490416616e-08 5.660214586810795" Properties=species:S:1:pos:R:3:forces:R:3 energy=-58.73023986816406 free_energy=-58.73023986816406 stress="0.0003967536613345146 -1.198938974766861e-07 3.691700811714327e-08 -1.198938974766861e-07 0.00039682257920503616 -6.17183957274392e-08 3.691700811714327e-08 -6.17183957274392e-08 0.00039689833647571504" pbc="T T T"
Bi       1.63396333       1.15538672       2.83010724      -0.00000038       0.00000098       0.00000130
Bi       4.90188985       3.46615978       8.49032156       0.00000056      -0.00000088      -0.00000053
Re       0.00000000       0.00000012       0.00000129      -0.00000214      -0.00000265      -0.00002810
N        1.60567049       1.13538064       5.66021440      -0.00773966      -0.00547302      -0.00000102
N        4.93018258       3.48616553       5.66021496       0.00774372       0.00547528      -0.00000004
N        4.09905430       1.13538051       4.22065877       0.00386757      -0.00547159      -0.00670111
N        2.43679910       3.48616478       7.09976972      -0.00387847       0.00548518       0.00671685
N        2.43679847       3.48616525       4.22065902      -0.00387055       0.00547361      -0.00670552
N        4.09905415       1.13538169       7.09976973       0.00387985      -0.00548649       0.00671816
