9
Lattice="4.696219324704926 4.1062547234881415e-08 2.7113634697779063 1.565406461427487 4.427637960080582 2.7113635024356744 -5.985257503930981e-08 -2.3247492182608363e-09 5.422727043223491" Properties=species:S:1:pos:R:3:forces:R:3 energy=-49.96217727661133 free_energy=-49.96217727661133 stress="-7.753061800030991e-05 -3.052081254395489e-08 -1.4904772527302157e-08 -3.052081254395489e-08 -7.767283386783674e-05 -1.5014463006224332e-09 -1.4904772527302157e-08 -1.5014463006224332e-09 -7.757740968372673e-05" pbc="T T T"
Bi       1.56540613       1.10691038       2.71136375       0.00000000       0.00000264       0.00000457
Bi       4.69621886       3.32072799       8.13409033      -0.00000628      -0.00000104      -0.00000015
Rh      -0.00000059       0.00000017       0.00000044       0.00002104      -0.00000386      -0.00001516
O        1.58326922       1.11953970       5.42272682       0.00334913       0.00237042      -0.00000180
O        4.67835692       3.30809822       5.42272717      -0.00336069      -0.00237852       0.00000038
O        3.90458498       1.11954032       4.08251406      -0.00167829       0.00237888       0.00291035
O        2.35704127       3.30809735       6.76293976       0.00167271      -0.00236902      -0.00289726
O        2.35704106       3.30809750       4.08251429       0.00167596      -0.00237405       0.00290567
O        3.90458502       1.11954024       6.76293945      -0.00167364       0.00237450      -0.00290635
