9
Lattice="6.482936064391098 -8.004197514516559e-08 3.742924904133844 2.1609786845774375 6.112170878742543 3.74292477957973 5.904242588482677e-08 -1.1079770632101383e-07 7.4858497060031715" Properties=species:S:1:pos:R:3:forces:R:3 energy=-28.718149185180664 free_energy=-28.718149185180664 stress="0.00011996595276286826 -1.8341045349146157e-09 1.560363394048636e-08 -1.8341045349146157e-09 0.00011997902765870094 -7.084302477977644e-09 1.560363394048636e-08 -7.084302477977644e-09 0.00011996288958471268" pbc="T T T"
Bi       2.16097819       1.52804262       3.74292487      -0.00000276       0.00000017      -0.00000008
Bi       6.48293645       4.58412774      11.22877548       0.00000184      -0.00000100       0.00000296
Sb       0.00000022      -0.00000015      -0.00000015      -0.00000263      -0.00000063      -0.00000164
Te       2.36200149       1.67018732       7.48584997       0.00132938       0.00094015       0.00000014
Te       6.28191292       4.44198298       7.48584900      -0.00132698      -0.00093948      -0.00000075
Te       5.30193558       1.67018779       5.78847854      -0.00066338       0.00094038       0.00115111
Te       3.34197914       4.44198349       9.18322099       0.00066427      -0.00093971      -0.00115182
Te       3.34197984       4.44198342       5.78847823       0.00066382      -0.00093898       0.00115059
Te       5.30193536       1.67018758       9.18322060      -0.00066355       0.00093916      -0.00115064
