9
Lattice="4.464414494540945 -3.2475594369350887e-07 2.5775311487395065 1.4881380823254218 4.209089343289586 2.5775307613468397 1.6188556846437665e-07 -3.5998682842934117e-07 5.15506201708503" Properties=species:S:1:pos:R:3:forces:R:3 energy=-49.65241241455078 free_energy=-49.65241241455078 stress="-1.170060750155244e-05 -2.4049035118878237e-07 7.410316982259246e-08 -2.4049035118878237e-07 -1.1627616913756356e-05 -1.4573463147371513e-07 7.410316982259246e-08 -1.4573463147371513e-07 -1.103193972085137e-05" pbc="T T T"
Bi       1.48813824       1.05227202       2.57753117      -0.00000060      -0.00000273      -0.00000001
Bi       4.46441471       3.15681684       7.73259279       0.00000111      -0.00000293       0.00000100
S       -0.00000041      -0.00000012      -0.00000006       0.00001265       0.00001267      -0.00000613
N        1.40692099       0.99484294       5.15506213       0.00350022       0.00248110      -0.00000299
N        4.54563166       3.21424567       5.15506190      -0.00352144      -0.00248623       0.00000018
N        3.76095405       0.99484307       3.79596058      -0.00175196       0.00247794       0.00302923
N        2.19159876       3.21424550       6.51416327       0.00175184      -0.00247496      -0.00303876
N        2.19159895       3.21424570       3.79595993       0.00175160      -0.00247580       0.00303686
N        3.76095375       0.99484271       6.51416344      -0.00174356       0.00247151      -0.00301969
