9
Lattice="4.775723521582836 -7.465672028246818e-08 2.757265447894718 1.5919077728404807 4.502595258739403 2.7572654432183596 5.428962366763341e-08 3.266122723362771e-08 5.514530801757006" Properties=species:S:1:pos:R:3:forces:R:3 energy=-47.214603424072266 free_energy=-47.214603424072266 stress="-0.00010081096115754917 -2.3623613287782064e-08 4.7719201035079095e-08 -2.3623613287782064e-08 -0.00010086534166475758 -3.104763779404607e-09 4.7719201035079095e-08 -3.104763779404607e-09 -0.00010093122546095401" pbc="T T T"
Bi       1.59190813       1.12564875       2.75726551      -0.00000016      -0.00000015       0.00000033
Bi       4.77572317       3.37694646       8.27179643      -0.00000108      -0.00000015       0.00000079
Se      -0.00000020      -0.00000051       0.00000012       0.00000000      -0.00000043       0.00000273
N        1.52714629       1.07985560       5.51453081       0.00095320       0.00067520      -0.00000026
N        4.84048474       3.42273989       5.51453065      -0.00095320      -0.00067437       0.00000018
N        4.01215036       1.07985567       4.07981291      -0.00047553       0.00067383       0.00082445
N        2.35548134       3.42273989       6.94924863       0.00047773      -0.00067580      -0.00082648
N        2.35548129       3.42273973       4.07981305       0.00047612      -0.00067353       0.00082445
N        4.01215025       1.07985551       6.94924862      -0.00047654       0.00067514      -0.00082624
