9
Lattice="6.170925011783416 -2.0830553278317708e-08 3.562785191864649 2.0569749958221633 5.818003886758239 3.562785171887884 3.268985839782626e-08 -1.3512058737318548e-09 7.125570327108757" Properties=species:S:1:pos:R:3:forces:R:3 energy=-29.43120002746582 free_energy=-29.43120002746582 stress="-0.0001419128675479442 -1.0446960629906243e-08 -6.70170630101552e-09 -1.0446960629906243e-08 -0.00014187092892825603 7.759535236573356e-09 -6.70170630101552e-09 7.759535236573356e-09 -0.00014186161570250988" pbc="T T T"
Bi       2.05697344       1.45450182       3.56278463      -0.00001060       0.00000515      -0.00000232
Bi       6.17092494       4.36350337      10.68835565       0.00000062       0.00000482       0.00000072
Sr       0.00000002       0.00000010       0.00000084       0.00000139       0.00000130      -0.00000859
Se       2.34153861       1.65571724       7.12556973      -0.00077285      -0.00054930      -0.00000129
Se       5.88636237       4.16228492       7.12556976       0.00077757       0.00053962      -0.00000174
Se       5.00015660       1.65571732       5.59061762       0.00038979      -0.00054871      -0.00066452
Se       3.22774420       4.16228590       8.66052381      -0.00038947       0.00054675       0.00067262
Se       3.22774427       4.16228689       5.59061719      -0.00038625       0.00054909      -0.00066623
Se       5.00015572       1.65571787       8.66052358       0.00038987      -0.00054866       0.00067131
