9
Lattice="5.733806526647062 6.319739269948448e-08 3.310414839411126 1.9112688936583768 5.405884877454842 3.3104148535106828 4.27622486032197e-08 4.750582525565262e-08 6.620829604755806" Properties=species:S:1:pos:R:3:forces:R:3 energy=-34.77366638183594 free_energy=-34.77366638183594 stress="-0.0002481911506038159 5.361702193340534e-08 4.15642631423907e-08 5.361702193340534e-08 -0.00024821877013891935 -5.9049627409990535e-09 4.15642631423907e-08 -5.9049627409990535e-09 -0.0002482499403413385" pbc="T T T"
Bi       1.91126802       1.35147174       3.31041398      -0.00000826       0.00000342      -0.00000582
Bi       5.73380724       4.05441434       9.93124485       0.00000613       0.00000524       0.00000151
Sb       0.00000011       0.00000012       0.00000006      -0.00000410       0.00000078       0.00000305
S        2.00501085       1.41775671       6.62082998       0.00423229       0.00299062       0.00000256
S        5.64006483       3.98812765       6.62082945      -0.00422880      -0.00299318       0.00000009
S        4.73130166       1.41775619       5.04680527      -0.00211641       0.00299296       0.00366881
S        2.91377385       3.98812794       8.19485428       0.00211729      -0.00299788      -0.00367031
S        2.91377389       3.98812853       5.04680523       0.00211719      -0.00299419       0.00366846
S        4.73130137       1.41775669       8.19485407      -0.00211555       0.00299229      -0.00366893
