9
Lattice="6.3802402013451855 -3.084656489823699e-07 3.6836338701728533 2.126746592631936 6.015348754747676 3.683633610929055 6.483204905593833e-08 -2.7166424652672165e-07 7.36726762805318" Properties=species:S:1:pos:R:3:forces:R:3 energy=-33.60661315917969 free_energy=-33.60661315917969 stress="3.623800876084715e-05 -6.313079126130106e-08 -4.972325662322419e-09 -6.313079126130106e-08 3.622786971391179e-05 6.41713171489755e-09 -4.972325662322419e-09 6.41713171489755e-09 3.626922989496961e-05" pbc="T T T"
Bi       2.12674925       1.50384209       3.68363315       0.00001202       0.00002257      -0.00000404
Bi       6.38023737       4.51151400      11.05089729      -0.00001144       0.00001338      -0.00001650
Sc      -0.00000065      -0.00000160       0.00000142       0.00000822       0.00000967      -0.00000857
Te       2.29510300       1.62288096       7.36726777      -0.00262979      -0.00186487      -0.00000046
Te       6.21188666       4.39246539       7.36726837       0.00261833       0.00184456       0.00000417
Te       5.23268735       1.62288070       5.67125128       0.00130940      -0.00186269      -0.00227335
Te       3.27429947       4.39246364       9.06328605      -0.00131103       0.00185364       0.00228341
Te       3.27429792       4.39246497       5.67125002      -0.00131036       0.00184821      -0.00227098
Te       5.23268707       1.62288273       9.06328513       0.00131466      -0.00186444       0.00228631
