9
Lattice="5.673915605783277 3.0984419761578995e-08 3.2758366102649177 1.8913052578437255 5.349419037541054 3.275836564013064 -2.002520502126769e-08 -7.080673345369287e-08 6.55167325521444" Properties=species:S:1:pos:R:3:forces:R:3 energy=-35.30965805053711 free_energy=-35.30965805053711 stress="-9.645439604355488e-06 -5.911465539298888e-09 -6.4205285532636935e-09 -5.911465539298888e-09 -9.647720617067534e-06 -1.8081605546171886e-08 -6.4205285532636935e-09 -1.8081605546171886e-08 -9.657635018811561e-06" pbc="T T T"
Bi       1.89130505       1.33735497       3.27583670      -0.00000095       0.00000053       0.00000033
Bi       5.67391555       4.01206627       9.82750952      -0.00000179       0.00001495      -0.00000023
Sn      -0.00000008      -0.00000026       0.00000004       0.00000411       0.00000521      -0.00000660
S        2.00747889       1.41950131       6.55167397       0.00007091       0.00004432      -0.00000020
S        5.55774268       3.92991754       6.55167342      -0.00007385      -0.00005458      -0.00000020
S        4.67017600       1.41950071       5.01436392      -0.00003860       0.00005004       0.00006603
S        2.89504495       3.92991714       8.08898281       0.00003611      -0.00004768      -0.00005886
S        2.89504428       3.92991730       5.01436348       0.00003747      -0.00005457       0.00006348
S        4.67017611       1.41950099       8.08898181      -0.00003330       0.00004163      -0.00006412
