9
Lattice="6.458122849085841 2.80950094430798e-07 3.7285987506554537 2.1527078542272156 6.088775964611613 3.7285987974503367 1.4459702440726817e-07 1.5955737267135588e-07 7.457197250861386" Properties=species:S:1:pos:R:3:forces:R:3 energy=-28.826332092285156 free_energy=-28.826332092285156 stress="3.268026193836704e-05 3.642065760089963e-09 -9.023644054195756e-09 3.642065760089963e-09 3.2687661587260664e-05 -7.588680794867741e-10 -9.023644054195756e-09 -7.588680794867741e-10 3.266790372435935e-05" pbc="T T T"
Bi       2.15270762       1.52219550       3.72859872       0.00000019       0.00000654       0.00000051
Bi       6.45812255       4.56658028      11.18579532      -0.00000163      -0.00000813      -0.00000146
Sn       0.00000053       0.00000043       0.00000059      -0.00000202      -0.00000365      -0.00000357
Te       2.34284263       1.65664070       7.45719712      -0.00178565      -0.00126091      -0.00000053
Te       6.26798807       4.43213566       7.45719777       0.00178887       0.00126281      -0.00000032
Te       5.28670185       1.65664053       5.75755939       0.00089249      -0.00125920      -0.00154632
Te       3.32412947       4.43213582       9.15683582      -0.00089353       0.00126262       0.00154909
Te       3.32412855       4.43213569       5.75755906      -0.00089296       0.00126073      -0.00154608
Te       5.28670215       1.65664105       9.15683535       0.00089427      -0.00126083       0.00154877
