9
Lattice="4.920333510094621 -1.637093534200495e-08 2.8407559416095487 1.640111191957674 4.638934961523218 2.8407558768987684 2.2657246850757362e-07 8.095675580982881e-08 5.681511490784055" Properties=species:S:1:pos:R:3:forces:R:3 energy=-40.16179656982422 free_energy=-40.16179656982422 stress="6.584305810974911e-05 7.856019124119484e-08 -1.952228103618836e-07 7.856019124119484e-08 6.58466451568529e-05 -1.877148463336198e-07 -1.952228103618836e-07 -1.877148463336198e-07 6.619021587539464e-05" pbc="T T T"
Bi       1.64011193       1.15973391       2.84075482       0.00000185       0.00000133      -0.00000943
Bi       4.92033182       3.47920065       8.52226894      -0.00001044      -0.00000617       0.00001375
Sr      -0.00000015      -0.00000025      -0.00000055      -0.00000296      -0.00000008       0.00001275
O        1.84501033       1.30461920       5.68151271      -0.00076748      -0.00054415       0.00000822
O        4.71543466       3.33431581       5.68151015       0.00076923       0.00054590      -0.00000908
O        3.99782843       1.30462010       4.43858126       0.00038688      -0.00054301      -0.00067486
O        2.56261665       3.33431572       6.92444249      -0.00037848       0.00053856       0.00066654
O        2.56261765       3.33431559       4.43858153      -0.00038069       0.00054836      -0.00067689
O        3.99782841       1.30461944       6.92444189       0.00038198      -0.00054105       0.00066936
