9
Lattice="4.889208555759304 1.6769330386540367e-08 2.822785770999003 1.6297361821498924 4.609590206490083 2.822785803758121 -3.9366372939732454e-08 1.228534461515811e-08 5.645571610182508" Properties=species:S:1:pos:R:3:forces:R:3 energy=-45.739871978759766 free_energy=-45.739871978759766 stress="-0.00014598069537896663 5.5329266501757957e-08 2.818593891618093e-08 5.5329266501757957e-08 -0.0001461225765524432 -6.083867987172198e-08 2.818593891618093e-08 -6.083867987172198e-08 -0.0001460919447708875" pbc="T T T"
Bi       1.62973615       1.15239825       2.82278577      -0.00000061       0.00000132      -0.00000008
Bi       4.88920856       3.45719264       8.46835663       0.00000063       0.00000120      -0.00000326
Sb      -0.00000008       0.00000001      -0.00000003       0.00000282       0.00000062       0.00000117
N        1.68549335       1.19182379       5.64557155      -0.00066912      -0.00047302      -0.00000020
N        4.83345146       3.41776623       5.64557223       0.00066841       0.00047010       0.00000165
N        4.04646208       1.19182347       4.28246567       0.00033069      -0.00046736      -0.00057089
N        2.47248262       3.41776639       7.00867771      -0.00033182       0.00046754       0.00057441
N        2.47248267       3.41776643       4.28246574      -0.00033462       0.00046945      -0.00057733
N        4.04646197       1.19182367       7.00867737       0.00033325      -0.00046980       0.00057429
