9
Lattice="5.977385837845947 -3.1901037476736914e-08 3.451045412213712 1.992461926783646 5.635533309521614 3.4510453933142937 3.005192523401648e-08 -1.8970271112777767e-09 6.902090772375918" Properties=species:S:1:pos:R:3:forces:R:3 energy=-32.432891845703125 free_energy=-32.432891845703125 stress="4.1932667954824865e-05 -3.311872776023961e-09 -9.768723607805896e-10 -3.311872776023961e-09 4.192963024252094e-05 -1.3209406013459102e-08 -9.768723607805896e-10 -1.3209406013459102e-08 4.196112058707513e-05" pbc="T T T"
Bi       1.99246236       1.40888420       3.45104555       0.00000233       0.00000364       0.00000022
Bi       5.97738541       4.22664957      10.35313575      -0.00000223      -0.00000158       0.00000050
Sn       0.00000020      -0.00000006      -0.00000006      -0.00000054       0.00000028       0.00000293
Se       2.13396241       1.50893947       6.90209050       0.00057116       0.00040462      -0.00000039
Se       5.83588534       4.12659369       6.90209072      -0.00057105      -0.00040498      -0.00000028
Se       4.91040424       1.50893933       5.29911127      -0.00028548       0.00040092       0.00049276
Se       3.05944321       4.12659355       8.50507082       0.00028650      -0.00040492      -0.00049450
Se       3.05944342       4.12659374       5.29911101       0.00028505      -0.00040203       0.00049157
Se       4.91040460       1.50893964       8.50507075      -0.00028569       0.00040401      -0.00049295
