9
Lattice="4.767250331738081 -1.4882412548090075e-07 2.752373400562749 1.5890833527461823 4.4946069706819625 2.7523733154390007 -2.6789476934347127e-08 -1.2319788160897236e-07 5.504746847526213" Properties=species:S:1:pos:R:3:forces:R:3 energy=-47.229270935058594 free_energy=-47.229270935058594 stress="-0.00014482135884463787 -1.289608153598465e-08 -5.191097329770855e-08 -1.289608153598465e-08 -0.00014481674588751048 -4.109419293740757e-08 -5.191097329770855e-08 -4.109419293740757e-08 -0.00014487984299194068" pbc="T T T"
Bi       1.58908319       1.12365214       2.75237399      -0.00000019       0.00000185       0.00000466
Bi       4.76725028       3.37095477       8.25712131      -0.00000140       0.00000039       0.00000549
Sn      -0.00000006      -0.00000023      -0.00000006       0.00000041       0.00000807       0.00000078
O        1.66841260       1.17974605       5.50474666       0.00199497       0.00141114      -0.00000146
O        4.68792131       3.31486077       5.50474603      -0.00200069      -0.00141585      -0.00000249
O        3.93304403       1.17974609       4.19726086      -0.00099832       0.00141281       0.00172663
O        2.42328940       3.31486108       6.81223249       0.00100070      -0.00141454      -0.00173354
O        2.42328982       3.31486073       4.19726061       0.00100136      -0.00141478       0.00173044
O        3.93304414       1.17974528       6.81223222      -0.00099653       0.00141078      -0.00173032
