9
Lattice="4.766432800189716 -5.589671544866899e-09 2.751901294090803 1.5888109708323992 4.493835966587943 2.751901220122141 9.197626011188279e-08 -2.5555674147014823e-08 5.503802428874059" Properties=species:S:1:pos:R:3:forces:R:3 energy=-49.629066467285156 free_energy=-49.629066467285156 stress="-8.632990648038685e-05 -5.6673798098927364e-08 7.913428134997957e-08 -5.6673798098927364e-08 -8.637001883471385e-05 -1.0481605272616434e-07 7.913428134997957e-08 -1.0481605272616434e-07 -8.64258108776994e-05" pbc="T T T"
Bi       1.58881080       1.12345883       2.75190123      -0.00000106      -0.00000213      -0.00000053
Bi       4.76643303       3.37037673       8.25570297       0.00000093      -0.00000154      -0.00000545
Sb      -0.00000001      -0.00000008      -0.00000004       0.00000190       0.00000505       0.00000342
O        1.60317301       1.13361436       5.50380249       0.00018430       0.00013107       0.00000065
O        4.75207067       3.36022181       5.50380282      -0.00018877      -0.00013250       0.00000201
O        3.96484657       1.13361425       4.14028983      -0.00009212       0.00013065       0.00016338
O        2.39039748       3.36022163       6.86731537       0.00009429      -0.00013399      -0.00016505
O        2.39039742       3.36022143       4.14028972       0.00008872      -0.00012743       0.00015968
O        3.96484659       1.13361467       6.86731549      -0.00008926       0.00013030      -0.00015748
