9
Lattice="4.688422930866853 -3.808856478371516e-08 2.706862383562886 1.5628076081313387 4.420287608394907 2.7068623828366847 -1.1386522936140093e-08 -8.940902206341778e-09 5.413724786847832" Properties=species:S:1:pos:R:3:forces:R:3 energy=-50.35352325439453 free_energy=-50.35352325439453 stress="-5.8506153436610475e-05 -4.6136513276451296e-08 4.0867657702392535e-08 -4.6136513276451296e-08 -5.852547110407613e-05 2.6582677392639198e-08 4.0867657702392535e-08 2.6582677392639198e-08 -5.835412957821973e-05" pbc="T T T"
Bi       1.56280724       1.10507178       2.70686245      -0.00000027       0.00000011       0.00000011
Bi       4.68842283       3.31521570       8.12058710       0.00000077       0.00000083      -0.00000002
Si      -0.00000012       0.00000001      -0.00000009       0.00000061       0.00000001       0.00000118
N        1.48558230       1.05046534       5.41372488       0.00175571       0.00124192       0.00000049
N        4.76564822       3.36982243       5.41372478      -0.00175703      -0.00124192       0.00000028
N        3.94563208       1.05046531       3.99341479      -0.00087637       0.00123894       0.00151896
N        2.30559877       3.36982219       6.83403511       0.00087672      -0.00124061      -0.00151944
N        2.30559873       3.36982197       3.99341454       0.00087565      -0.00124025       0.00151932
N        3.94563214       1.05046550       6.83403492      -0.00087631       0.00124097      -0.00151980
