9
Lattice="4.660245696965761 -3.4476665748463797e-08 2.690594045670609 1.5534152132758863 4.393721753213619 2.6905940223591376 -3.0457179379234388e-09 -3.070425976750367e-08 5.381188096616559" Properties=species:S:1:pos:R:3:forces:R:3 energy=-48.12104797363281 free_energy=-48.12104797363281 stress="-2.8199667212902568e-05 7.397910284367981e-09 3.129384396061141e-08 7.397910284367981e-09 -2.8353992092888802e-05 -1.534213822651509e-08 3.129384396061141e-08 -1.534213822651509e-08 -2.832453537848778e-05" pbc="T T T"
Bi       1.55341507       1.09843070       2.69059505       0.00000022      -0.00000028       0.00000777
Bi       4.66024578       3.29529104       8.07178382       0.00000054      -0.00000019       0.00001027
Se      -0.00000008      -0.00000012      -0.00000022      -0.00000333       0.00000341      -0.00000246
O        1.47578273       1.04353610       5.38118762       0.00103629       0.00073707      -0.00000240
O        4.73787806       3.35018551       5.38118751      -0.00103456      -0.00073582      -0.00000435
O        3.92235429       1.04353615       3.96865913      -0.00051773       0.00073546       0.00089699
O        2.29130659       3.35018582       6.79371631       0.00051683      -0.00073695      -0.00090295
O        2.29130681       3.35018572       3.96865901       0.00051975      -0.00073647       0.00089848
O        3.92235434       1.04353586       6.79371646      -0.00051802       0.00073385      -0.00090098
