9
Lattice="4.716383513753523 4.2491920867096877e-08 2.7230054362212286 1.5721278766641698 4.446648944030387 2.723005438499653 5.857992773689704e-08 4.421274468797545e-08 5.446010770979053" Properties=species:S:1:pos:R:3:forces:R:3 energy=-51.561710357666016 free_energy=-51.561710357666016 stress="-5.669606980518438e-05 2.6184881818380745e-08 -3.75886486381205e-08 2.6184881818380745e-08 -5.6933244195533916e-05 -5.401298253104869e-08 -3.75886486381205e-08 -5.401298253104869e-08 -5.6929704442154616e-05" pbc="T T T"
Bi       1.57212710       1.11166211       2.72300512      -0.00000556      -0.00000373      -0.00000324
Bi       4.71638360       3.33498609       8.16901694       0.00000008      -0.00000647       0.00000520
Sc       0.00000000      -0.00000046      -0.00000001      -0.00000083       0.00000358       0.00000183
O        1.64683309       1.16448721       5.44601086      -0.00184369      -0.00129995       0.00000248
O        4.64167850       3.28216185       5.44601035       0.00184172       0.00130025      -0.00000365
O        3.89296749       1.16448738       4.14920474       0.00092295      -0.00129816      -0.00159383
O        2.39554420       3.28216233       6.74281684      -0.00091851       0.00130054       0.00159019
O        2.39554460       3.28216255       4.14920510      -0.00091860       0.00130296      -0.00159115
O        3.89296717       1.16448713       6.74281679       0.00092277      -0.00129917       0.00159252
