9
Lattice="5.834807898765459 -2.389061104237976e-07 3.3687281691267073 1.9449357108825904 5.501109747043689 3.3687282213130145 -6.413519501687242e-08 1.8564420785128922e-08 6.7374564493389" Properties=species:S:1:pos:R:3:forces:R:3 energy=-36.724037170410156 free_energy=-36.724037170410156 stress="-2.7805584977613762e-05 -1.5477159109877903e-08 1.7812785912951767e-08 -1.5477159109877903e-08 -2.78112984233303e-05 2.102897411759841e-08 1.7812785912951767e-08 2.102897411759841e-08 -2.7722342565539293e-05" pbc="T T T"
Bi       1.94493512       1.37527695       3.36872865      -0.00000603      -0.00000429       0.00000212
Bi       5.83480800       4.12583117      10.10618293      -0.00000066      -0.00000448      -0.00001097
Sc      -0.00000085      -0.00000015      -0.00000022       0.00001291       0.00000338       0.00000586
Se       2.08161761       1.47192670       6.73745637      -0.00019512      -0.00013562       0.00000059
Se       5.69812613       4.02918373       6.73745707       0.00018570       0.00013100       0.00000318
Se       4.79399894       1.47192583       5.17146290       0.00009649      -0.00013593      -0.00016488
Se       2.98574547       4.02918378       8.30345035      -0.00009374       0.00013928       0.00016649
Se       2.98574447       4.02918342       5.17146297      -0.00009784       0.00013833      -0.00016692
Se       4.79399929       1.47192665       8.30345035       0.00009802      -0.00013156       0.00016454
