9
Lattice="5.537436548778627 -1.3956304791989527e-08 3.197040490464797 1.8458121602473776 5.220745410228349 3.197040506955148 -5.186906648325867e-08 -1.648051362337043e-08 6.3940810707694595" Properties=species:S:1:pos:R:3:forces:R:3 energy=-40.368690490722656 free_energy=-40.368690490722656 stress="-2.39505352510605e-05 7.615176933484236e-09 1.5290163801751078e-08 7.615176933484236e-09 -2.3938211597851478e-05 -2.0411181633761544e-09 1.5290163801751078e-08 -2.0411181633761544e-09 -2.3948887246660888e-05" pbc="T T T"
Bi       1.84581125       1.30518752       3.19704103      -0.00000320       0.00000683       0.00000170
Bi       5.53743650       3.91555839       9.59112171      -0.00000095      -0.00000299       0.00000076
Sc       0.00000058       0.00000018      -0.00000023      -0.00000815      -0.00000389      -0.00000307
S        1.98291644       1.40213403       6.39408087       0.00200675       0.00142226      -0.00000349
S        5.40033242       3.81861088       6.39408069      -0.00199873      -0.00141980       0.00000064
S        4.54597832       1.40213370       4.91429663      -0.00100141       0.00141881       0.00173753
S        2.83727067       3.81861130       7.87386547       0.00100323      -0.00141821      -0.00173560
S        2.83727064       3.81861161       4.91429654       0.00100325      -0.00142028       0.00173640
S        4.54597782       1.40213387       7.87386569      -0.00100067       0.00141730      -0.00173501
