9
Lattice="4.589028705122433 8.548071880396773e-08 2.649476722341678 1.5296762741086785 4.326577841215522 2.6494767942635917 -6.23996809121902e-08 4.3962701635432075e-08 5.298953552762812" Properties=species:S:1:pos:R:3:forces:R:3 energy=-50.64810562133789 free_energy=-50.64810562133789 stress="-5.7790588471107185e-05 8.899828790598363e-11 -3.6185152652024044e-08 8.899828790598363e-11 -5.8146131777903065e-05 -1.7781601968636096e-08 -3.6185152652024044e-08 -1.7781601968636096e-08 -5.803409294458106e-05" pbc="T T T"
Bi       1.52967605       1.08164399       2.64947707      -0.00000201      -0.00000313       0.00000129
Bi       4.58902848       3.24493313       7.94843082      -0.00000097      -0.00000054       0.00000188
S        0.00000020       0.00000005      -0.00000017      -0.00000785       0.00000132       0.00000275
O        1.38400767       0.97864121       5.29895331      -0.00028932      -0.00019950       0.00000026
O        4.73469707       3.34793681       5.29895356       0.00029600       0.00020146      -0.00000288
O        3.89702471       0.97864125       3.84806245       0.00015074      -0.00020283      -0.00025123
O        2.22168027       3.34793695       6.74984437      -0.00014681       0.00020069       0.00024998
O        2.22168040       3.34793690       3.84806250      -0.00014752       0.00020361      -0.00025135
O        3.89702493       0.97864124       6.74984450       0.00014687      -0.00020087       0.00024801
