9
Lattice="5.578178201108488 -1.4417213802441448e-07 3.2205627185074235 1.859392674341638 5.259156295027045 3.220562585892037 4.439147010392485e-08 -1.3103052483470565e-07 6.4411253601265255" Properties=species:S:1:pos:R:3:forces:R:3 energy=-33.535438537597656 free_energy=-33.535438537597656 stress="0.00037350415368564427 3.903658551962508e-08 -1.5992830171285277e-08 3.903658551962508e-08 0.00037348963087424636 7.09057312864303e-10 -1.5992830171285277e-08 7.09057312864303e-10 0.00037350074853748083" pbc="T T T"
Bi       1.85939123       1.31478608       3.22056384      -0.00000855      -0.00001919       0.00000759
Bi       5.57817763       3.94436367       9.66168741      -0.00000503      -0.00002237      -0.00000256
Se      -0.00000003       0.00000048       0.00000032       0.00000190      -0.00000756      -0.00000397
S        1.88772871       1.33482706       6.44112498      -0.00250402      -0.00175916      -0.00000492
S        5.54984128       3.92433107       6.44112574       0.00249538       0.00177009       0.00000109
S        4.63431397       1.33482651       4.85538336       0.00125104      -0.00175548      -0.00216326
S        2.80325818       3.92433105       8.02686579      -0.00124405       0.00177659       0.00216070
S        2.80325786       3.92433121       4.85538425      -0.00124310       0.00177276      -0.00215818
S        4.63431477       1.33482682       8.02686707       0.00125654      -0.00175561       0.00216347
