9
Lattice="4.884589955589722 -6.163353844059914e-08 2.820119236848316 1.628196583878895 4.6052356721238965 2.8201192539535094 -4.887726959051528e-08 -1.3611950240884772e-08 5.640238558354516" Properties=species:S:1:pos:R:3:forces:R:3 energy=-43.86024856567383 free_energy=-43.86024856567383 stress="-0.00020147358009126037 3.0412422802328365e-08 3.183858510169557e-08 3.0412422802328365e-08 -0.0002015253558056429 2.54532057653023e-08 3.183858510169557e-08 2.54532057653023e-08 -0.0002014099300140515" pbc="T T T"
Bi       1.62819744       1.15130944       2.82011905       0.00000317       0.00000219       0.00000031
Bi       4.88459054       3.45392680       8.46035676       0.00000296       0.00000025      -0.00000665
Sn      -0.00000031      -0.00000001      -0.00000012       0.00001038      -0.00000258       0.00000363
N        1.70530585       1.20583386       5.64023851      -0.00311637      -0.00220096      -0.00000049
N        4.80748098       3.39940201       5.64023918       0.00311196       0.00219810       0.00000234
N        4.03193625       1.20583251       4.29695763       0.00155225      -0.00220209      -0.00269455
N        2.48084970       3.39940189       6.98351972      -0.00155672       0.00220031       0.00269789
N        2.48084897       3.39940216       4.29695792      -0.00156006       0.00220287      -0.00269729
N        4.03193669       1.20583373       6.98351980       0.00155228      -0.00219786       0.00269425
