9
Lattice="5.80883808768129 7.414968861374277e-08 3.3537342383449404 1.9362794156878216 5.4766250481556975 3.353734267411534 -9.092275957502896e-08 -2.869290295393209e-08 6.707468634172589" Properties=species:S:1:pos:R:3:forces:R:3 energy=-39.100677490234375 free_energy=-39.100677490234375 stress="-0.0001241548015968874 -1.3396456388647948e-08 3.6536242475904146e-08 -1.3396456388647948e-08 -0.00012410397175699472 6.349709202879694e-09 3.6536242475904146e-08 6.349709202879694e-09 -0.0001241055433638394" pbc="T T T"
Bi       1.93627863       1.36915666       3.35373375      -0.00000431       0.00000051      -0.00000300
Bi       5.80883825       4.10746842      10.06120352       0.00000092      -0.00000142       0.00000512
Ti       0.00000002      -0.00000024      -0.00000018       0.00000210       0.00000410      -0.00000238
Se       2.00685354       1.41906000       6.70746876       0.00136229       0.00096393       0.00000041
Se       5.73826395       4.05756519       6.70746837      -0.00136510      -0.00096688      -0.00000087
Se       4.80541165       1.41906010       5.09172049      -0.00067975       0.00096495       0.00118121
Se       2.93970617       4.05756511       8.32321660       0.00068063      -0.00096317      -0.00118102
Se       2.93970636       4.05756535       5.09172056       0.00068298      -0.00096389       0.00118016
Se       4.80541107       1.41905981       8.32321672      -0.00067991       0.00096167      -0.00117961
