9
Lattice="6.48127784632112 3.9221804042846816e-07 3.7419674741391744 2.160426344276987 6.11060762519325 3.741967429596778 -2.602470564288974e-09 -5.639324092083241e-08 7.483934952785941" Properties=species:S:1:pos:R:3:forces:R:3 energy=-26.2141170501709 free_energy=-26.2141170501709 stress="-1.761550629453268e-05 -5.63932047725757e-08 -4.58399629366113e-09 -5.63932047725757e-08 -1.767571666277945e-05 2.313942815135306e-08 -4.58399629366113e-09 2.313942815135306e-08 -1.765771594364196e-05" pbc="T T T"
Bi       2.16042738       1.52765044       3.74196740       0.00000685      -0.00000616      -0.00000042
Bi       6.48127680       4.58295604      11.22590375      -0.00000639      -0.00000001       0.00000423
Tl      -0.00000059      -0.00000077       0.00000020       0.00000216       0.00000260      -0.00000048
Te       2.45537364       1.73620982       7.48393494      -0.00014572      -0.00010600       0.00000056
Te       6.18633072       4.37439981       7.48393362       0.00014164       0.00010694      -0.00000471
Te       5.25359030       1.73621089       5.86838228       0.00007068      -0.00010415      -0.00012697
Te       3.38811391       4.37439670       9.09948778      -0.00007074       0.00010409       0.00012679
Te       3.38811464       4.37439722       5.86838164      -0.00006785       0.00010423      -0.00012715
Te       5.25358993       1.73621168       9.09948790       0.00006935      -0.00010158       0.00012821
