9
Lattice="5.660868857951026 -7.0758147007747874e-09 3.268304265265309 1.8869562988957855 5.3371183553903325 3.2683042313461317 -4.706396148157976e-08 -7.482163704328743e-08 6.5366086120477735" Properties=species:S:1:pos:R:3:forces:R:3 energy=-31.03171157836914 free_energy=-31.03171157836914 stress="-2.4302473320858553e-05 -5.961627858042107e-10 9.835066094865397e-09 -5.961627858042107e-10 -2.4304907128680497e-05 -2.770515017402886e-08 9.835066094865397e-09 -2.770515017402886e-08 -2.4319342628587037e-05" pbc="T T T"
Bi       1.88695716       1.33428133       3.26830301       0.00000493       0.00001191      -0.00000915
Bi       5.66086657       4.00284013       9.80491297      -0.00001243       0.00000980       0.00000046
Tl       0.00000013       0.00000000      -0.00000017      -0.00000272       0.00000516      -0.00000110
S        2.07737694       1.46892623       6.53660867      -0.00305681      -0.00216924       0.00000213
S        5.47044881       3.86819096       6.53660786       0.00306119       0.00216193      -0.00000262
S        4.62218087       1.46892667       5.06736538       0.00153086      -0.00216536      -0.00265005
S        2.92564516       3.86819019       8.00585398      -0.00152397       0.00215325       0.00265740
S        2.92564510       3.86819104       5.06736458      -0.00152763       0.00216104      -0.00265221
S        4.62217969       1.46892656       8.00585222       0.00152666      -0.00216855       0.00265524
