9
Lattice="6.290785446897482 -1.6948814189921324e-07 3.631986695486435 2.0969283886280015 5.931009234326626 3.631986580956574 1.9075072816572435e-08 -1.2678169688026357e-07 7.263973357933787" Properties=species:S:1:pos:R:3:forces:R:3 energy=-34.98728942871094 free_energy=-34.98728942871094 stress="2.7304384275339544e-05 1.2244503189151601e-08 -1.4413559235038065e-08 1.2244503189151601e-08 2.729820153035689e-05 8.21603229894663e-09 -1.4413559235038065e-08 8.21603229894663e-09 2.7294452593196183e-05" pbc="T T T"
Bi       2.09692763       1.48275210       3.63198703      -0.00000446      -0.00000080       0.00000123
Bi       6.29078563       4.44825708      10.89595818       0.00000146       0.00000169      -0.00000726
Ti      -0.00000041      -0.00000024       0.00000041       0.00000371      -0.00000084      -0.00000211
Te       2.19939689       1.55520844       7.26397332       0.00286050       0.00202208      -0.00000107
Te       6.18831729       4.37580070       7.26397405      -0.00286238      -0.00202437       0.00000140
Te       5.19108712       1.55520755       5.53672023      -0.00143216       0.00202344       0.00248122
Te       3.19662734       4.37580083       8.99122664       0.00143039      -0.00202021      -0.00247480
Te       3.19662638       4.37580116       5.53672031       0.00143163      -0.00202399       0.00248065
Te       5.19108752       1.55520811       8.99122637      -0.00142875       0.00202305      -0.00247924
