9
Lattice="6.35362053551363 3.384739157955183e-08 3.668264221517101 2.1178735527228665 5.990250617882357 3.6682642059746864 4.79316164248202e-08 1.4857357766083937e-08 7.33652836001417" Properties=species:S:1:pos:R:3:forces:R:3 energy=-38.22159957885742 free_energy=-38.22159957885742 stress="0.00023589568445459008 1.602533927780314e-08 2.2846984304436546e-09 1.602533927780314e-08 0.0002358818892389536 -1.9404858164762118e-08 2.2846984304436546e-09 -1.9404858164762118e-08 0.0002358774363528937" pbc="T T T"
Bi       2.11787357       1.49756258       3.66826386       0.00000041      -0.00000022      -0.00000137
Bi       6.35362062       4.49268724      11.00479240      -0.00000021      -0.00000336      -0.00000119
Ta       0.00000011       0.00000028       0.00000052      -0.00000283      -0.00000238      -0.00000298
Te       2.22942429       1.57644120       7.33652839       0.00557803       0.00394401      -0.00000028
Te       6.24206936       4.41380943       7.33652835      -0.00557356      -0.00393881      -0.00000065
Te       5.23890857       1.57644135       5.59900217      -0.00278959       0.00394426       0.00483160
Te       3.23258597       4.41380913       9.07405441       0.00278744      -0.00394189      -0.00482872
Te       3.23258577       4.41380950       5.59900240       0.00278820      -0.00394340       0.00483063
Te       5.23890826       1.57644195       9.07405464      -0.00278782       0.00394185      -0.00482701
