9
Lattice="4.876984346517045 4.792248360263194e-08 2.8157284110602583 1.6256614075525426 4.598065345781503 2.815728560827619 -1.0247151045635725e-07 1.1096850513870905e-07 5.631456999606417" Properties=species:S:1:pos:R:3:forces:R:3 energy=-56.28759002685547 free_energy=-56.28759002685547 stress="-6.32365481578745e-05 -5.2205070488753336e-08 2.1769317015696288e-08 -5.2205070488753336e-08 -6.311941251624376e-05 4.7335522168623356e-08 2.1769317015696288e-08 4.7335522168623356e-08 -6.303506961558014e-05" pbc="T T T"
Bi       1.62566146       1.14951679       2.81572826      -0.00000059       0.00000218      -0.00000270
Bi       4.87698413       3.44854873       8.44718473       0.00000050      -0.00000207      -0.00000433
Ta       0.00000011      -0.00000000      -0.00000052      -0.00000037       0.00000012      -0.00000052
N        1.70271038       1.20399864       5.63145740      -0.00695968      -0.00492269       0.00000073
N        4.79993519       3.39406696       5.63145765       0.00695944       0.00492108       0.00000350
N        4.02562897       1.20399860       4.29031949       0.00348115      -0.00492436      -0.00603098
N        2.47701671       3.39406709       6.97259494      -0.00348091       0.00492394       0.00603163
N        2.47701654       3.39406670       4.29031933      -0.00348103       0.00492239      -0.00603008
N        4.02562881       1.20399889       6.97259496       0.00348169      -0.00492144       0.00603098
