9
Lattice="4.77663444006962 -1.2188017093175912e-07 2.757791263907001 1.5922113959925688 4.503454024802973 2.7577912104228397 -5.07182519862041e-08 -1.0136768691063484e-07 5.515582615660584" Properties=species:S:1:pos:R:3:forces:R:3 energy=-61.1436653137207 free_energy=-61.1436653137207 stress="-7.826081855455413e-05 1.0660604843337751e-08 -1.257418791311693e-08 1.0660604843337751e-08 -7.830575486877933e-05 1.2395777559959242e-07 -1.257418791311693e-08 1.2395777559959242e-07 -7.833244308130816e-05" pbc="T T T"
Bi       1.59221097       1.12586409       2.75779112      -0.00000225       0.00000553      -0.00000278
Bi       4.77663398       3.37758948       8.27337373      -0.00000561      -0.00000752      -0.00000141
Ta      -0.00000016      -0.00000010      -0.00000038       0.00000519      -0.00000189       0.00000737
O        1.60287843       1.13340600       5.51558254      -0.00059116      -0.00041759       0.00000009
O        4.76596766       3.37004749       5.51558244       0.00058764       0.00041348       0.00000196
O        3.97519548       1.13340666       4.14592462       0.00030077      -0.00041747      -0.00051039
O        2.39365059       3.37004768       6.88524074      -0.00029334       0.00041658       0.00050884
O        2.39365073       3.37004759       4.14592433      -0.00029448       0.00041634      -0.00050974
O        3.97519543       1.13340622       6.88524081       0.00029397      -0.00040829       0.00050473
