9
Lattice="4.869574205864977 1.4627465625456323e-08 2.8114499060733187 1.6231914149701883 4.5910785298375805 2.811449907416898 5.1312431780995895e-08 3.7928907022799727e-08 5.622899723270903" Properties=species:S:1:pos:R:3:forces:R:3 energy=-45.11670684814453 free_energy=-45.11670684814453 stress="-9.995267464546487e-05 -9.534410594369547e-09 1.3979227730942512e-07 -9.534410594369547e-09 -0.00010009005927713588 3.4271245397121675e-08 1.3979227730942512e-07 3.4271245397121675e-08 -0.00010027278040070087" pbc="T T T"
Bi       1.62319162       1.14777009       2.81144972       0.00000148       0.00000320       0.00000032
Bi       4.86957402       3.44330895       8.43434987      -0.00000068      -0.00000063       0.00000177
Te       0.00000019       0.00000012      -0.00000014      -0.00000289       0.00000051       0.00000638
N        1.66506699       1.17738009       5.62289960       0.00017321       0.00012237      -0.00000015
N        4.82769872       3.41369838       5.62289968      -0.00017095      -0.00012130       0.00000112
N        4.03704075       1.17738019       4.25344017      -0.00008583       0.00012016       0.00014734
N        2.45572481       3.41369826       6.99235972       0.00008804      -0.00012451      -0.00015330
N        2.45572505       3.41369821       4.25343992       0.00008506      -0.00012243       0.00014722
N        4.03704064       1.17738023       6.99235966      -0.00008738       0.00012279      -0.00015175
