9
Lattice="5.526933417285102 9.307480868499967e-08 3.1909767620706444 1.842311181826779 5.2108431266100945 3.190976840047619 -7.82190889761536e-08 4.019260954054918e-08 6.381953659620817" Properties=species:S:1:pos:R:3:forces:R:3 energy=-42.852210998535156 free_energy=-42.852210998535156 stress="-5.836536729475483e-05 3.688344563101964e-08 1.3172124502247584e-09 3.688344563101964e-08 -5.8315916248830035e-05 -3.795934053196781e-11 1.3172124502247584e-09 -3.795934053196781e-11 -5.829107612953521e-05" pbc="T T T"
Bi       1.84231010       1.30270992       3.19097649      -0.00001070      -0.00000606      -0.00000113
Bi       5.52693281       3.90813109       9.57293145      -0.00000266      -0.00001004       0.00000483
Ti       0.00000020       0.00000002       0.00000001      -0.00000100       0.00000116       0.00000050
S        1.91403744       1.35343023       6.38195337       0.00104511       0.00074185       0.00000029
S        5.45520672       3.85741400       6.38195337      -0.00104667      -0.00073747      -0.00000273
S        4.56991516       1.35342959       4.84858269      -0.00051848       0.00074224       0.00090565
S        2.79933013       3.85741419       7.91532466       0.00052632      -0.00073655      -0.00090791
S        2.79933058       3.85741429       4.84858231       0.00052879      -0.00073630       0.00090605
S        4.56991491       1.35342975       7.91532471      -0.00052068       0.00074130      -0.00090545
