9
Lattice="5.8420158103450825 -1.1811373948327493e-07 3.372889662864108 1.9473385241077692 5.507905179306155 3.3728896074070267 1.353692767651314e-07 2.7799751721084274e-08 6.745779091261811" Properties=species:S:1:pos:R:3:forces:R:3 energy=-42.58268737792969 free_energy=-42.58268737792969 stress="1.8966706193168648e-05 -2.2603908078622226e-08 2.5054294638948704e-08 -2.2603908078622226e-08 1.8934269974124618e-05 -2.8422514120052256e-08 2.5054294638948704e-08 -2.8422514120052256e-08 1.8955475752591155e-05" pbc="T T T"
Bi       1.94733881       1.37697548       3.37288982       0.00000159      -0.00000304       0.00000092
Bi       5.84201588       4.13092894      10.11866742      -0.00000129       0.00000064      -0.00000545
Ta      -0.00000083      -0.00000003       0.00000031       0.00000790      -0.00000147       0.00000068
Se       2.04254039       1.44429401       6.74577911      -0.00040554      -0.00028735       0.00000023
Se       5.74681428       4.06361149       6.74578010       0.00040007       0.00028455       0.00000187
Se       4.82074556       1.44429386       5.14178131       0.00020030      -0.00028351      -0.00034732
Se       2.96860909       4.06361142       8.34977685      -0.00020059       0.00028647       0.00035080
Se       2.96860871       4.06361106       5.14178160      -0.00020380       0.00028923      -0.00035188
Se       4.82074598       1.44429411       8.34977691       0.00020156      -0.00028558       0.00034992
