9
Lattice="5.9317257512179085 -6.193975080416516e-08 3.424683502631739 1.9772418610182485 5.592484639548734 3.424683498573535 -2.7994191636063778e-08 -2.4765099238134984e-08 6.849367053750778" Properties=species:S:1:pos:R:3:forces:R:3 energy=-28.80784797668457 free_energy=-28.80784797668457 stress="-5.126860924065113e-05 1.9413493035358442e-08 -3.3670910504213225e-09 1.9413493035358442e-08 -5.120720379636623e-05 6.369600846767298e-09 -3.3670910504213225e-09 6.369600846767298e-09 -5.1248214731458575e-05" pbc="T T T"
Bi       1.97724252       1.39812091       3.42468248       0.00000207      -0.00000162      -0.00000485
Bi       5.93172464       4.19436432      10.27405015      -0.00000584       0.00000482      -0.00000334
Tl      -0.00000015      -0.00000032      -0.00000029      -0.00000046       0.00000383      -0.00000162
Se       2.19845047       1.55453861       6.84936720      -0.00299511      -0.00212120       0.00000187
Se       5.71051745       4.03794598       6.84936708       0.00299402       0.00211860       0.00000175
Se       4.83250074       1.55453855       5.32859765       0.00149905      -0.00212072      -0.00259328
Se       3.07646721       4.03794543       8.37013748      -0.00149498       0.00211705       0.00259635
Se       3.07646725       4.03794588       5.32859705      -0.00149556       0.00211760      -0.00259365
Se       4.83250024       1.55453881       8.37013744       0.00149677      -0.00211827       0.00259680
