9
Lattice="4.806629559687474 -4.701410724066987e-08 2.775108752838822 1.6022098318891793 4.531733643653487 2.7751087130270404 -2.4975584912933605e-09 -5.05253096108912e-08 5.550217510003502" Properties=species:S:1:pos:R:3:forces:R:3 energy=-40.863853454589844 free_energy=-40.863853454589844 stress="-0.00016488290566485375 1.4976459183912993e-08 1.6454795304099434e-09 1.4976459183912993e-08 -0.00016494817100465298 -1.5113174711700594e-08 1.6454795304099434e-09 -1.5113174711700594e-08 -0.00016486991080455482" pbc="T T T"
Bi       1.60220967       1.13293430       2.77510802      -0.00000198       0.00000823      -0.00000577
Bi       4.80662921       3.39880083       8.32532638      -0.00000391       0.00000653      -0.00000185
Tl       0.00000009       0.00000016      -0.00000030      -0.00000378      -0.00000246      -0.00000376
O        1.72421626       1.21920455       5.55021791      -0.00176248      -0.00125003       0.00000484
O        4.68462345       3.31252801       5.55021741       0.00177294       0.00124812       0.00000104
O        3.94452143       1.21920441       4.26832360       0.00088233      -0.00125015      -0.00152659
O        2.46431814       3.31252850       6.83211204      -0.00088219       0.00124440       0.00153390
O        2.46431775       3.31252884       4.26832354      -0.00088330       0.00124732      -0.00153106
O        3.94452149       1.21920453       6.83211129       0.00088245      -0.00125197       0.00152928
