9
Lattice="4.767296035454119 6.264829400400735e-08 2.7523996876192993 1.5890987588159704 4.4946496782143655 2.7523996507857267 4.367258869313276e-08 -1.4230575892663445e-08 5.50479929959539" Properties=species:S:1:pos:R:3:forces:R:3 energy=-51.75749206542969 free_energy=-51.75749206542969 stress="3.8090402085799724e-05 1.5999823688161996e-08 2.184450842435126e-08 1.5999823688161996e-08 3.813099829130806e-05 1.3729096970394039e-08 2.184450842435126e-08 1.3729096970394039e-08 3.808656765613705e-05" pbc="T T T"
Bi       1.58909931       1.12366296       2.75239966      -0.00000028       0.00000016      -0.00000082
Bi       4.76729612       3.37098726       8.25719898       0.00000053      -0.00000026      -0.00000018
Ti      -0.00000004      -0.00000006      -0.00000012       0.00000077      -0.00000016       0.00000091
N        1.67255414       1.18267408       5.50479932       0.00206792       0.00146163      -0.00000029
N        4.68384088       3.31197526       5.50479914      -0.00206780      -0.00146121      -0.00000007
N        3.93101900       1.18267422       4.20087356      -0.00103462       0.00146419       0.00179058
N        2.42537568       3.31197531       6.80872495       0.00103444      -0.00146359      -0.00179023
N        2.42537572       3.31197554       4.20087385       0.00103384      -0.00146377       0.00178987
N        3.93101861       1.18267432       6.80872510      -0.00103444       0.00146252      -0.00179017
