9
Lattice="5.583746914136244 -8.265984117052727e-08 3.223777769736499 1.8612489466140103 5.264406713662012 3.223777677647342 1.7691995085285314e-08 -1.0027561738871915e-07 6.447555508829464" Properties=species:S:1:pos:R:3:forces:R:3 energy=-46.77272033691406 free_energy=-46.77272033691406 stress="1.2948061339557171e-05 4.7076873954665643e-08 1.5447625401066034e-08 4.7076873954665643e-08 1.2925346709380392e-05 -2.4912767404572378e-09 1.5447625401066034e-08 -2.4912767404572378e-09 1.292614069825504e-05" pbc="T T T"
Bi       1.86124728       1.31610159       3.22377781      -0.00001014       0.00000022       0.00000059
Bi       5.58374698       3.94830433       9.67133599      -0.00000010      -0.00000445       0.00001611
Ta      -0.00000006      -0.00000004      -0.00000043       0.00000120      -0.00000100       0.00000726
S        1.95033661       1.37909663       6.44755550      -0.00076561      -0.00054029       0.00000043
S        5.49465933       3.88530995       6.44755439       0.00076773       0.00053875      -0.00000606
S        4.60857925       1.37909690       4.91281850       0.00038665      -0.00053753      -0.00066373
S        2.83641697       3.88531081       7.98229193      -0.00038200       0.00054009       0.00065666
S        2.83641784       3.88531045       4.91281853      -0.00037928       0.00054231      -0.00066523
S        4.60857922       1.37909554       7.98229158       0.00038138      -0.00053823       0.00065402
