9
Lattice="4.69272651025216 -6.45040037734329e-08 2.7093470426287514 1.5642421350232383 4.424344910401076 2.709346998021206 1.0039511237023501e-07 1.6357243195615556e-08 5.418693911368024" Properties=species:S:1:pos:R:3:forces:R:3 energy=-53.95414733886719 free_energy=-53.95414733886719 stress="-1.4033919796929695e-05 4.349391957703119e-08 2.8063841028824754e-08 4.349391957703119e-08 -1.3825635505781975e-05 4.3241669800409e-08 2.8063841028824754e-08 4.3241669800409e-08 -1.400793462380534e-05" pbc="T T T"
Bi       1.56424203       1.10608545       2.70934657       0.00000143      -0.00000098      -0.00000433
Bi       4.69272715       3.31826005       8.12803973       0.00000327       0.00000576      -0.00000906
V       -0.00000002       0.00000011      -0.00000010       0.00000154       0.00000214      -0.00000420
O        1.53058081       1.08228407       5.41869404      -0.00002491      -0.00001788       0.00000206
O        4.72638845       3.34206107       5.41869472       0.00001800       0.00001419       0.00000549
O        3.92743593       1.08228312       4.03486894       0.00000989      -0.00001937      -0.00001419
O        2.32953259       3.34206115       6.80251969      -0.00000769       0.00001663       0.00001889
O        2.32953220       3.34206112       4.03486890      -0.00001287       0.00001824      -0.00001490
O        3.92743615       1.08228335       6.80251950       0.00001019      -0.00001931       0.00001949
