9
Lattice="4.8255239426612455 -1.3631644520140902e-07 2.7860174095054284 1.6085079371965099 4.549547040151373 2.786017262575849 4.699992121868303e-08 -1.4671728250062447e-07 5.572034737604587" Properties=species:S:1:pos:R:3:forces:R:3 energy=-54.578712463378906 free_energy=-54.578712463378906 stress="-5.468056315294234e-06 6.464740209821684e-08 1.8529139111933546e-08 6.464740209821684e-08 -5.6316398513445165e-06 -1.0005057760054115e-07 1.8529139111933546e-08 -1.0005057760054115e-07 -5.484352641360601e-06" pbc="T T T"
Bi       1.60850770       1.13738684       2.78601726      -0.00000019       0.00000060      -0.00000006
Bi       4.82552407       3.41215982       8.35805237      -0.00000029      -0.00000025      -0.00000007
V        0.00000017      -0.00000002      -0.00000038       0.00000052      -0.00000202       0.00000656
N        1.59426750       1.12731682       5.57203468      -0.00062990      -0.00044549       0.00000068
N        4.83976444       3.42222979       5.57203455       0.00063109       0.00044656       0.00000057
N        4.02839041       1.12731709       4.16669304       0.00031471      -0.00044549      -0.00054502
N        2.40564127       3.42222991       6.97737641      -0.00031340       0.00044203       0.00054252
N        2.40564175       3.42222986       4.16669301      -0.00031698       0.00044703      -0.00054789
N        4.02839072       1.12731695       6.97737643       0.00031471      -0.00044262       0.00054300
