9
Lattice="5.5510252964375235 -1.336777177230197e-07 3.2048860364284586 1.850341705741113 5.233556776833047 3.2048859216030783 1.4259966699206511e-08 -1.3054847432634722e-07 6.409772048157937" Properties=species:S:1:pos:R:3:forces:R:3 energy=-42.65629577636719 free_energy=-42.65629577636719 stress="-0.00022161321248859167 -1.8279258995335113e-08 2.570540225121931e-08 -1.8279258995335113e-08 -0.0002215937274741009 -5.917746737083007e-09 2.570540225121931e-08 -5.917746737083007e-09 -0.0002215362328570336" pbc="T T T"
Bi       1.85034129       1.30838894       3.20488601      -0.00000320      -0.00000045      -0.00000002
Bi       5.55102625       3.92516783       9.61465802       0.00000758       0.00000314       0.00000169
V       -0.00000016       0.00000014       0.00000007       0.00000136      -0.00000264      -0.00000076
S        1.86753128       1.32054424       6.40977192       0.00366133       0.00258899      -0.00000006
S        5.53383569       3.91301240       6.40977195      -0.00366208      -0.00259086      -0.00000157
S        4.61725962       1.32054350       4.82221610      -0.00183071       0.00258675       0.00317243
S        2.78410717       3.91301245       7.99732775       0.00182706      -0.00258574      -0.00316969
S        2.78410756       3.91301230       4.82221638       0.00182743      -0.00258470       0.00316706
S        4.61725932       1.32054424       7.99732791      -0.00182891       0.00258523      -0.00316915
