9
Lattice="6.211365062618025 -8.504815920256215e-08 3.586133517098055 2.0704549617365493 5.856131247453812 3.5861334806416427 -4.262118505382288e-08 -7.478756206986126e-08 7.172267108018263" Properties=species:S:1:pos:R:3:forces:R:3 energy=-35.056827545166016 free_energy=-35.056827545166016 stress="-5.671263352269307e-05 -1.5615425619230905e-09 -9.190036287520797e-09 -1.5615425619230905e-09 -5.670508471666835e-05 1.2535841253935587e-09 -9.190036287520797e-09 1.2535841253935587e-09 -5.6705932365730405e-05" pbc="T T T"
Bi       2.07045389       1.46403108       3.58613351      -0.00000454      -0.00000567      -0.00000035
Bi       6.21136375       4.39210041      10.75839742      -0.00000500       0.00000774      -0.00001237
V       -0.00000023      -0.00000011      -0.00000035      -0.00000197       0.00000209       0.00000084
Te       2.15188433       1.52161082       7.17226710       0.00106709       0.00075178       0.00000116
Te       6.12993639       4.33451959       7.17226875      -0.00106373      -0.00075238       0.00000462
Te       5.13542289       1.52161046       5.44972073      -0.00053189       0.00074975       0.00092259
Te       3.14639796       4.33451988       8.89481469       0.00053563      -0.00075307      -0.00092123
Te       3.14639725       4.33452044       5.44972058       0.00053465      -0.00075189       0.00092518
Te       5.13542364       1.52161175       8.89481396      -0.00053021       0.00075163      -0.00092040
