9
Lattice="5.8040236913289345 -8.047329592979554e-08 3.3509545645002112 1.9346745515902075 5.47208570114507 3.3509544541949086 5.4597901971738036e-08 -9.648942462957403e-08 6.7019090344341885" Properties=species:S:1:pos:R:3:forces:R:3 energy=-39.088008880615234 free_energy=-39.088008880615234 stress="-1.4439753613260109e-05 -4.962531274799176e-09 2.1645439218787033e-08 -4.962531274799176e-09 -1.4439368897001259e-05 4.458757807412894e-09 2.1645439218787033e-08 4.458757807412894e-09 -1.4420725165109616e-05" pbc="T T T"
Bi       1.93467442       1.36802160       3.35095437       0.00000044       0.00000075      -0.00000005
Bi       5.80402358       4.10406406      10.05286463       0.00000130      -0.00000006       0.00000832
V       -0.00000003      -0.00000023      -0.00000003       0.00000094       0.00000120      -0.00000131
Se       1.96601721       1.39018390       6.70190895       0.00228290       0.00161422      -0.00000060
Se       5.77268126       4.08190157       6.70190880      -0.00228536      -0.00161604      -0.00000251
Se       4.82101531       1.39018425       5.05357519      -0.00114030       0.00161568       0.00197626
Se       2.91768311       4.08190159       8.35024256       0.00114046      -0.00161427      -0.00197854
Se       2.91768341       4.08190158       5.05357509       0.00114197      -0.00161434       0.00197711
Se       4.82101491       1.39018375       8.35024266      -0.00114238       0.00161275      -0.00197852
