9
Lattice="4.892510829842526 7.144201842588137e-08 2.8246924188713574 1.6308369572470272 4.612703530703548 2.824692511345592 -2.4988191765377025e-08 9.558799731474125e-08 5.649384881023538" Properties=species:S:1:pos:R:3:forces:R:3 energy=-58.050559997558594 free_energy=-58.050559997558594 stress="-0.0001780849852366373 -2.862971015815674e-08 1.1272677014062538e-08 -2.862971015815674e-08 -0.00017803131777327508 1.2925456538415148e-10 1.1272677014062538e-08 1.2925456538415148e-10 -0.00017805422248784453" pbc="T T T"
Bi       1.63083657       1.15317573       2.82469226      -0.00000096      -0.00000148      -0.00000081
Bi       4.89251063       3.45952801       8.47407698      -0.00000102       0.00000043      -0.00000176
W       -0.00000009      -0.00000004      -0.00000013      -0.00000157       0.00000246       0.00000134
N        1.62710581       1.15053738       5.64938499       0.00144529       0.00102109       0.00000072
N        4.89624217       3.46216619       5.64938513      -0.00144398      -0.00102019       0.00000040
N        4.07895802       1.15053759       4.23380759      -0.00072092       0.00101900       0.00124896
N        2.44439006       3.46216615       7.06496258       0.00072205      -0.00102091      -0.00125015
N        2.44438982       3.46216611       4.23380741       0.00072199      -0.00102043       0.00124943
N        4.07895811       1.15053781       7.06496241      -0.00072080       0.00101882      -0.00124764
