9
Lattice="6.064701280467218 9.291118725187711e-08 3.501456782446113 2.021567099072062 5.7178551667416615 3.501456924499378 -6.864908505396923e-08 1.2543679495893487e-07 7.002913683795861" Properties=species:S:1:pos:R:3:forces:R:3 energy=-35.520790100097656 free_energy=-35.520790100097656 stress="1.494690150138922e-05 5.0632870340905356e-08 -3.235403056578434e-08 5.0632870340905356e-08 1.4914015991962515e-05 5.382716494750639e-09 -3.235403056578434e-08 5.382716494750639e-09 1.4908578123140614e-05" pbc="T T T"
Bi       2.02156705       1.42946390       3.50145596       0.00000007      -0.00000120      -0.00000659
Bi       6.06470212       4.28839049      10.50437237       0.00000755      -0.00000702       0.00001733
Y        0.00000018       0.00000086       0.00000089      -0.00000155      -0.00001017      -0.00001007
Se       2.20311950       1.55784173       7.00291412      -0.00016326      -0.00011015       0.00000223
Se       5.88314808       4.16001399       7.00291265       0.00016436       0.00011721      -0.00000673
Se       4.96314157       1.55784139       5.40941369       0.00007938      -0.00010645      -0.00013822
Se       3.12312611       4.16001348       8.59641258      -0.00008807       0.00011429       0.00014165
Se       3.12312717       4.16001489       5.40941459      -0.00007796       0.00011605      -0.00013602
Se       4.96314145       1.55784083       8.59641274       0.00007947      -0.00011256       0.00013623
