9
Lattice="4.852779096293097 -1.4327261800455326e-07 2.801753293315008 1.6175929729529446 4.575243590231873 2.801753161793491 2.425502299208058e-08 -1.4392940871030117e-07 5.603506544619081" Properties=species:S:1:pos:R:3:forces:R:3 energy=-49.98986053466797 free_energy=-49.98986053466797 stress="-0.00015352352056652308 3.494851696927981e-08 -2.165537082987612e-08 3.494851696927981e-08 -0.00015326854190789163 -2.5455717533873212e-08 -2.165537082987612e-08 -2.5455717533873212e-08 -0.00015325075946748257" pbc="T T T"
Bi       1.61759396       1.14380968       2.80175295       0.00000497      -0.00000768      -0.00000148
Bi       4.85277848       3.43143323       8.40525925      -0.00000500       0.00000754      -0.00000718
Y       -0.00000009       0.00000008      -0.00000025       0.00000380      -0.00000139       0.00000291
O        1.75997530       1.24448947       5.60350659      -0.00267369      -0.00189605       0.00000142
O        4.71039692       3.33075388       5.60350700       0.00267270       0.00189590       0.00000297
O        3.97279086       1.24448928       4.32593609       0.00133461      -0.00189716      -0.00231788
O        2.49758101       3.33075372       6.88107684      -0.00133520       0.00189579       0.00231892
O        2.49758100       3.33075387       4.32593645      -0.00133614       0.00189671      -0.00231934
O        3.97279094       1.24448994       6.88107712       0.00133388      -0.00189349       0.00231972
