9
Lattice="4.881105486718575 5.958935323061353e-08 2.818107578142742 1.6270351582502312 4.601951006962673 2.818107682361428 -2.01820751979289e-07 -1.506755341040728e-08 5.636215505849349" Properties=species:S:1:pos:R:3:forces:R:3 energy=-46.14071273803711 free_energy=-46.14071273803711 stress="-3.667861892608926e-05 4.553894683567705e-08 -9.178715032476248e-08 4.553894683567705e-08 -3.659000503830612e-05 -1.1002202882082202e-07 -9.178715032476248e-08 -1.1002202882082202e-07 -3.680014197016135e-05" pbc="T T T"
Bi       1.62703759       1.15048698       2.81810804       0.00001242       0.00000038       0.00000545
Bi       4.88110674       3.45146227       8.45432039       0.00000779      -0.00000847      -0.00001907
Y        0.00000102      -0.00000011       0.00000023      -0.00000028      -0.00000296      -0.00001555
N        1.83530513       1.29775833       5.63621487       0.00382404       0.00271303      -0.00000590
N        4.67283370       3.30419426       5.63621831      -0.00382279      -0.00269287       0.00002357
N        3.96345123       1.29775613       4.40752847      -0.00192612       0.00269348       0.00330495
N        2.54468828       3.30419328       6.86490171       0.00191859      -0.00270855      -0.00331286
N        2.54468605       3.30419340       4.40752885       0.00189897      -0.00270966       0.00331734
N        3.96345205       1.29775961       6.86490237      -0.00191305       0.00271570      -0.00329797
