9
Lattice="6.579138617195704 -8.241345258291175e-08 3.798467537916009 2.1930461475455663 6.202871271882243 3.7984675041170655 3.74591128398302e-08 -1.4907458446158885e-08 7.596935010951001" Properties=species:S:1:pos:R:3:forces:R:3 energy=-33.07984924316406 free_energy=-33.07984924316406 stress="1.5895759588602232e-06 2.599666704128367e-09 9.434589998136289e-09 2.599666704128367e-09 1.6002744587240159e-06 -1.580382935628677e-08 9.434589998136289e-09 -1.580382935628677e-08 1.6008323200367158e-06" pbc="T T T"
Bi       2.19304624       1.55071767       3.79846776       0.00000185       0.00000045       0.00000046
Bi       6.57913918       4.65215350      11.39540249       0.00000348       0.00000050       0.00000090
Y        0.00000015       0.00000022      -0.00000076      -0.00000124       0.00000015       0.00000647
Te       2.43684044       1.72310637       7.59693505       0.00005447       0.00003902      -0.00000045
Te       6.33534417       4.47976488       7.59693514      -0.00005616      -0.00003929      -0.00000051
Te       5.36071842       1.72310616       5.90883372      -0.00002736       0.00003878       0.00004685
Te       3.41146593       4.47976526       9.28503662       0.00002765      -0.00004002      -0.00005119
Te       3.41146621       4.47976450       5.90883350       0.00002560      -0.00003767       0.00004561
Te       5.36071844       1.72310614       9.28503672      -0.00002826       0.00003812      -0.00004807
