9
Lattice="5.739743431481671 -1.13471169207191e-08 3.3138425626535706 1.9132478124734749 5.411481878384395 3.3138425406950778 1.6299814560475925e-07 8.836352509420782e-08 6.627684842986087" Properties=species:S:1:pos:R:3:forces:R:3 energy=-29.72597312927246 free_energy=-29.72597312927246 stress="-0.0003448260831646621 -1.3861017222893679e-08 -1.3597507120266528e-08 -1.3861017222893679e-08 -0.0003448338247835636 4.4658743370007414e-09 -1.3597507120266528e-08 4.4658743370007414e-09 -0.00034483050694689155" pbc="T T T"
Bi       1.91324857       1.35286879       3.31384435       0.00000298      -0.00000592       0.00000996
Bi       5.73974391       4.05861173       9.94152650       0.00000158       0.00000090      -0.00000593
Zn      -0.00000006       0.00000011       0.00000014       0.00000039      -0.00000012       0.00000021
Se       2.02453157       1.43156018       6.62768496      -0.00038336      -0.00027156      -0.00000116
Se       5.62845944       3.97992256       6.62768540       0.00038076       0.00027367       0.00000149
Se       4.72747651       1.43155991       5.06713772       0.00018730      -0.00027184      -0.00033393
Se       2.92551381       3.97992256       8.18823127      -0.00019139       0.00027463       0.00033036
Se       2.92551352       3.97992191       5.06713840      -0.00019296       0.00027171      -0.00033125
Se       4.72747839       1.43156011       8.18823107       0.00019468      -0.00027149       0.00033025
