9
Lattice="5.463724734264518 1.3921009884930104e-07 3.154483130439609 1.8212416858041092 5.151249582123255 3.154483171199414 8.692980594910564e-08 1.1138896691807731e-07 6.308966110312306" Properties=species:S:1:pos:R:3:forces:R:3 energy=-32.605655670166016 free_energy=-32.605655670166016 stress="-0.00015605964290443808 1.5351265147955928e-08 -1.403004823430365e-08 1.5351265147955928e-08 -0.00015604447980877012 -1.885886335983855e-09 -1.403004823430365e-08 -1.885886335983855e-09 -0.00015607496607117355" pbc="T T T"
Bi       1.82123921       1.28781181       3.15448362      -0.00000897      -0.00000367       0.00000233
Bi       5.46372627       3.86343780       9.46344948       0.00000560       0.00000130      -0.00000102
Zn       0.00000014       0.00000013      -0.00000018       0.00000031       0.00000050      -0.00000063
S        1.92065328       1.35810703       6.30896572      -0.00704864      -0.00498478      -0.00000106
S        5.36431349       3.79314271       6.30896663       0.00704721       0.00498261       0.00000016
S        4.50339900       1.35810668       4.81781746       0.00352731      -0.00498447      -0.00610146
S        2.78156813       3.79314301       7.80011454      -0.00352551       0.00498733       0.00610232
S        2.78156763       3.79314305       4.81781745      -0.00352404       0.00498512      -0.00610155
S        4.50339892       1.35810710       7.80011492       0.00352679      -0.00498410       0.00610101
