9
Lattice="4.636990379029001 1.2357516623795468e-07 2.6771678295470442 1.5456634909022886 4.371796980608921 2.677167977259521 -1.6372825749882392e-08 1.693327492023854e-07 5.354335687452661" Properties=species:S:1:pos:R:3:forces:R:3 energy=-41.59218978881836 free_energy=-41.59218978881836 stress="-9.87544481176883e-05 -4.6143473042548067e-08 7.78637987419728e-10 -4.6143473042548067e-08 -9.883646998787299e-05 2.605540672107054e-08 7.78637987419728e-10 2.605540672107054e-08 -9.870477515505627e-05" pbc="T T T"
Bi       1.54566390       1.09294940       2.67716786       0.00000396       0.00000034      -0.00000087
Bi       4.63699105       3.27884723       8.03150379       0.00000578      -0.00000579       0.00000005
Zn       0.00000058      -0.00000038      -0.00000043      -0.00001153       0.00000910       0.00001515
O        1.57849013       1.11616263       5.35433571       0.00113684       0.00080848       0.00000011
O        4.60416314       3.25563541       5.35433577      -0.00113699      -0.00080293       0.00000028
O        3.84774472       1.11616231       4.04418115      -0.00056492       0.00079787       0.00097436
O        2.33490843       3.25563533       6.66449042       0.00057073      -0.00080904      -0.00099006
O        2.33490854       3.25563531       4.04418136       0.00056706      -0.00080287       0.00098440
O        3.84774492       1.11616198       6.66449058      -0.00057119       0.00080523      -0.00098327
