9
Lattice="6.241913594368378 -6.455288179282905e-08 3.603770408598195 2.080637874251751 5.884932207299963 3.6037702867945067 5.665182921165125e-08 -1.091194831002288e-07 7.207540719072475" Properties=species:S:1:pos:R:3:forces:R:3 energy=-26.340776443481445 free_energy=-26.340776443481445 stress="-6.0516202211147174e-05 1.747685018926859e-08 5.536124891847294e-09 1.747685018926859e-08 -6.049622970749624e-05 -7.657367184776831e-09 5.536124891847294e-09 -7.657367184776831e-09 -6.0512375057442114e-05" pbc="T T T"
Bi       2.08063691       1.47123482       3.60377011      -0.00000403       0.00000759      -0.00000094
Bi       6.24191366       4.41369896      10.81131091      -0.00000026       0.00000059      -0.00000115
Zn      -0.00000033      -0.00000025       0.00000030       0.00000226       0.00000185      -0.00000103
Te       2.21146539       1.56374231       7.20754070       0.00386862       0.00273640       0.00000009
Te       6.11108666       4.32118907       7.20754076      -0.00386950      -0.00274033      -0.00000005
Te       5.13618127       1.56374186       5.51895565      -0.00193425       0.00273702       0.00335290
Te       3.18637092       4.32118933       8.89612633       0.00193531      -0.00273965      -0.00335196
Te       3.18637026       4.32118996       5.51895504       0.00193566      -0.00273905       0.00335370
Te       5.13618135       1.56374209       8.89612584      -0.00193382       0.00273563      -0.00335158
