9
Lattice="4.909072305951147 4.441261903621993e-08 2.8342541993924755 1.6363574637083207 4.628318112907461 2.834254222742858 -4.9776834061818625e-08 -6.599235445301099e-09 5.668508485000861" Properties=species:S:1:pos:R:3:forces:R:3 energy=-51.0445671081543 free_energy=-51.0445671081543 stress="-4.067236204718938e-06 2.719506009274397e-10 -4.2288387902544855e-08 2.719506009274397e-10 -4.033156528748805e-06 5.281768977738466e-08 -4.2288387902544855e-08 5.281768977738466e-08 -3.862735866277944e-06" pbc="T T T"
Bi       1.63635826       1.15707975       2.83425428       0.00000255       0.00000100       0.00000235
Bi       4.90907262       3.47123836       8.50276352       0.00000194      -0.00000190       0.00000344
Zr       0.00000007      -0.00000004       0.00000019       0.00000085      -0.00000164       0.00000017
N        1.78372692       1.26128577       5.66850818      -0.00037605      -0.00026733      -0.00000090
N        4.76170293       3.36703263       5.66850767       0.00037724       0.00026619      -0.00000425
N        4.01720846       1.26128560       4.37900653       0.00018612      -0.00026497      -0.00032860
N        2.52822069       3.36703256       6.95800936      -0.00019100       0.00026798       0.00032815
N        2.52822050       3.36703261       4.37900735      -0.00018886       0.00026760      -0.00032765
N        4.01720846       1.26128539       6.95801010       0.00018683      -0.00026730       0.00032759
