9
Lattice="5.08047592150534 6.619964840844673e-08 2.9332139613736805 1.693492055977632 4.789918506424337 2.933213927202195 7.36974692601886e-08 1.0260685500986738e-08 5.866427795099634" Properties=species:S:1:pos:R:3:forces:R:3 energy=-32.97322463989258 free_energy=-32.97322463989258 stress="3.1453130304726074e-06 1.2488643008623512e-08 6.214082581834646e-09 1.2488643008623512e-08 3.077236442550202e-06 -2.764706863445099e-08 6.214082581834646e-09 -2.764706863445099e-08 3.1173269690043526e-06" pbc="T T T"
Br       1.69349157       1.19747991       2.93321375      -0.00000168       0.00000101      -0.00000082
Br       5.08047665       3.59243896       8.79964198       0.00000231       0.00000018      -0.00000108
As      -0.00000006       0.00000016       0.00000020       0.00000115       0.00000087       0.00000440
O        1.50508451       1.06425555       5.86642771       0.00010824       0.00007671       0.00000017
O        5.26888380       3.72566267       5.86642775      -0.00011027      -0.00007832       0.00000022
O        4.32793393       1.06425536       4.23665551      -0.00005430       0.00007665       0.00009608
O        2.44603403       3.72566297       7.49620049       0.00005591      -0.00007933      -0.00009811
O        2.44603405       3.72566298       4.23665521       0.00005418      -0.00007683       0.00009686
O        4.32793369       1.06425569       7.49620036      -0.00005567       0.00007987      -0.00009769
