9
Lattice="5.070413841616929 -1.4160848005626628e-07 2.927405186231541 1.6901378954692798 4.780431790574238 2.9274050445957864 -1.2003485890754095e-07 -2.583450304657052e-07 5.854810580369538" Properties=species:S:1:pos:R:3:forces:R:3 energy=-29.976797103881836 free_energy=-29.976797103881836 stress="-8.066321242949925e-06 -5.823245174951808e-08 1.722704823237109e-08 -5.823245174951808e-08 -7.986643140611704e-06 -1.546579397881942e-08 1.722704823237109e-08 -1.546579397881942e-08 -7.912255568953697e-06" pbc="T T T"
Br       1.69013707       1.19510664       2.92740686      -0.00000297      -0.00000278       0.00000433
Br       5.07041249       3.58532368       8.78221533      -0.00000270       0.00000110      -0.00000206
Ga      -0.00000078       0.00000212      -0.00000194       0.00000981      -0.00003836       0.00003569
O        1.60623748       1.13578060       5.85480909      -0.00040120      -0.00028706       0.00000099
O        5.15431193       3.64465057       5.85480995       0.00041699       0.00029543       0.00000074
O        4.26729421       1.13578236       4.31844885       0.00020812      -0.00029400      -0.00035766
O        2.49325759       3.64465159       7.39117049      -0.00020640       0.00029227       0.00035921
O        2.49325884       3.64464691       4.31845075      -0.00021966       0.00031015      -0.00038242
O        4.26729766       1.13578146       7.39117363       0.00019781      -0.00027683       0.00034127
