9
Lattice="4.7337659499924625 -2.86787557475153e-07 2.733041170920065 1.5779219009295555 4.4630370257647956 2.7330408453211548 1.1786344333409538e-07 -3.1543367215263125e-07 5.466082137694749" Properties=species:S:1:pos:R:3:forces:R:3 energy=-27.8915958404541 free_energy=-27.8915958404541 stress="-0.0007304924074560404 2.3054086284446385e-07 -1.3499705175945564e-07 2.3054086284446385e-07 -0.0007305291364900768 1.6293861904159712e-07 -1.3499705175945564e-07 1.6293861904159712e-07 -0.0007306676707230508" pbc="T T T"
Br       1.57792354       1.11576540       2.73304333       0.00003591       0.00014699       0.00005815
Br       4.73376826       3.34728348       8.19912535       0.00003659       0.00014821       0.00005904
N        0.00000829       0.00003457       0.00001441       0.00020225       0.00083068       0.00031075
O        1.32217388       0.93492296       5.46608362      -0.00001168       0.00010860       0.00006044
O        4.98946485       3.52808822       5.46608451      -0.00117993      -0.00071228       0.00005854
O        4.07268079       0.93492377       3.87807982       0.00005066       0.00012231       0.00002956
O        2.23903536       3.52808883       7.05404555       0.00063562      -0.00070620      -0.00098157
O        2.23902650       3.52810117       3.87810812       0.00041318      -0.00038517       0.00071001
O        4.07267103       0.93493672       7.05407262      -0.00018036       0.00044429      -0.00030708
