9
Lattice="5.069707570561843 5.044019191841861e-08 2.926997032434732 1.6899025644326666 4.779766072141868 2.9269970439415087 2.432584863507956e-08 3.1293825940951566e-08 5.853994022735862" Properties=species:S:1:pos:R:3:forces:R:3 energy=-32.27046203613281 free_energy=-32.27046203613281 stress="-0.00038540709647350013 -1.4151269489559581e-08 -1.1950761269474697e-08 -1.4151269489559581e-08 -0.00038542490801773965 1.1390748788642213e-08 -1.1950761269474697e-08 1.1390748788642213e-08 -0.0003854248789139092" pbc="T T T"
Br       1.68990347       1.19494134       2.92699799       0.00000326      -0.00000139       0.00000366
Br       5.06970780       3.58482471       8.78099108       0.00000217       0.00000145      -0.00000113
Sb       0.00000004      -0.00000005       0.00000010       0.00000208      -0.00000198       0.00000261
O        1.64211012       1.16114728       5.85399339       0.00353116       0.00249606      -0.00000206
O        5.11749980       3.61861936       5.85399407      -0.00353312      -0.00249642       0.00000012
O        4.24865223       1.16114753       4.34910570      -0.00176793       0.00249773       0.00305724
O        2.51095784       3.61861869       7.35888209       0.00176591      -0.00249702      -0.00305730
O        2.51095692       3.61861891       4.34910629       0.00176415      -0.00249654       0.00305754
O        4.24865241       1.16114690       7.35888153      -0.00176743       0.00249809      -0.00306082
