9
Lattice="4.999053171837856 2.0503697651739298e-07 2.886204781998165 1.6663512310184363 4.713152876457692 2.886204815897119 7.735976541178376e-09 4.6987742965707465e-08 5.772409550597233" Properties=species:S:1:pos:R:3:forces:R:3 energy=-36.37281036376953 free_energy=-36.37281036376953 stress="0.0003352350031491369 -1.5957361654272972e-08 2.5069127218557696e-08 -1.5957361654272972e-08 0.00033522662124596536 -1.9607240275831828e-08 2.5069127218557696e-08 -1.9607240275831828e-08 0.00033519603312015533" pbc="T T T"
Br       1.66635088       1.17828834       2.88620506      -0.00000051      -0.00000055      -0.00000014
Br       4.99905388       3.53486465       8.65861439       0.00000144      -0.00000097      -0.00000014
Y        0.00000010       0.00000015      -0.00000058      -0.00000046      -0.00000045       0.00000186
O        1.87972643       1.32916810       5.77240933      -0.00495198      -0.00350094       0.00000020
O        4.78567751       3.38398516       5.77240987       0.00495277       0.00350258       0.00000047
O        4.05918987       1.32916795       4.51409540       0.00247621      -0.00350167      -0.00428881
O        2.60621404       3.38398583       7.03072314      -0.00247616       0.00350128       0.00428757
O        2.60621480       3.38398521       4.51409640      -0.00247656       0.00350231      -0.00428873
O        4.05919001       1.32916709       7.03072370       0.00247528      -0.00350150       0.00428788
