9
Lattice="5.880100267556243 5.191903027665601e-08 3.394877494691914 1.960033449148195 5.5438117888027385 3.3948775333517998 1.3984335435301697e-08 5.7236872525213404e-08 6.789754965162242" Properties=species:S:1:pos:R:3:forces:R:3 energy=-35.5760498046875 free_energy=-35.5760498046875 stress="-0.0002879610692616552 3.0169811093827548e-09 1.3523871800202869e-08 3.0169811093827548e-09 -0.0002879736421164125 -4.784568297111491e-09 1.3523871800202869e-08 -4.784568297111491e-09 -0.00028798572020605206" pbc="T T T"
Ca       1.96003309       1.38595296       3.39487756      -0.00000067       0.00000033       0.00000008
Ca       5.88010062       4.15785906      10.18463252       0.00000055      -0.00000032       0.00000005
As      -0.00000011       0.00000096       0.00000111       0.00000062      -0.00001154      -0.00001079
Se       2.05099423       1.45027201       6.78975499       0.00376707       0.00266352      -0.00000030
Se       5.78913918       4.09353958       6.78975498      -0.00376093      -0.00265953      -0.00000028
Se       4.85460336       1.45027195       5.17109025      -0.00188556       0.00266629       0.00326559
Se       2.98553089       4.09353944       8.40841879       0.00187851      -0.00265726      -0.00325397
Se       2.98553059       4.09353967       5.17109064       0.00188173      -0.00266197       0.00325963
Se       4.85460310       1.45027200       8.40841906      -0.00188170       0.00266042      -0.00325993
