9
Lattice="4.287257559231124 3.116730648440294e-07 2.4752493319204407 1.429086044544231 4.042065831396799 2.475249509249574 -1.4374867485005911e-08 2.0701834990258762e-07 4.950498688738879" Properties=species:S:1:pos:R:3:forces:R:3 energy=-53.511043548583984 free_energy=-53.511043548583984 stress="0.0004362917970865965 1.9006706963864417e-07 2.0494672625659405e-08 1.9006706963864417e-07 0.0004361844912637025 2.112268582266097e-08 2.0494672625659405e-08 2.112268582266097e-08 0.00043612634181044996" pbc="T T T"
Ca       1.42908590       1.01051675       2.47524943      -0.00000025      -0.00000057       0.00000019
Ca       4.28725787       3.03154964       7.42574853       0.00000215      -0.00000131      -0.00000145
B        0.00000003      -0.00000029      -0.00000081      -0.00000523       0.00001205       0.00002982
O        1.25349162       0.88635249       4.95049897      -0.00679755      -0.00480433      -0.00000633
O        4.46285186       3.15571385       4.95049905       0.00679904       0.00480473      -0.00000591
O        3.66051204       0.88635254       3.56080468       0.00339513      -0.00480090      -0.00588226
O        2.05583194       3.15571356       6.34019264      -0.00339484       0.00479646       0.00587443
O        2.05583160       3.15571379       3.56080501      -0.00339505       0.00479664      -0.00588349
O        3.66051175       0.88635306       6.34019293       0.00339665      -0.00480260       0.00587520
