9
Lattice="5.807243160102719 -1.0142372861398936e-07 3.352813278052914 1.9357476330050722 5.475120775690811 3.3528132631675454 -5.477624879290333e-08 -5.696342135548012e-08 6.7056266509810305" Properties=species:S:1:pos:R:3:forces:R:3 energy=-36.47771453857422 free_energy=-36.47771453857422 stress="-4.198084207018837e-05 4.815185050688342e-08 -1.3368214091258324e-08 4.815185050688342e-08 -4.2080573621205986e-05 -1.2570104068743149e-08 -1.3368214091258324e-08 -1.2570104068743149e-08 -4.2154628317803144e-05" pbc="T T T"
Ca       1.93574792       1.36877997       3.35281332       0.00000030      -0.00000018       0.00000020
Ca       5.80724290       4.10634043      10.05843990      -0.00000024       0.00000056      -0.00000035
Bi       0.00000004       0.00000001       0.00000014      -0.00000946       0.00000363       0.00000348
S        2.01782641       1.42681830       6.70562664      -0.00108185      -0.00076404       0.00000015
S        5.72516447       4.04830183       6.70562677       0.00108644       0.00076729      -0.00000169
S        4.79833004       1.42681842       5.10030165       0.00054243      -0.00076407      -0.00093704
S        2.94466057       4.04830236       8.31095118      -0.00053985       0.00076053       0.00093210
S        2.94466076       4.04830269       5.10030164      -0.00053838       0.00076088      -0.00093222
S        4.79832974       1.42681846       8.31095154       0.00054088      -0.00076431       0.00093535
