9
Lattice="6.145209753821944 1.1167106911925753e-07 3.5479383619650706 2.048403384181835 5.793759202780927 3.5479383141199556 4.733492943591589e-08 -2.512728291456403e-08 7.095876641943678" Properties=species:S:1:pos:R:3:forces:R:3 energy=-33.71858596801758 free_energy=-33.71858596801758 stress="-2.748060978774447e-05 3.713999774390686e-08 2.1397736915673704e-08 3.713999774390686e-08 -2.7493621018948033e-05 -4.345324100540893e-08 2.1397736915673704e-08 -4.345324100540893e-08 -2.7524416509550065e-05" pbc="T T T"
Ca       2.04840300       1.44844063       3.54793851      -0.00000038       0.00000296       0.00000007
Ca       6.14520990       4.34531865      10.64381478       0.00000036      -0.00000212       0.00000018
Bi       0.00000021       0.00000057      -0.00000074      -0.00000122      -0.00000693       0.00000967
Se       2.26429209       1.60109675       7.09587665      -0.00001132      -0.00000717      -0.00000138
Se       5.92932090       4.19266234       7.09587686       0.00001326       0.00000983      -0.00000071
Se       5.01306400       1.60109636       5.50887265       0.00000422      -0.00000541      -0.00000936
Se       3.18054918       4.19266266       8.68288094      -0.00000361       0.00000536       0.00000632
Se       3.18054938       4.19266274       5.50887294      -0.00000625       0.00000969      -0.00001201
Se       5.01306409       1.60109637       8.68288065       0.00000506      -0.00000618       0.00000718
