9
Lattice="5.614414076797073 -6.124639607361172e-10 3.241483575050937 1.8714713880371712 5.29332073903114 3.2414835236398223 6.598041060636801e-08 -1.631029680523651e-08 6.482967035820481" Properties=species:S:1:pos:R:3:forces:R:3 energy=-37.178260803222656 free_energy=-37.178260803222656 stress="-0.0001571276952745393 -2.2896544660255813e-09 -1.4997828534646374e-09 -2.2896544660255813e-09 -0.00015714792243670672 -1.9456024347164202e-08 -1.4997828534646374e-09 -1.9456024347164202e-08 -0.00015713264292571694" pbc="T T T"
Ca       1.87147125       1.32332953       3.24148357       0.00000059      -0.00000018      -0.00000004
Ca       5.61441405       3.96999088       9.72445047       0.00000010      -0.00000041       0.00000065
B        0.00000037       0.00000083       0.00000097       0.00000005       0.00000058      -0.00000004
Se       1.78222916       1.26022617       6.48296679       0.00491192       0.00347209       0.00000018
Se       5.70365598       4.03309430       6.48296716      -0.00490988      -0.00347304      -0.00000080
Se       4.72329956       1.26022613       4.78493892      -0.00245583       0.00347352       0.00425512
Se       2.76258607       4.03309426       8.18099438       0.00245418      -0.00347189      -0.00425200
Se       2.76258605       4.03309414       4.78493952       0.00245448      -0.00347191       0.00425100
Se       4.72329960       1.26022658       8.18099492      -0.00245552       0.00347131      -0.00425368
