9
Lattice="6.599757079681081 -9.258363703273373e-08 3.810371537781167 2.1999189760166673 6.222310591245552 3.8103714741368844 4.952701486029153e-08 -4.292703959030019e-08 7.62074298977903" Properties=species:S:1:pos:R:3:forces:R:3 energy=-30.938766479492188 free_energy=-30.938766479492188 stress="-0.00012158809113316238 -1.1040175884602377e-08 -8.52995363231912e-09 -1.1040175884602377e-08 -0.00012157401215517893 -6.441587818706296e-10 -8.52995363231912e-09 -6.441587818706296e-10 -0.00012159880861872807" pbc="T T T"
Ca       2.19991903       1.55557732       3.81037151       0.00000091      -0.00000100       0.00000090
Ca       6.59975721       4.66673327      11.43111435       0.00000060       0.00000080      -0.00000006
Bi       0.00000012       0.00000008      -0.00000020      -0.00000022      -0.00000090       0.00000289
Te       2.43034190       1.71851082       7.62074313      -0.00244823      -0.00173062      -0.00000120
Te       6.36933453       4.50379966       7.62074301       0.00244716       0.00173107      -0.00000009
Te       5.38458603       1.71851082       5.91510918       0.00122285      -0.00173122      -0.00212052
Te       3.41508967       4.50379958       9.32637708      -0.00122301       0.00173132       0.00211930
Te       3.41508975       4.50379951       5.91510912      -0.00122431       0.00173075      -0.00212064
Te       5.38458615       1.71851071       9.32637685       0.00122426      -0.00173034       0.00211942
