9
Lattice="6.138921091767296 -2.166050477361239e-07 3.544307660269643 2.0463067910449535 5.787830150995793 3.5443077214577534 -1.270814007048884e-07 -1.492030581956822e-08 7.088615540650704" Properties=species:S:1:pos:R:3:forces:R:3 energy=-32.51533126831055 free_energy=-32.51533126831055 stress="-2.7286163458484225e-05 1.2322987963386822e-08 1.0760174973256653e-08 1.2322987963386822e-08 -2.7289255740470253e-05 1.1939405020200411e-08 1.0760174973256653e-08 1.1939405020200411e-08 -2.7286721888231114e-05" pbc="T T T"
Ca       2.04630715       1.44695774       3.54430813       0.00000095      -0.00000037       0.00000090
Ca       6.13892055       4.34087246      10.63292317      -0.00000042      -0.00000030      -0.00000084
B       -0.00000017      -0.00000003       0.00000015       0.00000002      -0.00000067       0.00000041
Te       1.91285850       1.35259490       7.08861495       0.00038283       0.00027117       0.00000077
Te       6.27236940       4.43523474       7.08861566      -0.00038196      -0.00027035       0.00000025
Te       5.18249124       1.35259537       5.20089153      -0.00019059       0.00026996       0.00033166
Te       3.00273625       4.43523479       8.97633906       0.00019120      -0.00027154      -0.00033204
Te       3.00273647       4.43523444       5.20089173       0.00019032      -0.00026920       0.00033106
Te       5.18249157       1.35259525       8.97633940      -0.00019243       0.00027122      -0.00033225
