9
Lattice="5.338967475747539 1.3628511345388106e-07 3.082454300085524 1.7796558988129656 5.033627249914704 3.0824543952219288 -3.7151908136889633e-09 1.1389080110887157e-07 6.16490860660609" Properties=species:S:1:pos:R:3:forces:R:3 energy=-40.27146530151367 free_energy=-40.27146530151367 stress="-1.7863729226519354e-05 -1.42178846820884e-12 -1.526066029100548e-08 -1.42178846820884e-12 -1.7880294763017446e-05 8.863352718435635e-09 -1.526066029100548e-08 8.863352718435635e-09 -1.7893775293487124e-05" pbc="T T T"
Ca       1.77965575       1.25840685       3.08245436       0.00000072       0.00000062      -0.00000077
Ca       5.33896740       3.77522037       9.24736317       0.00000011       0.00000024       0.00000028
B        0.00000050       0.00000050      -0.00000003      -0.00000467      -0.00000421       0.00000125
S        1.65350105       1.16920194       6.16490900      -0.00273961      -0.00193703      -0.00000160
S        5.46512193       3.86442526       6.16490880       0.00274479       0.00194168      -0.00000068
S        4.51221724       1.16920177       4.51442849       0.00136942      -0.00193855      -0.00237477
S        2.60640677       3.86442552       7.81538871      -0.00137135       0.00193951       0.00237495
S        2.60640614       3.86442542       4.51442828      -0.00136936       0.00193638      -0.00237161
S        4.51221702       1.16920224       7.81538859       0.00137019      -0.00193873       0.00237268
