9
Lattice="5.469960063857705 1.754730907984393e-07 3.1580832030750754 1.8233200005301584 5.157128624596532 3.158083525571327 -6.345268947169924e-08 3.50107851213647e-07 6.316166516053404" Properties=species:S:1:pos:R:3:forces:R:3 energy=-36.28290557861328 free_energy=-36.28290557861328 stress="3.302195909782313e-05 -2.8892491954479738e-08 2.5440218820449445e-09 -2.8892491954479738e-08 3.305635982542299e-05 -4.891917981808547e-08 2.5440218820449445e-09 -4.891917981808547e-08 3.309152089059353e-05" pbc="T T T"
Ca       1.82331980       1.28928253       3.15808317       0.00000030      -0.00000032      -0.00000031
Ca       5.46995969       3.86784607       9.47424933      -0.00000002       0.00000047       0.00000062
Ga      -0.00000020       0.00000002      -0.00000004       0.00000160      -0.00000044       0.00000207
S        1.87127892       1.32319452       6.31616662       0.00378896       0.00267967       0.00000050
S        5.42200068       3.83393497       6.31616713      -0.00378858      -0.00267827       0.00000052
S        4.53432054       1.32319453       4.77865854      -0.00189432       0.00267751       0.00328039
S        2.75895964       3.83393448       7.85367547       0.00189348      -0.00268000      -0.00328137
S        2.75895979       3.83393425       4.77865871       0.00189272      -0.00267705       0.00327839
S        4.53432110       1.32319520       7.85367429      -0.00189410       0.00267852      -0.00328062
