9
Lattice="6.367790830454559 1.0389341049892583e-07 3.6764457975905076 2.122597015001808 6.003610809936752 3.6764458433767166 -1.124393207416948e-08 4.812577242033277e-08 7.352891614656153" Properties=species:S:1:pos:R:3:forces:R:3 energy=-30.762815475463867 free_energy=-30.762815475463867 stress="-4.7096914386202116e-06 8.249239513702378e-09 -3.8390854939507335e-09 8.249239513702378e-09 -4.7022699618537445e-06 -2.571822976804583e-09 -3.8390854939507335e-09 -2.571822976804583e-09 -4.714992428489495e-06" pbc="T T T"
Ca       2.12259710       1.50090298       3.67644582      -0.00000037       0.00000012       0.00000024
Ca       6.36779080       4.50270811      11.02933760       0.00000016      -0.00000042       0.00000041
Ga      -0.00000002       0.00000000      -0.00000041       0.00000051       0.00000028       0.00000184
Te       2.25158467       1.59211075       7.35289165       0.00609601       0.00431038       0.00000026
Te       6.23880323       4.41150004       7.35289159      -0.00609593      -0.00430974      -0.00000016
Te       5.24199870       1.59211113       5.62637531      -0.00304802       0.00431040       0.00527868
Te       3.24838889       4.41150018       9.07940816       0.00304829      -0.00431140      -0.00528072
Te       3.24838901       4.41149984       5.62637520       0.00304729      -0.00431049       0.00527929
Te       5.24199899       1.59211081       9.07940808      -0.00304814       0.00431079      -0.00527973
