9
Lattice="5.812646458138467 -1.432048781090968e-07 3.3559330368975013 1.9375487594273166 5.48021557518274 3.3559329068851262 -4.294838121442455e-10 -1.5953557826361498e-07 6.711866074538887" Properties=species:S:1:pos:R:3:forces:R:3 energy=-33.59583282470703 free_energy=-33.59583282470703 stress="-1.691148463578429e-05 4.685911214608041e-09 1.9868743095230457e-08 4.685911214608041e-09 -1.6941850844887085e-05 1.9119994476568536e-09 1.9868743095230457e-08 1.9119994476568536e-09 -1.6918625988182612e-05" pbc="T T T"
Ca       1.93754886       1.37005463       3.35593302      -0.00000043       0.00000015       0.00000032
Ca       5.81264617       4.11016148      10.06779921      -0.00000001      -0.00000045       0.00000054
Ga       0.00000009      -0.00000012       0.00000033      -0.00000012      -0.00000149       0.00000033
Se       2.03854032       1.44146565       6.71186609       0.00064415       0.00045572      -0.00000015
Se       5.71165446       4.03874945       6.71186566      -0.00064242      -0.00045407      -0.00000010
Se       4.79337642       1.44146575       5.12136069      -0.00032172       0.00045472       0.00055781
Se       2.95681915       4.03874923       8.30237111       0.00032206      -0.00045595      -0.00055726
Se       2.95681919       4.03874944       5.12136096       0.00032045      -0.00045444       0.00055704
Se       4.79337626       1.44146559       8.30237102      -0.00032213       0.00045571      -0.00055847
