9
Lattice="5.532330989708927 1.0639892201128443e-07 3.1940926085984596 1.8441103781410704 5.215931756133361 3.194092698796321 -6.760334324840749e-08 6.266657282022435e-08 6.388185334289401" Properties=species:S:1:pos:R:3:forces:R:3 energy=-43.40592956542969 free_energy=-43.40592956542969 stress="0.00037364460877142847 2.0728219141119553e-08 -1.4607964615720448e-08 2.0728219141119553e-08 0.0003736332000698894 1.2688005313066242e-08 -1.4607964615720448e-08 1.2688005313066242e-08 0.00037366553442552686" pbc="T T T"
Ca       1.84411024       1.30398281       3.19409231      -0.00000003       0.00000031       0.00000007
Ca       5.53233107       3.91194938       9.58227812      -0.00000012      -0.00000029      -0.00000082
Ir       0.00000022      -0.00000039       0.00000045      -0.00000018      -0.00000028       0.00000032
S        1.88622932       1.33376586       6.38818527       0.00816828       0.00577581       0.00000076
S        5.49021172       3.88216634       6.38818557      -0.00816786      -0.00577533       0.00000041
S        4.58921624       1.33376574       4.82761497      -0.00408474       0.00577760       0.00707620
S        2.78722473       3.88216675       7.94875530       0.00408506      -0.00577688      -0.00707537
S        2.78722512       3.88216610       4.82761498       0.00408551      -0.00577885       0.00707585
S        4.58921659       1.33376526       7.94875551      -0.00408575       0.00577807      -0.00707752
