9
Lattice="4.761919713951431 -8.638214401691818e-08 2.7492957649254466 1.587306477574238 4.489581293525035 2.7492957862314666 9.829900363679536e-08 9.560232865164005e-08 5.49859135959202" Properties=species:S:1:pos:R:3:forces:R:3 energy=-55.43364715576172 free_energy=-55.43364715576172 stress="-2.1848638425581157e-05 -2.1296517616065103e-07 2.0414081092212655e-08 -2.1296517616065103e-07 -2.1699661374441348e-05 1.987868358810374e-08 2.0414081092212655e-08 1.987868358810374e-08 -2.156429400201887e-05" pbc="T T T"
Ca       1.58730654       1.12239533       2.74929622      -0.00000006       0.00000114       0.00000060
Ca       4.76191933       3.36718575       8.24788672       0.00000022      -0.00000011       0.00000131
Ir      -0.00000000       0.00000027       0.00000055       0.00000987      -0.00000099      -0.00001241
O        1.54763511       1.09434324       5.49859129      -0.00103742      -0.00073481       0.00000017
O        4.80159196       3.39523815       5.49859180       0.00102809       0.00072718      -0.00000015
O        3.98810158       1.09434402       4.08958785       0.00052345      -0.00073910      -0.00090605
O        2.36112445       3.39523709       6.90759479      -0.00052676       0.00074658       0.00091493
O        2.36112465       3.39523706       4.08958760      -0.00052348       0.00074324      -0.00090924
O        3.98810193       1.09434412       6.90759476       0.00052610      -0.00074315       0.00091112
