9
Lattice="5.8373389327285405 -1.6989913886822513e-07 3.3701893395022435 1.94577955097268 5.503496086841347 3.3701892236067676 -6.46617718061034e-08 -1.8766513695381159e-07 6.7403787910019926" Properties=species:S:1:pos:R:3:forces:R:3 energy=-40.42467498779297 free_energy=-40.42467498779297 stress="-8.23904247226892e-06 1.4442443685425133e-08 5.793673540921418e-09 1.4442443685425133e-08 -8.248521226050798e-06 7.985881289584995e-09 5.793673540921418e-09 7.985881289584995e-09 -8.250206519733183e-06" pbc="T T T"
Ca       1.94577942       1.37587365       3.37018901      -0.00000003      -0.00000020      -0.00000058
Ca       5.83733865       4.12762192      10.11056860      -0.00000042       0.00000016       0.00000078
Ir      -0.00000024      -0.00000026      -0.00000011       0.00000059       0.00000025      -0.00000002
Se       2.00861334       1.42030420       6.74037866       0.00039265       0.00027777      -0.00000051
Se       5.77450469       4.08319142       6.74037843      -0.00039147      -0.00027768       0.00000108
Se       4.83303241       1.42030419       5.10969976      -0.00019668       0.00027807       0.00034086
Se       2.95008668       4.08319196       8.37105770       0.00019650      -0.00027831      -0.00034094
Se       2.95008688       4.08319208       5.10969968       0.00019538      -0.00027761       0.00033905
Se       4.83303180       1.42030374       8.37105765      -0.00019640       0.00027752      -0.00033973
