9
Lattice="4.720046840646281 -4.0261050342017294e-08 2.725120288008887 1.5733489165753682 4.4501025229882565 2.725120274755562 4.495636538890707e-08 1.55570860707847e-08 5.4502404981510075" Properties=species:S:1:pos:R:3:forces:R:3 energy=-56.60095977783203 free_energy=-56.60095977783203 stress="-0.00018863497825805098 -9.539232337374415e-08 7.233786902816064e-08 -9.539232337374415e-08 -0.00018890018691308796 -5.53388534996202e-09 7.233786902816064e-08 -5.53388534996202e-09 -0.00018895085668191314" pbc="T T T"
Ca       1.57334903       1.11252553       2.72511983       0.00000161       0.00000009       0.00000006
Ca       4.72004671       3.33757752       8.17536077       0.00000043       0.00000059       0.00000002
Mo       0.00000028       0.00000012      -0.00000025       0.00000033       0.00000243       0.00000703
O        1.56675985       1.10786582       5.45024047       0.00147927       0.00104648       0.00000117
O        4.72663639       3.34223755       5.45024038      -0.00148904      -0.00105172       0.00000246
O        3.93666700       1.10786655       4.08197400      -0.00073391       0.00104302       0.00127769
O        2.35672861       3.34223548       6.81850828       0.00074202      -0.00104958      -0.00128436
O        2.35672861       3.34223558       4.08197387       0.00073647      -0.00104189       0.00128055
O        3.93666709       1.10786580       6.81850730      -0.00073844       0.00105041      -0.00128436
