9
Lattice="5.949445341033123 5.861253644903152e-08 3.434913894309779 1.983148525975953 5.609190829617127 3.43491385325236 4.368547570328853e-08 -1.9394531812439128e-08 6.8698277129540415" Properties=species:S:1:pos:R:3:forces:R:3 energy=-42.90489196777344 free_energy=-42.90489196777344 stress="-5.104920273879543e-05 1.4457635089115684e-08 1.1419169609894197e-08 1.4457635089115684e-08 -5.103757939650677e-05 3.185991204190941e-08 1.1419169609894197e-08 3.185991204190941e-08 -5.100556154502556e-05" pbc="T T T"
Ca       1.98314881       1.40229783       3.43491344      -0.00000148       0.00000044       0.00000088
Ca       5.94944534       4.20689303      10.30474206       0.00000001       0.00000030      -0.00000021
Mo       0.00000014       0.00000014      -0.00000046      -0.00000029      -0.00000170       0.00000243
Se       2.01320466       1.42355072       6.86982768       0.00209340       0.00147974       0.00000070
Se       5.91938907       4.18564001       6.86982767      -0.00209168      -0.00147827       0.00000063
Se       4.94284316       1.42355055       5.17839999      -0.00104484       0.00147852       0.00181091
Se       2.98975046       4.18564055       8.56125560       0.00104798      -0.00148146      -0.00181320
Se       2.98975076       4.18564038       5.17840025       0.00104564      -0.00147946       0.00181212
Se       4.94284327       1.42355030       8.56125562      -0.00104874       0.00148194      -0.00181445
