9
Lattice="5.592249049590844 -1.974673519117187e-07 3.228686510096807 1.8640829450271799 5.2724223106521935 3.228686311481007 5.851970581803484e-08 -2.0187402038824305e-07 6.457372918834615" Properties=species:S:1:pos:R:3:forces:R:3 energy=-46.957618713378906 free_energy=-46.957618713378906 stress="-1.0429798749100883e-05 -4.7630997812575515e-08 -5.876637398927187e-09 -4.7630997812575515e-08 -1.0399574421171565e-05 2.102997953556951e-08 -5.876637398927187e-09 2.102997953556951e-08 -1.0355945960327517e-05" pbc="T T T"
Ca       1.86408299       1.31810579       3.22868642      -0.00000069       0.00000107       0.00000012
Ca       5.59224887       3.95431644       9.68605905      -0.00000035       0.00000075      -0.00000015
Mo       0.00000008      -0.00000036      -0.00000010       0.00000292       0.00000424      -0.00000308
S        1.89968818       1.34328183       6.45737297       0.00014812       0.00010532      -0.00000011
S        5.55664434       3.92914023       6.45737317      -0.00015481      -0.00010998      -0.00000037
S        4.64240489       1.34328148       4.87386468      -0.00007349       0.00010616       0.00012682
S        2.81392700       3.92914025       8.04088127       0.00007436      -0.00010423      -0.00012694
S        2.81392671       3.92914044       4.87386436       0.00007702      -0.00010768       0.00012997
S        4.64240513       1.34328156       8.04088115      -0.00007314       0.00010449      -0.00012627
