9
Lattice="4.545783668572453 -3.0337439329386924e-07 2.6245094803273004 1.5152608959427707 4.285806171065886 2.6245095511518195 -8.216508831319071e-08 2.864253708827249e-08 5.249019102968617" Properties=species:S:1:pos:R:3:forces:R:3 energy=-48.25176239013672 free_energy=-48.25176239013672 stress="-0.00012725149281322956 7.38536130029388e-08 -1.526544113339412e-09 7.38536130029388e-08 -0.00012732653704006225 -2.1293603325034383e-08 -1.526544113339412e-09 -2.1293603325034383e-08 -0.00012748368317261338" pbc="T T T"
Ca       1.51526177       1.07145020       2.62450654       0.00000074      -0.00000444      -0.00000586
Ca       4.54578409       3.21435306       7.87352634      -0.00000016      -0.00000176      -0.00000653
N       -0.00000121      -0.00000008      -0.00000302       0.00000781       0.00000768       0.00004478
O        1.28068495       0.90558090       5.24902173       0.00368547       0.00261068      -0.00001637
O        4.78035831       3.38022528       5.24902101      -0.00367785      -0.00260305      -0.00001415
O        3.90544125       0.90558117       3.73361675      -0.00185525       0.00261796       0.00319147
O        2.15560545       3.38022317       6.76442206       0.00182849      -0.00259674      -0.00319326
O        2.15560324       3.38022672       3.73361707       0.00184602      -0.00262189       0.00319302
O        3.90544001       0.90558263       6.76442354      -0.00183511       0.00259149      -0.00319088
