9
Lattice="5.52089060275835 2.526212233412298e-07 3.1874872794046554 1.8402970492968798 5.205145604181787 3.1874873772010766 4.181444760333036e-08 1.4934301170286013e-07 6.374974486384547" Properties=species:S:1:pos:R:3:forces:R:3 energy=-40.70537185668945 free_energy=-40.70537185668945 stress="0.00019405984494369477 1.072382644906611e-07 -2.3437102925072395e-08 1.072382644906611e-07 0.0001939944049809128 2.1372624503523951e-10 -2.3437102925072395e-08 2.1372624503523951e-10 0.00019398894801270217" pbc="T T T"
Ca       1.84029702       1.30128695       3.18748723       0.00000043       0.00000003       0.00000079
Ca       5.52089104       3.90385964       9.56246121      -0.00000027      -0.00000016       0.00000103
P       -0.00000041      -0.00000028      -0.00000113       0.00000452       0.00000231       0.00003025
S        1.78267247       1.26053991       6.37497440       0.00053191       0.00037551       0.00000175
S        5.57851555       3.94460577       6.37497482      -0.00053453      -0.00037909       0.00000229
S        4.62955395       1.26054035       4.73132678      -0.00026572       0.00037426       0.00046033
S        2.73163270       3.94460672       8.01862323       0.00027668      -0.00039065      -0.00047851
S        2.73163331       3.94460564       4.73132673       0.00026470      -0.00037509       0.00046140
S        4.62955521       1.26053943       8.01862329      -0.00027746       0.00039351      -0.00047940
