9
Lattice="5.711570901666573 -1.4435300599170563e-08 3.297576995598841 1.9038570049487282 5.384920552438412 3.2975769066817557 1.070337339841462e-07 -3.3216428556593696e-08 6.5951538058097" Properties=species:S:1:pos:R:3:forces:R:3 energy=-37.33225631713867 free_energy=-37.33225631713867 stress="-5.750300260842778e-06 2.857438063941231e-09 9.476050166767891e-09 2.857438063941231e-09 -5.723290996684227e-06 -1.7411549535495396e-08 9.476050166767891e-09 -1.7411549535495396e-08 -5.710927325708326e-06" pbc="T T T"
Ca       1.90385693       1.34622992       3.29757735      -0.00000020      -0.00000000       0.00000005
Ca       5.71157128       4.03869071       9.89273082       0.00000019      -0.00000063       0.00000047
P       -0.00000001       0.00000009      -0.00000018       0.00000361      -0.00000442       0.00000265
Se       1.88076257       1.32989989       6.59515378       0.00021920       0.00015488       0.00000035
Se       5.73466527       4.05502058       6.59515373      -0.00021937      -0.00015481       0.00000009
Se       4.77118973       1.32989991       4.92636485      -0.00011033       0.00015643       0.00019136
Se       2.84423816       4.05502081       8.26394276       0.00010981      -0.00015506      -0.00018978
Se       2.84423834       4.05502052       4.92636517       0.00010771      -0.00015248       0.00018623
Se       4.77118981       1.32989962       8.26394267      -0.00011054       0.00015607      -0.00019157
