9
Lattice="4.435411330428517 -2.6358153857365545e-07 2.5607848656896164 1.4784702978483597 4.181744877636388 2.560784687497547 -2.0854231239246005e-08 -2.3298596489190213e-07 5.121569767499806" Properties=species:S:1:pos:R:3:forces:R:3 energy=-55.85696029663086 free_energy=-55.85696029663086 stress="0.00013280271377880126 -8.838819809398046e-08 -1.20619020549384e-07 -8.838819809398046e-08 0.00013294935342855752 -4.6922821184125496e-08 -1.20619020549384e-07 -4.6922821184125496e-08 0.0001325818884652108" pbc="T T T"
Ca       1.47847047       1.04543588       2.56078466       0.00000197       0.00000001       0.00000118
Ca       4.43541172       3.13630859       7.68235459      -0.00000429      -0.00000245      -0.00000130
P       -0.00000018      -0.00000040      -0.00000026       0.00000137       0.00001289       0.00001296
O        1.40764434       0.99535419       5.12156975       0.00820935       0.00580442      -0.00000079
O        4.50623757       3.18639041       5.12156960      -0.00821531      -0.00580740       0.00000184
O        3.73158885       0.99535516       3.77984048      -0.00410068       0.00579929       0.00710559
O        2.18229201       3.18638995       6.46329992       0.00411010      -0.00581133      -0.00712001
O        2.18229250       3.18638963       3.77983986       0.00410396      -0.00580275       0.00711286
O        3.73158883       0.99535409       6.46329915      -0.00410485       0.00580788      -0.00711036
