9
Lattice="5.491094525231331 3.643607957870545e-08 3.17028486002891 1.8303649172348595 5.177053113106789 3.170284788774384 1.0403435882320139e-07 -1.3705185454855692e-08 6.340569539864998" Properties=species:S:1:pos:R:3:forces:R:3 energy=-42.26286315917969 free_energy=-42.26286315917969 stress="-1.831203917390667e-05 3.083064825659676e-08 2.889147943108128e-08 3.083064825659676e-08 -1.8310312952962704e-05 -3.748424859395527e-08 2.889147943108128e-08 -3.748424859395527e-08 -1.8333865227759816e-05" pbc="T T T"
Ca       1.83036499       1.29426302       3.17028471      -0.00000014       0.00000039       0.00000015
Ca       5.49109457       3.88278983       9.51085498      -0.00000026      -0.00000010       0.00000008
Rh      -0.00000007      -0.00000005      -0.00000064       0.00000014      -0.00000076       0.00000223
S        1.87237086       1.32396620       6.34056974       0.00044799       0.00031587       0.00000003
S        5.44908855       3.85308729       6.34056954      -0.00044787      -0.00031728       0.00000060
S        4.55490944       1.32396581       4.79180496      -0.00022617       0.00031957       0.00039208
S        2.76655016       3.85308726       7.88933399       0.00022680      -0.00031984      -0.00039226
S        2.76655029       3.85308727       4.79180525       0.00022459      -0.00031722       0.00038868
S        4.55490928       1.32396586       7.88933413      -0.00022513       0.00031960      -0.00039196
