9
Lattice="4.742456117020945 3.646367630193311e-08 2.7380580812831816 1.5808187042889619 4.471230667737528 2.738058143226441 -7.01761312928953e-08 2.624263952558068e-08 5.476116284115098" Properties=species:S:1:pos:R:3:forces:R:3 energy=-56.60967254638672 free_energy=-56.60967254638672 stress="3.014784488186706e-05 1.0906654068776334e-07 -5.1124743549735285e-08 1.0906654068776334e-07 3.0203113055904396e-05 3.84375837825246e-08 -5.1124743549735285e-08 3.84375837825246e-08 3.004232894454617e-05" pbc="T T T"
Ca       1.58081840       1.11780753       2.73805792       0.00000094       0.00000004      -0.00000000
Ca       4.74245590       3.35342301       8.21417408      -0.00000230      -0.00000150      -0.00000223
Ru       0.00000011      -0.00000008      -0.00000053      -0.00000114       0.00000154       0.00000671
O        1.52879966       1.08102462       5.47611638      -0.00271648      -0.00192091       0.00000213
O        4.79447489       3.39020587       5.47611674       0.00271827       0.00192150      -0.00000154
O        3.97805623       1.08102417       4.06203672       0.00135708      -0.00191674      -0.00234687
O        2.34521883       3.39020650       6.89019594      -0.00135586       0.00191498       0.00234270
O        2.34521833       3.39020652       4.06203656      -0.00135371       0.00191626      -0.00234401
O        3.97805651       1.08102464       6.89019594       0.00135338      -0.00191543       0.00234228
