9
Lattice="5.817694475113238 4.308640380094349e-08 3.358847187329252 1.9392315858219982 5.4849746196668665 3.3588470946726194 4.467095873732559e-08 -8.189352136166794e-08 6.717694297285996" Properties=species:S:1:pos:R:3:forces:R:3 energy=-41.1602668762207 free_energy=-41.1602668762207 stress="-0.00010130327427759767 8.11568146019681e-09 1.3284189304130223e-09 8.11568146019681e-09 -0.00010126759298145771 1.4268328740740799e-08 1.3284189304130223e-09 1.4268328740740799e-08 -0.00010128512803930789" pbc="T T T"
Ca       1.93923148       1.37124365       3.35884707      -0.00000030      -0.00000020       0.00000015
Ca       5.81769446       4.11373099      10.07654135       0.00000018       0.00000011       0.00000005
Ru       0.00000005      -0.00000012       0.00000047      -0.00000070       0.00000032      -0.00000185
Se       1.99976910       1.41405019       6.71769418      -0.00453946      -0.00321048       0.00000040
Se       5.75715710       4.07092419       6.71769426       0.00453936       0.00321065       0.00000032
Se       4.81780989       1.41405046       5.09069759       0.00226934      -0.00320960      -0.00393200
Se       2.93911585       4.07092436       8.34469075      -0.00226951       0.00320934       0.00393154
Se       2.93911613       4.07092450       5.09069781      -0.00226896       0.00320999      -0.00393102
Se       4.81781031       1.41405007       8.34469077       0.00227007      -0.00321014       0.00393236
