9
Lattice="5.477847504833534 8.223988235806471e-08 3.1626365523414557 1.8259492371758221 5.164564358349882 3.162636567303812 7.937377022358798e-08 7.445080322346588e-08 6.325272967203506" Properties=species:S:1:pos:R:3:forces:R:3 energy=-43.746700286865234 free_energy=-43.746700286865234 stress="-0.0003108721284661442 -9.292339120392512e-10 5.9008073982624865e-09 -9.292339120392512e-10 -0.0003108651435468346 -3.510505308668144e-08 5.9008073982624865e-09 -3.510505308668144e-08 -0.00031085635419003665" pbc="T T T"
Ca       1.82594946       1.29114137       3.16263646       0.00000043       0.00000155       0.00000040
Ca       5.47784736       3.87342301       9.48790941      -0.00000017      -0.00000105      -0.00000005
Ru       0.00000009      -0.00000258       0.00000214      -0.00000015      -0.00001205       0.00000726
S        1.88274415       1.33130177       6.32527257      -0.00420976      -0.00297430      -0.00000235
S        5.42105283       3.83326361       6.32527293       0.00420767       0.00297689      -0.00000277
S        4.53647537       1.33130163       4.79313999       0.00210422      -0.00297147      -0.00364542
S        2.76732156       3.83326362       7.85740529      -0.00210494       0.00297862       0.00364250
S        2.76732100       3.83326379       4.79314026      -0.00210246       0.00297704      -0.00364423
S        4.53647535       1.33130190       7.85740527       0.00210527      -0.00297505       0.00364441
