9
Lattice="5.8006936821914685 -3.4678592798539736e-07 3.349032266174045 1.9335644089949038 5.468946216158321 3.3490319626886267 1.415102145725976e-07 -2.716292387501643e-07 6.698064287245156" Properties=species:S:1:pos:R:3:forces:R:3 energy=-39.45740509033203 free_energy=-39.45740509033203 stress="-3.326742444187403e-05 -1.580989561489332e-08 -2.099272222721993e-08 -1.580989561489332e-08 -3.3262422221014276e-05 4.1031086084331037e-08 -2.099272222721993e-08 4.1031086084331037e-08 -3.325122088426724e-05" pbc="T T T"
Ca       1.93356468       1.36723656       3.34903203       0.00000033       0.00000006      -0.00000048
Ca       5.80069357       4.10170911      10.04709644      -0.00000034      -0.00000044      -0.00000060
Rh       0.00000006      -0.00000002      -0.00000022       0.00000171      -0.00000043       0.00000014
Se       1.99211305       1.40863669       6.69806439       0.00010486       0.00007442      -0.00000011
Se       5.74214523       4.06030883       6.69806458      -0.00010453      -0.00007577      -0.00000017
Se       4.80463695       1.40863636       5.07425263      -0.00005184       0.00007337       0.00009014
Se       2.92962145       4.06030892       8.32187535       0.00004943      -0.00007175      -0.00008720
Se       2.92962114       4.06030983       5.07425281       0.00005317      -0.00007355       0.00009075
Se       4.80463682       1.40863611       8.32187607      -0.00005282       0.00007395      -0.00009233
