9
Lattice="4.758119096830778 -1.014567409992615e-07 2.747101428558447 1.5860396905891136 4.485997156481407 2.7471012773506494 2.900504708000055e-08 -1.6468137698877396e-07 5.494202806878797" Properties=species:S:1:pos:R:3:forces:R:3 energy=-52.1811637878418 free_energy=-52.1811637878418 stress="8.669463568367064e-05 -2.3496992795912774e-08 -2.5250477264648907e-09 -2.3496992795912774e-08 8.664712368045002e-05 -1.6185005335955793e-08 -2.5250477264648907e-09 -1.6185005335955793e-08 8.669504313729703e-05" pbc="T T T"
Ca       1.58603874       1.12149922       2.74710145       0.00000003       0.00000029      -0.00000035
Ca       4.75811977       3.36449792       8.24130365      -0.00000028       0.00000118      -0.00000041
Rh       0.00000037       0.00000072       0.00000032      -0.00001476      -0.00001840      -0.00001939
O        1.57598258       1.11438760       5.49420288      -0.00579521      -0.00409776      -0.00000051
O        4.76817545       3.37160818       5.49420335       0.00582027       0.00411394      -0.00000170
O        3.97012794       1.11438728       4.11194257       0.00289719      -0.00409973      -0.00502026
O        2.37403166       3.37160933       6.87646247      -0.00291018       0.00411254       0.00503623
O        2.37403073       3.37160925       4.11194252      -0.00290202       0.00410071      -0.00502563
O        3.97012807       1.11438789       6.87646263       0.00290529      -0.00411263       0.00503209
