9
Lattice="6.018972951473222 2.6333009178824307e-08 3.4750556936756087 2.006324317869823 5.67474224813456 3.4750557354439358 -8.273507309489075e-09 4.530526122761802e-08 6.9501114016813155" Properties=species:S:1:pos:R:3:forces:R:3 energy=-34.867637634277344 free_energy=-34.867637634277344 stress="6.397099059540778e-05 2.57685206506153e-09 1.5006550668772434e-08 2.57685206506153e-09 6.396356911864132e-05 -1.0414737516839523e-08 1.5006550668772434e-08 -1.0414737516839523e-08 6.393200601451099e-05" pbc="T T T"
Ca       2.00632425       1.41868555       3.47505589      -0.00000021      -0.00000023       0.00000026
Ca       6.01897272       4.25605682      10.42516701      -0.00000054       0.00000041      -0.00000006
Sb       0.00000003       0.00000013       0.00000035      -0.00000070       0.00000133      -0.00000325
Se       2.12467068       1.50236886       6.95011132      -0.00066403      -0.00046919       0.00000007
Se       5.90062666       4.17237325       6.95011156       0.00066418       0.00047060      -0.00000082
Se       4.95663766       1.50236911       5.31507452       0.00033120      -0.00046819      -0.00057524
Se       3.06865977       4.17237315       8.58514838      -0.00033155       0.00046910       0.00057534
Se       3.06865953       4.17237313       5.31507423      -0.00033127       0.00046796      -0.00057373
Se       4.95663774       1.50236929       8.58514812       0.00033297      -0.00047179       0.00057749
