9
Lattice="4.757526254926529 -4.363110975184631e-08 2.7467593428037156 1.5858420129971746 4.4854388232763505 2.7467593962245447 -2.8576333980506908e-08 4.522037592404791e-08 5.493518735103072" Properties=species:S:1:pos:R:3:forces:R:3 energy=-50.942928314208984 free_energy=-50.942928314208984 stress="-3.7278539821272716e-05 3.2833185059644165e-08 2.884429584071313e-08 3.2833185059644165e-08 -3.7435867852764204e-05 -1.2442507468790609e-08 2.884429584071313e-08 -1.2442507468790609e-08 -3.745160938706249e-05" pbc="T T T"
Ca       1.58584228       1.12135928       2.74675930       0.00000163      -0.00000055      -0.00000069
Ca       4.75752618       3.36407906       8.24027749      -0.00000049       0.00000007      -0.00000068
Sb      -0.00000015      -0.00000012      -0.00000051      -0.00000118       0.00000173       0.00000885
O        1.63468891       1.15589978       5.49351871      -0.00031304      -0.00021881      -0.00000134
O        4.70867890       3.32953932       5.49351918       0.00031388       0.00022048      -0.00000099
O        3.94018148       1.15589932       4.16244122       0.00015420      -0.00021911      -0.00026846
O        2.40318692       3.32953966       6.82459654      -0.00015324       0.00021601       0.00026464
O        2.40318667       3.32953979       4.16244147      -0.00015515       0.00021797      -0.00026798
O        3.94018154       1.15589955       6.82459639       0.00015324      -0.00021797       0.00026643
