9
Lattice="6.524523999137411 -1.8273497794422623e-08 3.7669357841118423 2.1748413100752138 6.151380208933223 3.7669357940575643 1.9245611777055348e-08 2.5789688947968273e-08 7.533871534889317" Properties=species:S:1:pos:R:3:forces:R:3 energy=-31.217416763305664 free_energy=-31.217416763305664 stress="-0.00016117829363793135 -3.580588325835521e-10 -6.953950304477985e-09 -3.580588325835521e-10 -0.0001611701591173187 7.502480414700585e-09 -6.953950304477985e-09 7.502480414700585e-09 -0.0001611693442100659" pbc="T T T"
Ca       2.17484124       1.53784520       3.76693562       0.00000023      -0.00000039       0.00000001
Ca       6.52452425       4.61353519      11.30080758       0.00000071       0.00000048       0.00000095
Sb       0.00000007      -0.00000005       0.00000022      -0.00000070      -0.00000014      -0.00000254
Te       2.35547295       1.66557123       7.53387157      -0.00218245      -0.00154424      -0.00000028
Te       6.34389228       4.48580922       7.53387152       0.00218305       0.00154303      -0.00000049
Te       5.34678743       1.66557092       5.80683539       0.00109138      -0.00154319      -0.00188977
Te       3.35257772       4.48580900       9.26090741      -0.00109309       0.00154488       0.00189239
Te       3.35257801       4.48580922       5.80683540      -0.00109039       0.00154318      -0.00189012
Te       5.34678737       1.66557095       9.26090778       0.00109114      -0.00154366       0.00188980
