9
Lattice="5.724128555439187 3.19342866556418e-08 3.3048271362716544 1.9080428951437753 5.3967601857539345 3.3048271133690976 1.6098588157722923e-08 -1.6666360531015044e-08 6.609654244659676" Properties=species:S:1:pos:R:3:forces:R:3 energy=-33.60850524902344 free_energy=-33.60850524902344 stress="3.351334453327581e-05 -4.156240152042301e-08 5.545727432831882e-09 -4.156240152042301e-08 3.348511745571159e-05 -9.207502538188805e-10 5.545727432831882e-09 -9.207502538188805e-10 3.3562952012289315e-05" pbc="T T T"
Ca       1.90804291       1.34919020       3.30482726       0.00000080       0.00000009      -0.00000014
Ca       5.72412837       4.04757034       9.91448110      -0.00000034       0.00000120       0.00000025
Tl       0.00000024       0.00000075      -0.00000034      -0.00000469      -0.00000645       0.00000015
S        2.07611595       1.46803543       6.60965427      -0.00856149      -0.00605464      -0.00000036
S        5.55605523       3.92872430       6.60965427       0.00856888       0.00605798       0.00000017
S        4.68607058       1.46803561       5.10279636       0.00428182      -0.00605631      -0.00741726
S        2.94610107       3.92872424       8.11651188      -0.00428379       0.00605774       0.00742081
S        2.94610102       3.92872434       5.10279669      -0.00428376       0.00605744      -0.00742111
S        4.68607055       1.46803565       8.11651239       0.00428259      -0.00605693       0.00741762
