9
Lattice="5.572656957633698 -9.788284402375693e-08 3.2173747359875913 1.8575522966741274 5.253951051467073 3.217374615180967 4.684839520196247e-08 -1.148304795407552e-07 6.434749390831433" Properties=species:S:1:pos:R:3:forces:R:3 energy=-49.58466720581055 free_energy=-49.58466720581055 stress="0.00034556930768303573 6.328102841735017e-08 3.000011616904885e-08 6.328102841735017e-08 0.0003455487603787333 -1.2291692996768688e-08 3.000011616904885e-08 -1.2291692996768688e-08 0.0003454496036283672" pbc="T T T"
Ca       1.85755261       1.31348746       3.21737476       0.00000015       0.00000004       0.00000036
Ca       5.57265700       3.94046279       9.65212442      -0.00000067      -0.00000029       0.00000011
Ta      -0.00000001       0.00000005      -0.00000015      -0.00000093       0.00000258      -0.00000106
S        1.94095154       1.37245996       6.43474934      -0.00651819      -0.00460812      -0.00000055
S        5.48925803       3.88149103       6.43474902       0.00651705       0.00460798      -0.00000032
S        4.60218125       1.37245944       4.89828760       0.00325751      -0.00460619      -0.00564015
S        2.82802777       3.88149134       7.97121127      -0.00325623       0.00460547       0.00563934
S        2.82802801       3.88149123       4.89828751      -0.00325742       0.00460571      -0.00564054
S        4.60218119       1.37245988       7.97121125       0.00325853      -0.00460702       0.00564304
