9
Lattice="6.512801363450735 -3.9346957315570374e-08 3.7601675563611834 2.1709337498614967 6.140327866006001 3.760167557848632 2.5259858568191505e-08 1.9683099633099626e-08 7.5203350689710895" Properties=species:S:1:pos:R:3:forces:R:3 energy=-28.654651641845703 free_energy=-28.654651641845703 stress="7.311688386835158e-05 -1.7895041892757035e-08 -3.5238485462940616e-09 -1.7895041892757035e-08 7.312765228562057e-05 -7.807580360008615e-09 -3.5238485462940616e-09 -7.807580360008615e-09 7.313549576792866e-05" pbc="T T T"
Ca       2.17093381       1.53508148       3.76016766      -0.00000058      -0.00000069       0.00000039
Ca       6.51280139       4.60524632      11.28050272       0.00000048       0.00000100      -0.00000044
Tl       0.00000007       0.00000023       0.00000033       0.00000119       0.00000039      -0.00000061
Te       2.41195587       1.70551019       7.52033495      -0.00267464      -0.00189292      -0.00000056
Te       6.27177946       4.43481741       7.52033466       0.00267550       0.00189163      -0.00000069
Te       5.30682329       1.70551023       5.84898268       0.00133677      -0.00189258      -0.00231570
Te       3.37691190       4.43481752       9.19168707      -0.00133844       0.00189385       0.00231817
Te       3.37691148       4.43481750       5.84898300      -0.00133854       0.00189158      -0.00231770
Te       5.30682326       1.70551049       9.19168765       0.00133820      -0.00189222       0.00231719
