9
Lattice="5.912558687471975 3.893644186254551e-08 3.4136173754596575 1.970852889272718 5.574413965968311 3.413617450389735 -5.2291868356852274e-08 5.479440832845456e-08 6.827234841491293" Properties=species:S:1:pos:R:3:forces:R:3 energy=-45.19761657714844 free_energy=-45.19761657714844 stress="-2.555569153628312e-05 2.7636181343382304e-08 1.6641797273564407e-08 2.7636181343382304e-08 -2.5599745640647598e-05 -1.6443888029016307e-08 1.6641797273564407e-08 -1.6443888029016307e-08 -2.561043220339343e-05" pbc="T T T"
Ca       1.97085283       1.39360356       3.41361745       0.00000072       0.00000010      -0.00000024
Ca       5.91255875       4.18081066      10.24085234      -0.00000005       0.00000059       0.00000064
Ta      -0.00000008       0.00000036       0.00000040      -0.00000042      -0.00000666      -0.00000300
Se       2.05570484       1.45360292       6.82723490      -0.00444772      -0.00314419      -0.00000028
Se       5.82770649       4.12081106       6.82723453       0.00445095       0.00314726       0.00000019
Se       4.88470641       1.45360267       5.19390996       0.00222242      -0.00314292      -0.00384818
Se       2.99870539       4.12081093       8.46055941      -0.00222460       0.00314571       0.00385232
Se       2.99870529       4.12081120       5.19391003      -0.00222437       0.00314486      -0.00385230
Se       4.88470618       1.45360294       8.46055961       0.00222307      -0.00314468       0.00385092
