9
Lattice="6.033025822911641 3.5816187742348123e-08 3.4831690821600225 2.0110085834783087 5.687991178701052 3.4831691824920967 -8.899368023968255e-09 1.1658833958982978e-07 6.9663381797342625" Properties=species:S:1:pos:R:3:forces:R:3 energy=-31.40707015991211 free_energy=-31.40707015991211 stress="7.750510849291459e-05 6.069759805882313e-09 -7.1574439708399495e-09 6.069759805882313e-09 7.751047814963385e-05 8.085636160615195e-09 -7.1574439708399495e-09 8.085636160615195e-09 7.7496086305473e-05" pbc="T T T"
Ca       2.01100875       1.42199805       3.48316922       0.00000081       0.00000032       0.00000081
Ca       6.03302562       4.26599353      10.44950719      -0.00000025      -0.00000012      -0.00000195
Tl       0.00000020      -0.00000027      -0.00000053       0.00000221       0.00000520       0.00000751
Se       2.20669494       1.56036887       6.96633801      -0.00235885      -0.00166768       0.00000164
Se       5.83733977       4.12762238       6.96633808       0.00235420       0.00166470       0.00000082
Se       4.92967813       1.56036876       5.39422308       0.00118048      -0.00167042      -0.00204346
Se       3.11435574       4.12762276       8.53845423      -0.00117569       0.00166279       0.00203684
Se       3.11435587       4.12762229       5.39422274      -0.00117978       0.00166842      -0.00204197
Se       4.92967855       1.56036897       8.53845373       0.00117676      -0.00166321       0.00203991
