9
Lattice="4.758798883181643 -1.1870979933656949e-07 2.7474939986374194 1.5862662070963935 4.486638875722968 2.7474939559887885 -1.4336754225932768e-09 -5.3247427567804295e-08 5.494987999757989" Properties=species:S:1:pos:R:3:forces:R:3 energy=-43.26762390136719 free_energy=-43.26762390136719 stress="0.00033337241620756686 -7.472758056792372e-08 5.797401225748899e-09 -7.472758056792372e-08 0.0003333882486913353 -4.633405836784732e-08 5.797401225748899e-09 -4.633405836784732e-08 0.0003334459033794701" pbc="T T T"
Ca       1.58626601       1.12165984       2.74749386      -0.00000011       0.00000132       0.00000238
Ca       4.75879873       3.36497888       8.24248189       0.00000029      -0.00000006       0.00000199
Tl       0.00000002       0.00000033       0.00000258      -0.00000088      -0.00000393      -0.00003024
O        1.76087570       1.24512750       5.49498773       0.00413039       0.00292176       0.00000134
O        4.58418929       3.24151131       5.49498757      -0.00412950      -0.00292006       0.00000058
O        3.87836118       1.24512713       4.27245708      -0.00206739       0.00292438       0.00358149
O        2.46670465       3.24151113       6.71751818       0.00206158      -0.00291550      -0.00356880
O        2.46670406       3.24151129       4.27245701       0.00206681      -0.00292295       0.00357988
O        3.87836073       1.24512750       6.71751787      -0.00206104       0.00291497      -0.00356889
