9
Lattice="6.409750258032786 -4.183213976895671e-09 3.700671078144733 2.13658337343241 6.0431706376622065 3.700671150835416 7.715721394593271e-09 9.448331836045497e-08 7.401342142925546" Properties=species:S:1:pos:R:3:forces:R:3 energy=-40.92593765258789 free_energy=-40.92593765258789 stress="-4.351741881691851e-05 -2.0539504319572188e-08 -5.0007007423857885e-09 -2.0539504319572188e-08 -4.3503638153197244e-05 1.4325118868896425e-08 -5.0007007423857885e-09 1.4325118868896425e-08 -4.348968286649324e-05" pbc="T T T"
Ca       2.13658345       1.51079255       3.70067108       0.00000014      -0.00000034      -0.00000065
Ca       6.40975000       4.53237795      11.10201364      -0.00000027      -0.00000003       0.00000030
Ta      -0.00000008       0.00000021       0.00000056       0.00000148       0.00000138      -0.00000271
Te       2.24366181       1.58650866       7.40134218      -0.00329942      -0.00233340      -0.00000069
Te       6.30267191       4.45666214       7.40134187       0.00329725       0.00233127       0.00000029
Te       5.28791918       1.58650874       5.64373926       0.00164948      -0.00233360      -0.00285684
Te       3.25841457       4.45666183       9.15894476      -0.00165021       0.00233571       0.00285880
Te       3.25841457       4.45666216       5.64373931      -0.00164949       0.00233254      -0.00285593
Te       5.28791917       1.58650871       9.15894483       0.00165107      -0.00233351       0.00285745
