9
Lattice="4.755544528735934 -5.5684577876224495e-08 2.7456149099813056 1.5851813872404144 4.483570704505085 2.7456150309447684 -2.0755981653807345e-07 1.3824772868149515e-09 5.491230179466667" Properties=species:S:1:pos:R:3:forces:R:3 energy=-63.34562301635742 free_energy=-63.34562301635742 stress="-7.847756933188066e-05 -4.404716236194872e-08 9.04215653463325e-08 -4.404716236194872e-08 -7.8628771007061e-05 -6.408421882042603e-08 9.04215653463325e-08 -6.408421882042603e-08 -7.863992505008355e-05" pbc="T T T"
Ca       1.58518167       1.12089328       2.74561497       0.00000077      -0.00000184      -0.00000051
Ca       4.75554456       3.36267747       8.23684447      -0.00000021       0.00000148       0.00000187
Ta      -0.00000004      -0.00000008      -0.00000007       0.00000434       0.00000068       0.00000041
O        1.59338456       1.12669336       5.49123005      -0.00068343      -0.00048244       0.00000000
O        4.74734122       3.35687730       5.49123012       0.00068104       0.00047940       0.00000342
O        3.95885201       1.12669340       4.12552658       0.00034121      -0.00048327      -0.00058895
O        2.38187351       3.35687785       6.85693379      -0.00033781       0.00047958       0.00058812
O        2.38187378       3.35687704       4.12552692      -0.00034618       0.00048625      -0.00059396
O        3.95885154       1.12669273       6.85693371       0.00034037      -0.00047970       0.00058985
