9
Lattice="5.854757578395561 4.950170224825154e-09 3.3802458949522602 1.9515858634763923 5.519918380810032 3.380245896088189 -4.4503209968940015e-08 -3.007724521276614e-08 6.760491866986328" Properties=species:S:1:pos:R:3:forces:R:3 energy=-26.10405921936035 free_energy=-26.10405921936035 stress="-0.0002365784894209355 6.745714542510939e-10 -1.0319590737495332e-09 6.745714542510939e-10 -0.00023658339341636747 1.3079694660689256e-08 -1.0319590737495332e-09 1.3079694660689256e-08 -0.00023657405108679086" pbc="T T T"
Cd       1.95158568       1.37997967       3.38024613       0.00000006      -0.00000008       0.00000012
Cd       5.85475751       4.13993889      10.14073764      -0.00000042      -0.00000016      -0.00000023
As       0.00000022      -0.00000055      -0.00000036      -0.00000342       0.00000578       0.00000122
Se       2.06332682       1.45899248       6.76049241      -0.00632578      -0.00447203       0.00000113
Se       5.74301648       4.06092545       6.76049221       0.00632560       0.00447205       0.00000097
Se       4.82309389       1.45899277       5.16713933       0.00316419      -0.00447494      -0.00548136
Se       2.98324961       4.06092626       8.35384414      -0.00316209       0.00447288       0.00547582
Se       2.98324936       4.06092598       5.16713900      -0.00316164       0.00447103      -0.00547698
Se       4.82309398       1.45899239       8.35384393       0.00316343      -0.00447462       0.00547925
