9
Lattice="4.671770824712287 -5.03082371633119e-08 2.6972482493169663 1.5572568545204017 4.404588544629096 2.6972483179396236 -2.6130294236494205e-07 -1.0072376278923169e-07 5.394496951223888" Properties=species:S:1:pos:R:3:forces:R:3 energy=-40.3577880859375 free_energy=-40.3577880859375 stress="-0.000517440726980567 1.5611895776146412e-07 -2.5467238984333562e-08 1.5611895776146412e-07 -0.0005173658137209713 -3.31469820480379e-08 -2.5467238984333562e-08 -3.31469820480379e-08 -0.000517634442076087" pbc="T T T"
Cd       1.55725661       1.10114719       2.69724821       0.00000049       0.00000093       0.00000087
Cd       4.67177053       3.30344101       8.09174507       0.00000066      -0.00000163      -0.00000202
As       0.00000008      -0.00000016      -0.00000048      -0.00000045      -0.00000269       0.00000477
O        1.47959364       1.04623111       5.39449762       0.00633311       0.00447643       0.00000384
O        4.74943348       3.35835743       5.39449770      -0.00633180      -0.00447559       0.00000136
O        3.93197440       1.04623104       3.97861288      -0.00316852       0.00448418       0.00548875
O        2.29705321       3.35835781       6.81037958       0.00316834      -0.00448227      -0.00549328
O        2.29705314       3.35835730       3.97861334       0.00316948      -0.00448036       0.00548792
O        3.93197421       1.04623074       6.81037953      -0.00317079       0.00448108      -0.00549352
