9
Lattice="5.654844612937556 1.988977654738668e-08 3.264826031803095 1.8849481372295551 5.331438968648557 3.2648261804741145 -9.273105548365339e-08 1.1651331555373668e-07 6.529652224221072" Properties=species:S:1:pos:R:3:forces:R:3 energy=-27.898317337036133 free_energy=-27.898317337036133 stress="-3.843957165372558e-05 1.0271132389050308e-08 -1.3545452759444743e-08 1.0271132389050308e-08 -3.848284177365713e-05 1.5984078061137552e-08 -1.3545452759444743e-08 1.5984078061137552e-08 -3.841282523353584e-05" pbc="T T T"
Cd       1.88494818       1.33285987       3.26482624       0.00000038      -0.00000029       0.00000092
Cd       5.65484467       3.99857930       9.79447805       0.00000033       0.00000011       0.00000056
As      -0.00000015      -0.00000007       0.00000044      -0.00000209       0.00000020      -0.00000376
S        1.91574230       1.35463458       6.52965330       0.00040597       0.00028747       0.00000429
S        5.62405035       3.97680449       6.52965324      -0.00040388      -0.00028539       0.00000319
S        4.69697276       1.35463458       4.92390720      -0.00020492       0.00028801       0.00035018
S        2.84281909       3.97680500       8.13539603       0.00019959      -0.00028354      -0.00035322
S        2.84281961       3.97680420       4.92390748       0.00020561      -0.00029039       0.00035095
S        4.69697359       1.35463436       8.13539587      -0.00020111       0.00028402      -0.00035352
