9
Lattice="6.421523053949226 5.153831863805943e-08 3.7074681186866485 2.1405076667020495 6.054270205321135 3.7074682339346556 -6.002668031183693e-08 9.870415115750486e-08 7.41493634134257" Properties=species:S:1:pos:R:3:forces:R:3 energy=-24.49812889099121 free_energy=-24.49812889099121 stress="-0.0002645253553055227 1.4344703203050813e-10 -9.817453516802743e-09 1.4344703203050813e-10 -0.00026452617021277547 6.638555483107211e-09 -9.817453516802743e-09 6.638555483107211e-09 -0.0002645423519425094" pbc="T T T"
Cd       2.14050769       1.51356762       3.70746813       0.00000029      -0.00000017      -0.00000005
Cd       6.42152290       4.54070270      11.12240466       0.00000021      -0.00000010       0.00000027
B       -0.00000010      -0.00000011       0.00000014      -0.00000015      -0.00000073       0.00000041
Te       1.86631600       1.31968477       7.41493631      -0.00088488      -0.00062566       0.00000018
Te       6.69571456       4.73458559       7.41493627       0.00088427       0.00062566      -0.00000014
Te       5.48836513       1.31968486       5.32374516       0.00044244      -0.00062539      -0.00076574
Te       3.07366565       4.73458553       9.50612755      -0.00044264       0.00062576       0.00076598
Te       3.07366577       4.73458555       5.32374516      -0.00044177       0.00062529      -0.00076568
Te       5.48836502       1.31968491       9.50612743       0.00044222      -0.00062465       0.00076480
