9
Lattice="6.65284191974553 2.3093660456306583e-07 3.8410200378801957 2.2176141474035336 6.272359494981806 3.84102011335286 -5.459924729949345e-08 5.3827181287268846e-08 7.682040170329171" Properties=species:S:1:pos:R:3:forces:R:3 energy=-22.81074333190918 free_energy=-22.81074333190918 stress="-3.90173136111116e-06 -1.531927296127833e-08 -1.835540275330061e-09 -1.531927296127833e-08 -3.897574060829356e-06 -7.223595499539215e-09 -1.835540275330061e-09 -7.223595499539215e-09 -3.903125616488978e-06" pbc="T T T"
Cd       2.21761411       1.56809007       3.84102017       0.00000040      -0.00000023       0.00000047
Cd       6.65284188       4.70426977      11.52306049       0.00000019       0.00000010       0.00000066
Bi       0.00000013      -0.00000092       0.00000066      -0.00000136       0.00000376      -0.00000159
Te       2.51537779       1.77864046       7.68204039       0.00026861       0.00018890      -0.00000014
Te       6.35507946       4.49371985       7.68204038      -0.00026846      -0.00019035      -0.00000046
Te       5.39515335       1.77864030       6.01940072      -0.00013474       0.00019000       0.00023347
Te       3.47530275       4.49371845       9.34468002       0.00013438      -0.00019015      -0.00023252
Te       3.47530200       4.49371968       6.01939954       0.00013472      -0.00019075       0.00023252
Te       5.39515252       1.77864146       9.34467892      -0.00013360       0.00018863      -0.00023244
