9
Lattice="5.862204661820251 -9.306085476242281e-08 3.3845452773273137 1.954068130981698 5.526939219584447 3.384545280594677 -3.0893854561006225e-08 -1.7843535895807237e-08 6.769090608164339" Properties=species:S:1:pos:R:3:forces:R:3 energy=-25.824907302856445 free_energy=-25.824907302856445 stress="-0.000280716922134161 -8.191533673596041e-09 9.837252790134698e-09 -8.191533673596041e-09 -0.0002807069104164839 3.5904430539801524e-09 9.837252790134698e-09 3.5904430539801524e-09 -0.00028069037944078445" pbc="T T T"
Cd       1.95406815       1.38173485       3.38454485      -0.00000129       0.00000055      -0.00000181
Cd       5.86220463       4.14520394      10.15363579       0.00000095      -0.00000121       0.00000016
Bi       0.00000001       0.00000004      -0.00000016       0.00000410       0.00000126      -0.00000586
S        2.02565468       1.43235389       6.76909093      -0.00082120      -0.00058188       0.00000143
S        5.79061825       4.09458531       6.76909080       0.00081676       0.00057967       0.00000060
S        4.84937768       1.43235424       5.13881357       0.00041037      -0.00057772      -0.00071080
S        2.96689495       4.09458489       8.39936771      -0.00041243       0.00058189       0.00071317
S        2.96689518       4.09458535       5.13881354      -0.00040995       0.00057814      -0.00070807
S        4.84937757       1.43235390       8.39936758       0.00041249      -0.00058056       0.00071137
