9
Lattice="5.60396078543309 3.363492264016143e-07 3.2354487733538386 1.8679872889281894 5.283466477976864 3.235448698291228 3.8408201468322634e-07 1.7965447178706462e-07 6.470896881458117" Properties=species:S:1:pos:R:3:forces:R:3 energy=-27.801712036132812 free_energy=-27.801712036132812 stress="-0.00045717708417214453 -8.667490192237892e-08 -6.102418015352384e-10 -8.667490192237892e-08 -0.00045729184057563543 -4.220333593707437e-08 -6.102418015352384e-10 -4.220333593707437e-08 -0.0004571480385493487" pbc="T T T"
Cd       1.86798641       1.32086642       3.23544745      -0.00000080      -0.00000231       0.00000052
Cd       5.60396237       3.96260112       9.70634487      -0.00000212      -0.00000012       0.00000057
B        0.00000110       0.00000306      -0.00000378       0.00000403       0.00000305       0.00000053
Se       1.74063222       1.23081528       6.47089661       0.00392604       0.00277873      -0.00000100
Se       5.73131856       4.05265306       6.47089674      -0.00392672      -0.00277972      -0.00000239
Se       4.73364288       1.23081246       4.74288240      -0.00196138       0.00277051       0.00339945
Se       2.73830419       4.05265159       8.19891509       0.00196479      -0.00277817      -0.00339500
Se       2.73830364       4.05265177       4.74288389       0.00195908      -0.00276621       0.00339331
Se       4.73364394       1.23081335       8.19891419      -0.00196277       0.00277428      -0.00339580
