9
Lattice="4.346133403151996 1.4403899831728446e-07 2.5092412400002244 1.4487111763514011 4.097574360935301 2.509241402525265 -1.7767431816188995e-08 1.8648821004364707e-07 5.01848251077454" Properties=species:S:1:pos:R:3:forces:R:3 energy=-40.7447509765625 free_energy=-40.7447509765625 stress="-0.0001043927259161137 6.90385082435796e-09 -6.792157591917203e-08 6.90385082435796e-09 -0.00010429826943436638 -5.8095498189913997e-08 -6.792157591917203e-08 -5.8095498189913997e-08 -0.00010436524462420493" pbc="T T T"
Cd       1.44871126       1.02439357       2.50924124      -0.00000034       0.00000053      -0.00000281
Cd       4.34613340       3.07318104       7.52772396       0.00000099      -0.00000069      -0.00000159
B       -0.00000011      -0.00000031       0.00000249       0.00000049       0.00000355      -0.00000321
O        1.30517009       0.92289537       5.01848141       0.00210464       0.00148922       0.00000221
O        4.48967446       3.17467954       5.01848142      -0.00211048      -0.00149047       0.00000062
O        3.69354808       0.92289554       3.63955193      -0.00105399       0.00148988       0.00182545
O        2.10129617       3.17468018       6.39741353       0.00105768      -0.00149113      -0.00182617
O        2.10129628       3.17467918       3.63955180       0.00105631      -0.00149095       0.00182974
O        3.69354869       0.92289457       6.39741313      -0.00105536       0.00149024      -0.00182128
