9
Lattice="5.963791760765986 -1.0885354680985615e-07 3.443196825911391 1.9879305643322556 5.622716531776975 3.4431966872808917 6.617548220490092e-08 -1.2299386467995983e-07 6.886393537203448" Properties=species:S:1:pos:R:3:forces:R:3 energy=-25.15110969543457 free_energy=-25.15110969543457 stress="-2.1581159671768546e-05 2.011693922554514e-08 -1.8368934817658555e-08 2.011693922554514e-08 -2.1593670680886135e-05 6.7292194039225706e-09 -1.8368934817658555e-08 6.7292194039225706e-09 -2.1585508875432424e-05" pbc="T T T"
Cd       1.98793075       1.40567882       3.44319694      -0.00000070       0.00000120      -0.00000037
Cd       5.96379222       4.21703699      10.32959026      -0.00000102       0.00000008       0.00000077
Bi      -0.00000025      -0.00000003       0.00000035       0.00000190       0.00000110      -0.00000116
Se       2.40769185       1.70249527       6.88639369      -0.00130191      -0.00092027       0.00000028
Se       5.54403009       3.92022147       6.88639369       0.00130123       0.00091922      -0.00000029
Se       4.75994601       1.70249528       5.52831901       0.00065088      -0.00091985      -0.00112668
Se       3.19177666       3.92022117       8.24446744      -0.00065127       0.00092012       0.00112787
Se       3.19177643       3.92022125       5.52831868      -0.00065011       0.00091887      -0.00112656
Se       4.75994585       1.70249500       8.24446812       0.00065105      -0.00092041       0.00112620
