9
Lattice="5.447442439732792 -1.1213088377527843e-07 3.1450824964793402 1.8158139643822109 5.135898118254026 3.145082628941762 -2.893407330773174e-07 -4.236196825122749e-08 6.290165494111232" Properties=species:S:1:pos:R:3:forces:R:3 energy=-29.968666076660156 free_energy=-29.968666076660156 stress="2.1805337382829748e-05 -1.548185046829076e-08 -4.05374045442386e-08 -1.548185046829076e-08 2.1805064534419216e-05 3.724185404507807e-08 -4.05374045442386e-08 3.724185404507807e-08 2.1781070245197043e-05" pbc="T T T"
Cd       1.81581451       1.28397444       3.14508292       0.00000040       0.00000053       0.00000058
Cd       5.44744227       3.85192337       9.43524717       0.00000031      -0.00000018      -0.00000030
B        0.00000050      -0.00000033      -0.00000004      -0.00000828       0.00000447       0.00000040
S        1.64689980       1.16453452       6.29016590       0.00001901       0.00001425       0.00000238
S        5.61635598       3.97136335       6.29016635      -0.00001711      -0.00001162       0.00000224
S        4.62399099       1.16453510       4.57134026      -0.00000772       0.00000972       0.00000751
S        2.63926398       3.97136348       8.00899003       0.00000727      -0.00001103      -0.00001478
S        2.63926429       3.97136385       4.57133994       0.00001299      -0.00001478       0.00001764
S        4.62399203       1.16453396       8.00898937      -0.00000650       0.00000870      -0.00001609
