9
Lattice="5.877798827307374 -5.3266215112932475e-08 3.3935484668389595 1.9592662883614318 5.541641390538499 3.39354835804509 2.9552440744760204e-08 -1.123480005684271e-07 6.787096882491663" Properties=species:S:1:pos:R:3:forces:R:3 energy=-23.933570861816406 free_energy=-23.933570861816406 stress="5.607865023193881e-05 9.990240634749625e-09 7.81579956310452e-09 9.990240634749625e-09 5.611412416328676e-05 1.5277846543426676e-08 7.81579956310452e-09 1.5277846543426676e-08 5.6089123972924426e-05" pbc="T T T"
Cd       1.95926638       1.38541008       3.39354855      -0.00000054      -0.00000007       0.00000055
Cd       5.87779882       4.15623124      10.18064507      -0.00000006      -0.00000000       0.00000043
Ga       0.00000038       0.00000018       0.00000014      -0.00000167      -0.00000329       0.00000002
Se       2.07954789       1.47046209       6.78709680       0.00145856       0.00103009      -0.00000083
Se       5.75751678       4.07117875       6.78709676      -0.00145067      -0.00102701       0.00000054
Se       4.83802496       1.47046218       5.19448976      -0.00072873       0.00102884       0.00126141
Se       2.99904020       4.07117890       8.37970395       0.00072576      -0.00102984      -0.00126038
Se       2.99904027       4.07117922       5.19448981       0.00072663      -0.00102834       0.00125907
Se       4.83802491       1.47046219       8.37970406      -0.00072915       0.00102963      -0.00126094
