9
Lattice="5.543177413636531 -2.662429280071129e-07 3.200354680622229 1.8477256530994988 5.226157246230715 3.200354508161664 -1.4965515307633972e-07 -3.1704253269700415e-07 6.400709620454742" Properties=species:S:1:pos:R:3:forces:R:3 energy=-25.789024353027344 free_energy=-25.789024353027344 stress="-9.025915460370015e-06 -8.702802922755382e-09 1.1172218705723935e-09 -8.702802922755382e-09 -8.966093446360901e-06 4.647276341529505e-08 1.1172218705723935e-09 4.647276341529505e-08 -9.005114407045767e-06" pbc="T T T"
Cd       1.84772626       1.30653879       3.20035476       0.00000035       0.00000024      -0.00000030
Cd       5.54317777       3.91961834       9.60106278       0.00000031       0.00000051      -0.00000131
Ga      -0.00000020       0.00000008      -0.00000015       0.00000063      -0.00000193       0.00000055
S        1.90853946       1.34954144       6.40070994       0.00091493       0.00064656       0.00000178
S        5.48236309       3.87661534       6.40070936      -0.00091375      -0.00064622      -0.00000181
S        4.58890726       1.34954120       4.85319880      -0.00045604       0.00064544       0.00079286
S        2.80199578       3.87661517       7.94822017       0.00045710      -0.00064462      -0.00078891
S        2.80199505       3.87661552       4.85319885       0.00045423      -0.00064524       0.00079046
S        4.58890705       1.34954084       7.94822066      -0.00045774       0.00064531      -0.00079310
