9
Lattice="4.532097932861767 1.3388162551763837e-07 2.6166080420834485 1.5106994733761487 4.272902664467915 2.616607979387738 -9.715548591864512e-09 -8.365622285259666e-08 5.233216100994786" Properties=species:S:1:pos:R:3:forces:R:3 energy=-35.735958099365234 free_energy=-35.735958099365234 stress="0.00011241512402193621 -8.624218672537154e-09 5.721615536913305e-08 -8.624218672537154e-09 0.0001124878617702052 4.0058306893797635e-08 5.721615536913305e-08 4.0058306893797635e-08 0.00011216183338547125" pbc="T T T"
Cd       1.51069815       1.06822523       2.61660864      -0.00000176      -0.00000132       0.00000020
Cd       4.53209869       3.20467787       7.84982294      -0.00000017       0.00000066      -0.00000076
Ga      -0.00000026      -0.00000004      -0.00000033       0.00000213       0.00000431       0.00000430
O        1.56939030       1.10972640       5.23321577      -0.00007808      -0.00005460       0.00000048
O        4.47340727       3.16317609       5.23321728       0.00007498       0.00005120       0.00000188
O        3.74740317       1.10972602       3.97573978       0.00003970      -0.00005305      -0.00006801
O        2.29539434       3.16317782       6.49069267      -0.00003564       0.00005227       0.00006342
O        2.29539401       3.16317674       3.97573952      -0.00003788       0.00005421      -0.00006479
O        3.74740381       1.10972495       6.49069236       0.00003678      -0.00005358       0.00006324
