9
Lattice="6.352380825471564 -7.681300248144804e-08 3.6675494732642893 2.1174600177951306 5.989083749768522 3.667549793593219 -1.0768293748168002e-07 3.1617781121332786e-07 7.335099133040809" Properties=species:S:1:pos:R:3:forces:R:3 energy=-22.14450454711914 free_energy=-22.14450454711914 stress="-1.2447169865481555e-05 -4.695762001460935e-08 5.467219565957748e-09 -4.695762001460935e-08 -1.2428447007550858e-05 7.870199603132733e-09 5.467219565957748e-09 7.870199603132733e-09 -1.249486467713723e-05" pbc="T T T"
Cd       2.11746161       1.49727175       3.66754955       0.00000214       0.00000168       0.00000029
Cd       6.35238016       4.49181220      11.00265026       0.00000012      -0.00000061       0.00000167
Ga       0.00000174       0.00000216       0.00000041      -0.00000502      -0.00000746      -0.00000069
Te       2.29071672       1.61978246       7.33509926       0.00069365       0.00048911      -0.00000002
Te       6.17912208       4.36929961       7.33509877      -0.00068578      -0.00048628      -0.00000004
Te       5.20702095       1.61978489       5.65136930      -0.00034532       0.00048789       0.00059643
Te       3.26281921       4.36929924       9.01882749       0.00034290      -0.00048566      -0.00059582
Te       3.26282028       4.36929907       5.65137002       0.00034418      -0.00048646       0.00059566
Te       5.20701989       1.61978460       9.01882850      -0.00034683       0.00048772      -0.00059737
