9
Lattice="5.8210712398737945 6.728519845572947e-08 3.3607969433793654 1.940357116134163 5.488158596840075 3.360796990596611 -4.118284071680462e-08 2.870841902781292e-08 6.7215939580895006" Properties=species:S:1:pos:R:3:forces:R:3 energy=-31.31279182434082 free_energy=-31.31279182434082 stress="9.720164962345734e-05 -2.2542042898976433e-08 1.1693154222669477e-09 -2.2542042898976433e-08 9.722731920192018e-05 9.939989276119832e-09 1.1693154222669477e-09 9.939989276119832e-09 9.725116251502186e-05" pbc="T T T"
Cd       1.94035711       1.37203982       3.36079695       0.00000031       0.00000020      -0.00000027
Cd       5.82107130       4.11611895      10.08239095       0.00000023      -0.00000022      -0.00000048
Ir      -0.00000013       0.00000008      -0.00000035       0.00000232       0.00000030       0.00000200
Se       2.01287337       1.42331671       6.72159408      -0.00340153      -0.00240420      -0.00000110
Se       5.74855515       4.06484220       6.72159385       0.00339958       0.00240294      -0.00000128
Se       4.81463428       1.42331658       5.10399658       0.00170057      -0.00240656      -0.00294608
Se       2.94679397       4.06484195       8.33919141      -0.00169989       0.00240469       0.00294712
Se       2.94679388       4.06484202       5.10399677      -0.00170055       0.00240642      -0.00294504
Se       4.81463436       1.42331649       8.33919127       0.00169901      -0.00240356       0.00294499
