9
Lattice="4.739140813936378 -1.8135167081467945e-07 2.7361443703046833 1.5797135138130687 4.4681046214328 2.7361442314849778 8.681010520618826e-08 -1.0863471698858254e-07 5.4722885902497405" Properties=species:S:1:pos:R:3:forces:R:3 energy=-43.663307189941406 free_energy=-43.663307189941406 stress="-0.0001633017382118851 -2.1081423540181277e-07 4.233690731325623e-09 -2.1081423540181277e-07 -0.00016322160081472248 -7.443233585036069e-08 4.233690731325623e-09 -7.443233585036069e-08 -0.00016302394215017557" pbc="T T T"
Cd       1.57971300       1.11702573       2.73614423       0.00000106      -0.00000242       0.00000797
Cd       4.73914043       3.35107794       8.20843309       0.00000016      -0.00000291       0.00000722
Ir       0.00000071      -0.00000183       0.00000490      -0.00003860       0.00012709      -0.00034317
O        1.52623414       1.07920988       5.47228863       0.00142646       0.00101621      -0.00001595
O        4.79262121       3.38889506       5.47228926      -0.00147479      -0.00103486      -0.00001696
O        3.97602433       1.07920954       4.05790108      -0.00075660       0.00107831       0.00129545
O        2.34283122       3.38889322       6.88667447       0.00067559      -0.00095540      -0.00119359
O        2.34282965       3.38889552       4.05790015       0.00079930      -0.00112564       0.00137030
O        3.97602292       1.07921214       6.88667304      -0.00063250       0.00089938      -0.00111139
