9
Lattice="4.73276817590582 -1.6310453759900677e-08 2.7324653461174617 1.577589377584741 4.462096676135818 2.7324653443961124 2.2695455630208337e-08 1.3939964682845007e-08 5.464930652925246" Properties=species:S:1:pos:R:3:forces:R:3 energy=-44.249488830566406 free_energy=-44.249488830566406 stress="-4.794946653419174e-05 -2.4016176780605747e-07 3.958052374741783e-08 -2.4016176780605747e-07 -4.7621415433241054e-05 -4.4838881052555735e-08 3.958052374741783e-08 -4.4838881052555735e-08 -4.756823545903899e-05" pbc="T T T"
Cd       1.57758922       1.11552400       2.73246537      -0.00000327       0.00000006      -0.00000037
Cd       4.73276807       3.34657254       8.19739616       0.00000213      -0.00000053      -0.00000015
Mo       0.00000029       0.00000004       0.00000042      -0.00000318       0.00000142      -0.00000479
O        1.56943583       1.10975902       5.46493123      -0.00098050      -0.00069594      -0.00000106
O        4.74092182       3.35233769       5.46493064       0.00098264       0.00069916      -0.00000372
O        3.94805044       1.10975933       4.09163792       0.00049555      -0.00070316      -0.00086462
O        2.36230802       3.35233703       6.83822343      -0.00049841       0.00070822       0.00086713
O        2.36230714       3.35233726       4.09163806      -0.00049746       0.00070339      -0.00086427
O        3.94804994       1.10975989       6.83822298       0.00050223      -0.00071234       0.00087249
