9
Lattice="5.689017603421087 1.1856661176690829e-07 3.2845556949953907 1.8963393148066896 5.36365709059923 3.2845556917380243 -1.8863419405979275e-08 -1.7327942176872648e-08 6.5691114226633" Properties=species:S:1:pos:R:3:forces:R:3 energy=-36.731407165527344 free_energy=-36.731407165527344 stress="-4.261939920979785e-06 1.0625885060733253e-08 -8.602795142920172e-10 1.0625885060733253e-08 -4.265895768185146e-06 8.232741599556448e-09 -8.602795142920172e-10 8.232741599556448e-09 -4.257920409145299e-06" pbc="T T T"
Cd       1.89633907       1.34091415       3.28455574      -0.00000086      -0.00000082       0.00000045
Cd       5.68901732       4.02274293       9.85366801      -0.00000066      -0.00000039       0.00000234
Mo      -0.00000004      -0.00000030      -0.00000043       0.00000004       0.00000084      -0.00000030
S        1.89549669       1.34031800       6.56911148       0.00014383       0.00010384       0.00000019
S        5.68986054       4.02333905       6.56911106      -0.00014582      -0.00010345      -0.00000045
S        4.74126952       1.34031834       4.92610331      -0.00007154       0.00010448       0.00012559
S        2.84408735       4.02333923       8.21211950       0.00007294      -0.00010428      -0.00012811
S        2.84408755       4.02333924       4.92610310       0.00007364      -0.00010502       0.00012696
S        4.74126955       1.34031811       8.21211940      -0.00007169       0.00010455      -0.00012643
