9
Lattice="5.963989312006252 1.965590192265167e-08 3.4433107994530685 1.9879963681841868 5.62290321152265 3.4433109513244733 -1.1954434988231854e-07 1.0147306801997004e-07 6.8866218059630055" Properties=species:S:1:pos:R:3:forces:R:3 energy=-33.88634490966797 free_energy=-33.88634490966797 stress="1.6868390957824886e-05 -3.995403830003852e-08 -3.9157615816520774e-08 -3.995403830003852e-08 1.693406557023991e-05 6.49474358738189e-08 -3.9157615816520774e-08 6.49474358738189e-08 1.6949785276665352e-05" pbc="T T T"
Cd       1.98799622       1.40572574       3.44331088       0.00000022       0.00000011       0.00000075
Cd       5.96398915       4.21717761      10.32993277       0.00000005       0.00000065       0.00000008
Mo      -0.00000035      -0.00000062      -0.00000010       0.00000551       0.00000857      -0.00000372
Se       1.99699705       1.41209037       6.88662168      -0.00075641      -0.00053512       0.00000133
Se       5.95498912       4.21081340       6.88662168       0.00074619       0.00052784      -0.00000074
Se       4.96549031       1.41209040       5.17276149       0.00038159      -0.00053664      -0.00066029
Se       2.98649499       4.21081302       8.60048228      -0.00037931       0.00053678       0.00065921
Se       2.98649482       4.21081345       5.17276109      -0.00037521       0.00053084      -0.00065218
Se       4.96549092       1.41208998       8.60048242       0.00037712      -0.00053288       0.00065540
