9
Lattice="4.439370305637777 -2.0029412991465087e-07 2.563071667176227 1.4797899133108618 4.185478346118663 2.563071666707339 -1.8158544107533914e-07 -1.2897458276759952e-07 5.126143648867664" Properties=species:S:1:pos:R:3:forces:R:3 energy=-36.51890563964844 free_energy=-36.51890563964844 stress="-3.018255483766552e-06 7.95805377151737e-08 5.3834639857086586e-08 7.95805377151737e-08 -2.7474225134938024e-06 1.3518722141725448e-07 5.3834639857086586e-08 1.3518722141725448e-07 -2.9615694074891508e-06" pbc="T T T"
Cd       1.47979000       1.04636939       2.56307188      -0.00000020      -0.00000009      -0.00000016
Cd       4.43936992       3.13910861       7.68921577       0.00000068      -0.00000056      -0.00000104
N       -0.00000008      -0.00000025       0.00000045      -0.00000161      -0.00000388       0.00001040
O        1.31260206       0.92814983       5.12614391       0.00008869       0.00005925      -0.00000274
O        4.60655795       3.25732827       5.12614327      -0.00008750      -0.00005794      -0.00000395
O        3.78306881       0.92815006       3.69981876      -0.00004435       0.00005889       0.00007260
O        2.13609156       3.25732740       6.55246744       0.00004196      -0.00005710      -0.00007474
O        2.13609082       3.25732779       3.69981845       0.00004435      -0.00005972       0.00007391
O        3.78306871       0.92815067       6.55246758      -0.00004172       0.00005877      -0.00007582
