9
Lattice="5.696866467863777 -9.068648894854866e-08 3.2890873223451758 1.8989554506057225 5.371056882307607 3.2890872412543186 2.7923163071553115e-08 -7.957103628781772e-08 6.578174596326053" Properties=species:S:1:pos:R:3:forces:R:3 energy=-27.67301368713379 free_energy=-27.67301368713379 stress="-2.7168041924596764e-05 -5.483227205616004e-09 -1.3408945953585771e-08 -5.483227205616004e-09 -2.7108180802315474e-05 1.6688773030182347e-08 -1.3408945953585771e-08 1.6688773030182347e-08 -2.7172432965016924e-05" pbc="T T T"
Cd       1.89895568       1.34276425       3.28908728      -0.00000011       0.00000089      -0.00000025
Cd       5.69686646       4.02829270       9.86726176       0.00000022       0.00000009       0.00000009
P       -0.00000018       0.00000004      -0.00000017       0.00000104       0.00000086      -0.00000297
Se       1.88238547       1.33104717       6.57817462       0.00047857       0.00033864       0.00000015
Se       5.71343638       4.04000933       6.57817464      -0.00048012      -0.00033881       0.00000015
Se       4.75567383       1.33104713       4.91928099      -0.00023891       0.00033805       0.00041375
Se       2.84014818       4.04000945       8.23706851       0.00023796      -0.00033729      -0.00041294
Se       2.84014812       4.04000960       4.91928069       0.00024031      -0.00034055       0.00041547
Se       4.75567379       1.33104718       8.23706838      -0.00023881       0.00033794      -0.00041333
