9
Lattice="5.579356903744567 -6.964754796848486e-08 3.221243140888984 1.859785567283944 5.26026817500669 3.2212431437178477 -1.9348663928736946e-08 -1.0216912971178399e-08 6.442486315290762" Properties=species:S:1:pos:R:3:forces:R:3 energy=-30.312652587890625 free_energy=-30.312652587890625 stress="-0.00035663170274347067 2.2572280045096704e-08 -4.203640457944857e-08 2.2572280045096704e-08 -0.00035664907773025334 4.469971415232976e-08 -4.203640457944857e-08 4.469971415232976e-08 -0.00035672177909873426" pbc="T T T"
Cd       1.85978551       1.31506667       3.22124297       0.00000078      -0.00000018       0.00000027
Cd       5.57935689       3.94520117       9.66372913       0.00000098      -0.00000069      -0.00000088
P       -0.00000036       0.00000026      -0.00000040       0.00001312      -0.00000559       0.00001095
S        1.77336408       1.25395781       6.44248637      -0.00526106      -0.00372010       0.00000163
S        5.66577846       4.00631050       6.44248641       0.00525331       0.00371289       0.00000119
S        4.69267487       1.25395767       4.75702106       0.00262809      -0.00371653      -0.00455016
S        2.74646729       4.00631077       8.12795178      -0.00262743       0.00371754       0.00455207
S        2.74646761       4.00631040       4.75702096      -0.00262910       0.00371951      -0.00455457
S        4.69267534       1.25395720       8.12795218       0.00262111      -0.00370628       0.00453961
