9
Lattice="4.725942150751454 2.438724379396248e-09 2.7285242862112065 1.5753140474024658 4.455661247592317 2.7285242951265425 7.327637467821102e-08 6.273324250771893e-08 5.457048445504039" Properties=species:S:1:pos:R:3:forces:R:3 energy=-40.127838134765625 free_energy=-40.127838134765625 stress="-4.647005334845744e-05 3.693821248873519e-09 3.7294711319191265e-08 3.693821248873519e-09 -4.6620345528936014e-05 -1.6800104418734918e-08 3.7294711319191265e-08 -1.6800104418734918e-08 -4.654789881897159e-05" pbc="T T T"
Cd       1.57531393       1.11391540       2.72852452       0.00000046      -0.00000011       0.00000047
Cd       4.72594245       3.34174568       8.18557288       0.00000047      -0.00000133       0.00000015
Rh       0.00000038      -0.00000028      -0.00000009      -0.00000955       0.00000975       0.00000778
O        1.56064528       1.10354332       5.45704830      -0.00090915      -0.00064039       0.00000050
O        4.74061107       3.35211818       5.45704845       0.00090963       0.00064310       0.00000056
O        3.94561936       1.10354366       4.08008289       0.00045833      -0.00064698      -0.00079325
O        2.35563686       3.35211851       6.83401432      -0.00044966       0.00063789       0.00077978
O        2.35563683       3.35211790       4.08008292      -0.00045493       0.00064203      -0.00078487
O        3.94561944       1.10354293       6.83401415       0.00045437      -0.00064370       0.00078845
