9
Lattice="5.42661698226489 -2.7553419341517717e-07 3.133058386305693 1.8088719861266165 5.116263223530484 3.133058527500548 -1.333623321526922e-07 7.86262429845564e-08 6.2661170036016385" Properties=species:S:1:pos:R:3:forces:R:3 energy=-33.588375091552734 free_energy=-33.588375091552734 stress="-2.9734444524365244e-06 1.3942154986068545e-08 1.0721658005863333e-09 1.3942154986068545e-08 -2.9025029562035343e-06 -7.034552496065771e-09 1.0721658005863333e-09 -7.034552496065771e-09 -2.8898798518639524e-06" pbc="T T T"
Cd       1.80887320       1.27906450       3.13305854      -0.00000064      -0.00000057       0.00000113
Cd       5.42661561       3.83719762       9.39917621      -0.00000098       0.00000037       0.00000124
Ru      -0.00000158       0.00000040       0.00000086      -0.00000749       0.00000088       0.00000751
S        1.88673456       1.33412338       6.26611705      -0.00271326      -0.00191814      -0.00000019
S        5.34875488       3.78213994       6.26611717       0.00271678       0.00191879      -0.00000130
S        4.48324956       1.33412267       4.76701796       0.00135812      -0.00191978      -0.00235426
S        2.75223984       3.78214044       7.76521477      -0.00135604       0.00192133       0.00234896
S        2.75223955       3.78214053       4.76701834      -0.00135544       0.00191945      -0.00235283
S        4.48324960       1.33412267       7.76521465       0.00135916      -0.00192222       0.00234973
