9
Lattice="5.447829652200455 3.60621948491072e-08 3.145306122969073 1.8159432149345665 5.136263000049888 3.145306186128888 4.932642889006847e-08 1.1223373445488051e-07 6.290612160502254" Properties=species:S:1:pos:R:3:forces:R:3 energy=-32.14122009277344 free_energy=-32.14122009277344 stress="-0.00036173703847453 -1.532531079817545e-08 -2.9237785525992877e-08 -1.532531079817545e-08 -0.0003617038019001484 4.119200092134179e-09 -2.9237785525992877e-08 4.119200092134179e-09 -0.0003616704198066145" pbc="T T T"
Cd       1.81594318       1.28406532       3.14530635      -0.00000062       0.00000052      -0.00000073
Cd       5.44783022       3.85219779       9.43591855      -0.00000059      -0.00000023      -0.00000066
Rh       0.00000004       0.00000035      -0.00000062       0.00000186      -0.00000103       0.00000182
S        1.87925438       1.32883371       6.29061228       0.00040722       0.00028864       0.00000113
S        5.38451865       3.80742982       6.29061247      -0.00040954      -0.00028977      -0.00000049
S        4.50820215       1.32883318       4.77278823      -0.00020313       0.00028905       0.00035292
S        2.75557053       3.80742952       7.80843629       0.00020382      -0.00028878      -0.00035161
S        2.75556989       3.80742962       4.77278796       0.00020450      -0.00028798       0.00035191
S        4.50820275       1.32883334       7.80843641      -0.00020400       0.00028995      -0.00035477
