9
Lattice="5.8286112347317625 -3.5977563262540326e-08 3.365150229334741 1.9428703379282328 5.495267728140655 3.3651502981474675 -9.185870835490175e-08 1.9324120684543103e-08 6.730300617773419" Properties=species:S:1:pos:R:3:forces:R:3 energy=-31.9073486328125 free_energy=-31.9073486328125 stress="0.00028876797296106815 1.2997436016348729e-08 -9.002341649910761e-10 1.2997436016348729e-08 0.00028873333940282464 -5.824186466441006e-09 -9.002341649910761e-10 -5.824186466441006e-09 0.0002887209120672196" pbc="T T T"
Cd       1.94287030       1.37381689       3.36515040      -0.00000014      -0.00000028       0.00000003
Cd       5.82861121       4.12145073      10.09545109      -0.00000020       0.00000016      -0.00000002
Ru      -0.00000011      -0.00000007       0.00000021       0.00000008       0.00000097       0.00000129
Se       2.00276414       1.41616869       6.73030068       0.00867842       0.00613711      -0.00000010
Se       5.76871742       4.07909915       6.73030059      -0.00867838      -0.00613730       0.00000085
Se       4.82722881       1.41616823       5.09959499      -0.00434032       0.00613694       0.00751577
Se       2.94425248       4.07909981       8.36100587       0.00434060      -0.00613763      -0.00751663
Se       2.94425274       4.07909952       5.09959485       0.00434013      -0.00613755       0.00751630
Se       4.82722895       1.41616789       8.36100591      -0.00434016       0.00613762      -0.00751748
