9
Lattice="6.534473119586052 1.3769548490607996e-07 3.7726797289420273 2.178157816617501 6.160760423358713 3.7726797631184983 7.005201553922315e-09 4.681088792880523e-08 7.545359445750769" Properties=species:S:1:pos:R:3:forces:R:3 energy=-23.043107986450195 free_energy=-23.043107986450195 stress="-2.7360880267224275e-05 5.026196125967886e-10 1.2815530858745205e-09 5.026196125967886e-10 -2.7360982130630873e-05 -1.6950460590692273e-08 1.2815530858745205e-09 -1.6950460590692273e-08 -2.7372161639505066e-05" pbc="T T T"
Cd       2.17815771       1.54019011       3.77268006      -0.00000038       0.00000020       0.00000041
Cd       6.53447330       4.62057049      11.31803894       0.00000003       0.00000022      -0.00000028
Sb       0.00000016       0.00000023      -0.00000023       0.00000075      -0.00000001       0.00000013
Te       2.40661453       1.70173351       7.54535931      -0.00227097      -0.00160575      -0.00000044
Te       6.30601519       4.45902648       7.54535966       0.00227128       0.00160572       0.00000018
Te       5.33116561       1.70173425       5.85686972       0.00113463      -0.00160569      -0.00196555
Te       3.38146585       4.45902663       9.23384917      -0.00113504       0.00160532       0.00196618
Te       3.38146562       4.45902638       5.85686977      -0.00113595       0.00160545      -0.00196694
Te       5.33116577       1.70173432       9.23384935       0.00113554      -0.00160538       0.00196631
