9
Lattice="5.81814454381255 5.212794666588313e-08 3.359107285809196 1.9393815044960345 5.485399410000718 3.359107388441615 -1.550539374277135e-07 1.6058890988144156e-08 6.718214840179661" Properties=species:S:1:pos:R:3:forces:R:3 energy=-26.939125061035156 free_energy=-26.939125061035156 stress="-0.0001454084849683568 7.166131021918432e-10 -1.7657512785262952e-08 7.166131021918432e-10 -0.00014539423864334822 3.4496164147412856e-08 -1.7657512785262952e-08 3.4496164147412856e-08 -0.00014542191638611257" pbc="T T T"
Cd       1.93938181       1.37135017       3.35910730       0.00000119       0.00000064      -0.00000061
Cd       5.81814465       4.11404940      10.07732179       0.00000116      -0.00000073      -0.00000105
Sb      -0.00000014       0.00000017       0.00000016       0.00000425      -0.00000276      -0.00000194
S        2.00210278       1.41570066       6.71821498      -0.00086141      -0.00060967      -0.00000020
S        5.75542283       4.06969882       6.71821509       0.00085878       0.00060716       0.00000037
S        4.81709303       1.41570082       5.09297927       0.00042969      -0.00060642      -0.00074339
S        2.94043302       4.06969842       8.34344986      -0.00043279       0.00061071       0.00074697
S        2.94043268       4.06969858       5.09297949      -0.00042969       0.00060597      -0.00074399
S        4.81709283       1.41570089       8.34345016       0.00042871      -0.00060514       0.00074351
