9
Lattice="4.768356425070666 3.458077197152814e-07 2.7530123509672406 1.5894523971909278 4.4956501336521795 2.753012473128754 2.127286712134832e-07 3.0003854873718586e-07 5.5060243334776695" Properties=species:S:1:pos:R:3:forces:R:3 energy=-39.497840881347656 free_energy=-39.497840881347656 stress="-2.0049508748343214e-05 -1.0098973746153206e-07 1.4638600553951164e-08 -1.0098973746153206e-07 -2.0157851395197213e-05 -2.4506672247071037e-08 1.4638600553951164e-08 -2.4506672247071037e-08 -2.0150047930656e-05" pbc="T T T"
Cd       1.58945259       1.12391280       2.75301214      -0.00000015       0.00000080      -0.00000071
Cd       4.76835705       3.37173829       8.25903646       0.00000141      -0.00000021      -0.00000021
Sb      -0.00000008      -0.00000020       0.00000011       0.00000621       0.00000901      -0.00000348
O        1.62139026       1.14649678       5.50602448      -0.00304699      -0.00215322      -0.00000035
O        4.73641887       3.34915474       5.50602482       0.00303710       0.00214916       0.00000143
O        3.95766135       1.14649616       4.15717797       0.00152272      -0.00215435      -0.00263703
O        2.40014772       3.34915441       6.85487171      -0.00152117       0.00215328       0.00263727
O        2.40014723       3.34915382       4.15717754      -0.00152111       0.00215000      -0.00263500
O        3.95766116       1.14649620       6.85487142       0.00152194      -0.00215459       0.00263917
