9
Lattice="6.031880243648179 -1.4532829494666345e-08 3.4825076342222117 2.010626749760204 5.6869111757097635 3.4825076072383783 -1.2694437391546145e-08 -4.2024675524078885e-08 6.965015290431852" Properties=species:S:1:pos:R:3:forces:R:3 energy=-25.31801414489746 free_energy=-25.31801414489746 stress="6.616348400712013e-05 9.489357744030258e-09 7.907515531258014e-09 9.489357744030258e-09 6.617841427214444e-05 -5.029836991354841e-09 7.907515531258014e-09 -5.029836991354841e-09 6.616883183596656e-05" pbc="T T T"
Cd       2.01062676       1.42172771       3.48250778       0.00000010      -0.00000040      -0.00000009
Cd       6.03188010       4.26518322      10.44752323      -0.00000016       0.00000043       0.00000026
Sb      -0.00000013      -0.00000017      -0.00000043       0.00000026       0.00000122       0.00000306
Se       2.15156495       1.52138611       6.96501518      -0.00270683      -0.00191413       0.00000028
Se       5.89094216       4.16552514       6.96501514       0.00270727       0.00191393      -0.00000015
Se       4.95609790       1.52138628       5.34581740       0.00135390      -0.00191568      -0.00234557
Se       3.08640914       4.16552525       8.58421323      -0.00135286       0.00191313       0.00234342
Se       3.08640923       4.16552496       5.34581739      -0.00135428       0.00191456      -0.00234525
Se       4.95609785       1.52138597       8.58421324       0.00135261      -0.00191303       0.00234407
