9
Lattice="6.826264202306117 3.9044812135176015e-07 3.941146137981679 2.275421824462763 6.435863706379367 3.9411460417210233 -8.598840355830738e-08 -1.7869782095652234e-07 7.882292424899696" Properties=species:S:1:pos:R:3:forces:R:3 energy=-20.810138702392578 free_energy=-20.810138702392578 stress="-0.00012233905727043748 -4.805194109280819e-08 8.679339025263744e-09 -4.805194109280819e-08 -0.000122316341730766 5.248491419251877e-09 8.679339025263744e-09 5.248491419251877e-09 -0.00012246464029885828" pbc="T T T"
Cd       2.27542156       1.60896623       3.94114668      -0.00000034      -0.00000025       0.00000025
Cd       6.82626446       4.82689800      11.82343935       0.00000038       0.00000028       0.00000014
Tl      -0.00000018      -0.00000018      -0.00000102      -0.00000024       0.00000001       0.00000109
Te       2.73141459       1.93140161       7.88229251      -0.00746275      -0.00527778      -0.00000006
Te       6.37027165       4.50446266       7.88229211       0.00746233       0.00527669      -0.00000095
Te       5.46055582       1.93140305       6.30661864       0.00372887      -0.00527317      -0.00646692
Te       3.64113009       4.50446001       9.45796529      -0.00372964       0.00527412       0.00646727
Te       3.64112967       4.50446129       6.30661955      -0.00372810       0.00527404      -0.00646688
Te       5.46055605       1.93140305       9.45796517       0.00372948      -0.00527393       0.00646606
