9
Lattice="6.134059049347657 7.593707662443069e-07 3.5415011420777303 2.0446867676233516 5.783242820706235 3.5415016584037913 -6.2136141514071e-07 1.9299892624487962e-07 7.083003360385029" Properties=species:S:1:pos:R:3:forces:R:3 energy=-22.574472427368164 free_energy=-22.574472427368164 stress="-9.083197073778138e-05 -1.4044719875982992e-07 9.196544681344676e-08 -1.4044719875982992e-07 -9.031240915646777e-05 1.7968533327916703e-08 9.196544681344676e-08 1.7968533327916703e-08 -9.102765761781484e-05" pbc="T T T"
Cd       2.04468488       1.44580848       3.54150098      -0.00000141      -0.00000491       0.00000418
Cd       6.13405943       4.33743768      10.62450405       0.00000144      -0.00000039       0.00000025
Tl       0.00000067      -0.00000013      -0.00000184      -0.00000055       0.00000010       0.00000682
Se       2.52282240       1.78390793       7.08300247      -0.00325929      -0.00228675      -0.00000892
Se       5.65592286       3.99933676       7.08300079       0.00325358       0.00228935      -0.00001637
Se       4.87264846       1.78390655       5.72633104       0.00162873      -0.00228242      -0.00282133
Se       3.30609953       3.99933205       8.43967789      -0.00162117       0.00227702       0.00283024
Se       3.30609959       3.99933507       5.72633243      -0.00162166       0.00228685      -0.00282411
Se       4.87264293       1.78391069       8.43967707       0.00162034      -0.00227883       0.00282928
