9
Lattice="5.775232642699384 5.565517829374974e-08 3.3343319466521315 1.9250775780167007 5.44494137632413 3.334331984795306 -1.545663196176904e-08 3.5786186971009156e-08 6.668663920075965" Properties=species:S:1:pos:R:3:forces:R:3 energy=-23.18581771850586 free_energy=-23.18581771850586 stress="-1.4001456293044612e-05 1.706044727711742e-08 -2.0265519040663094e-08 1.706044727711742e-08 -1.392881586070871e-05 1.0777695402808263e-09 -2.0265519040663094e-08 1.0777695402808263e-09 -1.3898737051931676e-05" pbc="T T T"
Cd       1.92507703       1.36123552       3.33433181      -0.00000152       0.00000034      -0.00000057
Cd       5.77523238       4.08370595      10.00299512      -0.00000029      -0.00000059      -0.00000195
Tl      -0.00000008       0.00000014       0.00000001      -0.00000063      -0.00000096      -0.00000528
S        2.11490801       1.49546586       6.66866424      -0.00126311      -0.00089292       0.00000015
S        5.58540253       3.94947517       6.66866474       0.00126484       0.00089090       0.00000257
S        4.71777883       1.49546560       5.16589591       0.00063063      -0.00089018      -0.00109300
S        2.98253188       3.94947571       8.17143157      -0.00063239       0.00089598       0.00109556
S        2.98253122       3.94947592       5.16589595      -0.00063096       0.00089160      -0.00109202
S        4.71777899       1.49546603       8.17143192       0.00063355      -0.00089404       0.00109425
