9
Lattice="6.37879901250094 2.385323865243918e-07 3.6828013715722183 2.1262665251845934 6.013989564837902 3.682801436015342 9.947424154708869e-08 1.492652260230358e-07 7.36560257084994" Properties=species:S:1:pos:R:3:forces:R:3 energy=-32.24702835083008 free_energy=-32.24702835083008 stress="7.390975042653736e-06 1.1539954769546057e-08 2.393838194336695e-08 1.1539954769546057e-08 7.391461167571833e-06 -2.707791502132295e-08 2.393838194336695e-08 -2.707791502132295e-08 7.3783990046649706e-06" pbc="T T T"
Cd       2.12626616       1.50349728       3.68280152      -0.00000028      -0.00000043       0.00000024
Cd       6.37879907       4.51049260      11.04840418      -0.00000036      -0.00000034      -0.00000014
Ta       0.00000001      -0.00000037       0.00000069      -0.00000056       0.00000231      -0.00000359
Te       2.24818366       1.58970578       7.36560192      -0.00065683      -0.00046381       0.00000005
Te       6.25688198       4.42428388       7.36560244       0.00065674       0.00046562       0.00000098
Te       5.25470765       1.58970620       5.62978535       0.00032755      -0.00046335      -0.00056836
Te       3.25035801       4.42428400       9.10142011      -0.00032679       0.00046227       0.00056640
Te       3.25035857       4.42428384       5.62978546      -0.00032852       0.00046393      -0.00056769
Te       5.25470752       1.58970660       9.10141975       0.00032903      -0.00046618       0.00057217
