9
Lattice="5.55386265889326 1.65864374950613e-07 3.2065240114209033 1.8512875765243229 5.236232197395551 3.2065242414693507 -6.673865790791754e-08 2.3455926030703715e-07 6.413048138436557" Properties=species:S:1:pos:R:3:forces:R:3 energy=-38.840667724609375 free_energy=-38.840667724609375 stress="9.5995026640594e-05 3.6635881883739785e-08 -8.763129955013937e-08 3.6635881883739785e-08 9.590692934580147e-05 8.127309314431841e-08 -8.763129955013937e-08 8.127309314431841e-08 9.591061825631186e-05" pbc="T T T"
Cd       1.85128765       1.30905795       3.20652419      -0.00000067      -0.00000161      -0.00000026
Cd       5.55386234       3.92717476       9.61957242       0.00000014       0.00000144      -0.00000058
Ta      -0.00000004       0.00000030      -0.00000065       0.00000298      -0.00000658       0.00000868
S        1.94463206       1.37506303       6.41304834      -0.00108916      -0.00077131       0.00000120
S        5.46051770       3.86116993       6.41304837       0.00109109       0.00077158       0.00000160
S        4.58154651       1.37506301       4.89062451       0.00054541      -0.00077268      -0.00094500
S        2.82360362       3.86116967       7.93547153      -0.00054544       0.00077128       0.00094542
S        2.82360374       3.86116970       4.89062489      -0.00054425       0.00077179      -0.00094256
S        4.58154719       1.37506224       7.93547187       0.00053994      -0.00076401       0.00093186
