9
Lattice="4.756356119151097 -8.749559111084905e-08 2.7460831997767414 1.585452201116089 4.4843348489368635 2.7460827773457033 2.0159807658311451e-07 -3.748188705384425e-07 5.492166050375333" Properties=species:S:1:pos:R:3:forces:R:3 energy=-51.29753494262695 free_energy=-51.29753494262695 stress="-2.8169179131509736e-05 5.039101580450733e-08 2.7340094632677392e-08 5.039101580450733e-08 -2.832609970937483e-05 -5.53352421661657e-08 2.7340094632677392e-08 -5.53352421661657e-08 -2.8378159186104313e-05" pbc="T T T"
Cd       1.58545172       1.12108367       2.74608287      -0.00000020      -0.00000019      -0.00000023
Cd       4.75635630       3.36325130       8.23824860      -0.00000158       0.00000171      -0.00000053
Ta      -0.00000031       0.00000011       0.00000115      -0.00000099       0.00000157      -0.00000732
O        1.60682609       1.13619645       5.49216640      -0.00025451      -0.00018001      -0.00000163
O        4.73498267       3.34813788       5.49216597       0.00025535       0.00017828      -0.00000238
O        3.95294396       1.13619610       4.13763461       0.00012308      -0.00017256      -0.00021309
O        2.38886562       3.34813748       6.84669733      -0.00012660       0.00018024       0.00022072
O        2.38886476       3.34813790       4.13763439      -0.00012445       0.00017309      -0.00021595
O        3.95294341       1.13619685       6.84669712       0.00013036      -0.00018221       0.00022095
