9
Lattice="4.788831901246328 4.9435736450127696e-08 2.7648332438239676 1.5962773467905464 4.51495398896192 2.764833244227986 1.3055275049080969e-08 9.726401299405887e-09 5.529666465035467" Properties=species:S:1:pos:R:3:forces:R:3 energy=-31.28990936279297 free_energy=-31.28990936279297 stress="-0.00020783326181117445 -3.4585996289138166e-09 1.4560913585981439e-10 -3.4585996289138166e-09 -0.00020790564303752035 2.053659819978293e-08 1.4560913585981439e-10 2.053659819978293e-08 -0.00020792947907466441" pbc="T T T"
Cd       1.59627694       1.12873840       2.76483317      -0.00000107       0.00000005       0.00000002
Cd       4.78883186       3.38621526       8.29449932      -0.00000064      -0.00000085      -0.00000082
Tl      -0.00000033      -0.00000009      -0.00000000       0.00000550       0.00000322       0.00000025
O        1.76280017       1.24648818       5.52966632      -0.00280073      -0.00198062      -0.00000039
O        4.62230935       3.26846635       5.52966644       0.00279653       0.00197870      -0.00000072
O        3.90743187       1.24648780       4.29146283       0.00139900      -0.00197868      -0.00242431
O        2.47767762       3.26846580       6.76787033      -0.00139965       0.00197779       0.00242504
O        2.47767712       3.26846642       4.29146307      -0.00139949       0.00197889      -0.00242208
O        3.90743253       1.24648808       6.76787008       0.00140062      -0.00197864       0.00242288
