9
Lattice="5.915576067095688 -3.328668899999093e-09 3.41535958025621 1.971858650320504 5.577258886909763 3.4153596418705985 1.8852864408094283e-08 8.879293126740947e-08 6.8307191278583375" Properties=species:S:1:pos:R:3:forces:R:3 energy=-35.44355010986328 free_energy=-35.44355010986328 stress="-7.153407932491973e-05 -1.3682694977035226e-08 1.2937748650188041e-08 -1.3682694977035226e-08 -7.153069600462914e-05 -8.272702523015596e-09 1.2937748650188041e-08 -8.272702523015596e-09 -7.152809121180326e-05" pbc="T T T"
Cd       1.97185864       1.39431485       3.41535980      -0.00000010      -0.00000017      -0.00000008
Cd       5.91557615       4.18294415      10.24607874      -0.00000012      -0.00000032      -0.00000032
Ta      -0.00000021      -0.00000052      -0.00000022       0.00000277       0.00000386       0.00000137
Se       2.05696019       1.45449085       6.83071920       0.00028056       0.00019809      -0.00000000
Se       5.83047469       4.12276843       6.83071940      -0.00028437      -0.00020124       0.00000039
Se       4.88709579       1.45449080       5.19673930      -0.00014038       0.00019909       0.00024337
Se       3.00033886       4.12276844       8.46469889       0.00014155      -0.00019969      -0.00024466
Se       3.00033884       4.12276825       5.19673970       0.00014130      -0.00019836       0.00024354
Se       4.88709599       1.45449073       8.46469855      -0.00014124       0.00019873      -0.00024373
