9
Lattice="5.102685368268259 4.429676358350767e-08 2.946036929835664 1.700895119341353 4.81085816131689 2.946037008086549 -8.633417560278898e-08 3.478994064419501e-08 5.892074009206335" Properties=species:S:1:pos:R:3:forces:R:3 energy=-28.148590087890625 free_energy=-28.148590087890625 stress="-0.0002909699978772551 -1.1712455894041796e-08 1.464214083313209e-09 -1.1712455894041796e-08 -0.00029090302996337414 -2.2552248957197207e-09 1.464214083313209e-09 -2.2552248957197207e-09 -0.000290958269033581" pbc="T T T"
Cl       1.70089624       1.20271399       2.94603596       0.00000139      -0.00000047      -0.00000068
Cl       5.10268461       3.60814422       8.83811295      -0.00000214       0.00000035       0.00000164
Ga      -0.00000055       0.00000005      -0.00000054      -0.00000045       0.00000004       0.00000525
O        1.60905453       1.13777432       5.89207375       0.00199080       0.00140820      -0.00000029
O        5.19452359       3.67308428       5.89207258      -0.00199109      -0.00140679      -0.00000249
O        4.29815927       1.13777511       4.33952026      -0.00099361       0.00140701       0.00172275
O        2.50542618       3.67308439       7.44462945       0.00099778      -0.00140743      -0.00172362
O        2.50542216       3.67308408       4.33951978       0.00099474      -0.00140738       0.00172365
O        4.29815570       1.13777272       7.44462725      -0.00099760       0.00140646      -0.00172615
