9
Lattice="4.750410391350683 6.38545505814507e-08 2.7426502154089967 1.5834701663855943 4.478729529247985 2.7426502574411096 -8.984367389425134e-09 4.5125751655098054e-08 5.485300446379341" Properties=species:S:1:pos:R:3:forces:R:3 energy=-28.36813735961914 free_energy=-28.36813735961914 stress="0.0004118113429285586 5.0132086926168995e-08 3.025114025945186e-08 5.0132086926168995e-08 0.0004116246709600091 2.9170621473895153e-08 3.025114025945186e-08 2.9170621473895153e-08 0.0004114151233807206" pbc="T T T"
Cl       1.58346947       1.11968167       2.74264659       0.00000279       0.00000010      -0.00000830
Cl       4.75041111       3.35904777       8.22794763      -0.00000092      -0.00000206      -0.00001016
N        0.00000030      -0.00000030      -0.00000577      -0.00000547       0.00000116       0.00002606
O        1.28527672       0.90882815       5.48530232       0.00485778       0.00343537       0.00000046
O        5.04860418       3.56990182       5.48530231      -0.00485206      -0.00343060       0.00000252
O        4.10777193       0.90882852       3.85573430      -0.00242579       0.00342894       0.00420070
O        2.22610782       3.56990189       7.11487024       0.00243139      -0.00344062      -0.00420880
O        2.22610909       3.56990119       3.85573428       0.00242376      -0.00343084       0.00420141
O        4.10777207       0.90882790       7.11487010      -0.00243151       0.00343847      -0.00420499
