9
Lattice="5.085681541632862 -1.9735147013271838e-07 2.9362196707260857 1.6952271270019261 4.794825949563335 2.9362194411905866 7.172711459048657e-08 -2.3040370467841597e-07 5.872439217217151" Properties=species:S:1:pos:R:3:forces:R:3 energy=-31.415203094482422 free_energy=-31.415203094482422 stress="0.0001463932712795213 -3.205097742764451e-09 1.4263507708278667e-08 -3.205097742764451e-09 0.00014631352678406984 5.651095946745954e-08 1.4263507708278667e-08 5.651095946745954e-08 0.00014631336671300232" pbc="T T T"
Cl       1.69522729       1.19870620       2.93622010      -0.00000001       0.00000047       0.00000024
Cl       5.08568112       3.59611929       8.80865927      -0.00000010      -0.00000016       0.00000061
Sb       0.00000013       0.00000024       0.00000023       0.00000214      -0.00000386       0.00000407
O        1.63860499       1.15866889       5.87243881      -0.00397062      -0.00280726       0.00000043
O        5.14230430       3.63615667       5.87243867       0.00397122       0.00280625       0.00000048
O        4.26637875       1.15866878       4.35529269       0.00198391      -0.00280613      -0.00343710
O        2.51452959       3.63615670       7.38958563      -0.00198430       0.00280714       0.00343734
O        2.51452961       3.63615686       4.35529239      -0.00198522       0.00280756      -0.00343907
O        4.26637940       1.15866821       7.38958569       0.00198299      -0.00280404       0.00343317
