9
Lattice="4.927337784819767 1.270957645844395e-07 2.844799646346227 1.6424460467394972 4.645538545756422 2.8447996487031793 1.2730429603130115e-07 9.290442723441235e-08 5.689599072194946" Properties=species:S:1:pos:R:3:forces:R:3 energy=-36.07855987548828 free_energy=-36.07855987548828 stress="0.00038090310408733785 -4.065712211342998e-09 1.0115391191334311e-08 -4.065712211342998e-09 0.0003807679167948663 -1.9355997693537574e-08 1.0115391191334311e-08 -1.9355997693537574e-08 0.00038085810956545174" pbc="T T T"
Cl       1.64244583       1.16138511       2.84479966      -0.00000062      -0.00000054       0.00000014
Cl       4.92733803       3.48415393       8.53439868       0.00000095       0.00000012       0.00000059
Y        0.00000029       0.00000032      -0.00000019      -0.00000080       0.00000045      -0.00000119
O        1.88930240       1.33593850       5.68959907       0.00715362       0.00505848      -0.00000041
O        4.68048150       3.30960005       5.68959929      -0.00715363      -0.00505908      -0.00000003
O        3.98268668       1.33593839       4.48098349      -0.00357715       0.00505863       0.00619610
O        2.58709711       3.30960043       6.89821504       0.00357652      -0.00505827      -0.00619516
O        2.58709710       3.30960012       4.48098360       0.00357712      -0.00505808       0.00619550
O        3.98268687       1.33593848       6.89821483      -0.00357611       0.00505842      -0.00619583
