9
Lattice="4.169329312863213 -6.997058059011903e-09 2.407163511317414 1.3897764463294189 3.9308812847317696 2.4071634848079615 8.592237619833294e-08 2.8288981195120005e-08 4.8143268738128935" Properties=species:S:1:pos:R:3:forces:R:3 energy=-49.57585144042969 free_energy=-49.57585144042969 stress="0.0001662714930716902 6.929414553269453e-08 -2.864908488220408e-08 6.929414553269453e-08 0.0001661289279581979 -6.277769415419243e-08 -2.864908488220408e-08 -6.277769415419243e-08 0.00016619620146229863" pbc="T T T"
Co       1.38977584       0.98271862       2.40716566      -0.00001219      -0.00002808       0.00004293
Co       4.16933110       2.94816059       7.22149095       0.00002860      -0.00000683       0.00000783
As      -0.00000008      -0.00000002       0.00000018      -0.00000132       0.00000255      -0.00000168
N        1.55857020       1.10207634       4.81432598      -0.00101376      -0.00070257      -0.00002063
N        4.00053471       2.82880589       4.81432700       0.00100037       0.00071894       0.00000069
N        3.39004352       1.10207575       3.75692508       0.00049575      -0.00071460      -0.00087324
N        2.16906142       2.82880739       5.87172731      -0.00050890       0.00073807       0.00084816
N        2.16906109       2.82880536       3.75692548      -0.00051594       0.00071241      -0.00086150
N        3.39004564       1.10207535       5.87172784       0.00052755      -0.00071941       0.00085729
