9
Lattice="5.531579836903646 5.915523949331765e-08 3.1936593115687764 1.8438599497313206 5.215223579642817 3.1936594010730825 3.1470746990982004e-08 1.318731043276948e-07 6.387318568628629" Properties=species:S:1:pos:R:3:forces:R:3 energy=-33.85252380371094 free_energy=-33.85252380371094 stress="7.120204827515408e-05 -7.019164627308783e-08 1.3830029566008761e-08 -7.019164627308783e-08 7.120861846487969e-05 2.2067405680559204e-08 1.3830029566008761e-08 2.2067405680559204e-08 7.125594129320234e-05" pbc="T T T"
Co       1.84386108       1.30380548       3.19365903       0.00001138      -0.00000597      -0.00000591
Co       5.53158099       3.91141851       9.58097857       0.00001007       0.00000686       0.00000494
As       0.00000037      -0.00000009       0.00000033      -0.00000186       0.00000265      -0.00000528
S        1.91814770       1.35633531       6.38731844      -0.00696647      -0.00492698      -0.00000008
S        5.45729201       3.85888859       6.38731749       0.00696725       0.00493163      -0.00000745
S        4.57250534       1.35633533       4.85482434       0.00348011      -0.00493193      -0.00603586
S        2.80293354       3.85888784       7.91981289      -0.00349173       0.00492847       0.00603569
S        2.80293340       3.85888894       4.85482486      -0.00348705       0.00493085      -0.00602818
S        4.57250488       1.35633515       7.91981321       0.00347847      -0.00493568       0.00604194
