9
Lattice="4.511842187001713 -4.500711341345549e-07 2.60491382365928 1.503947292502742 4.253804746741456 2.604913267382283 2.1273314667022176e-07 -5.308723975044872e-07 5.209827278853949" Properties=species:S:1:pos:R:3:forces:R:3 energy=-44.793121337890625 free_energy=-44.793121337890625 stress="5.825383050250821e-05 7.604894491919367e-10 -8.899467829337482e-09 7.604894491919367e-10 5.773544035037048e-05 -8.368868975594523e-08 -8.899467829337482e-09 -8.368868975594523e-08 5.7654902775539085e-05" pbc="T T T"
Co       1.50395159       1.06344773       2.60490826       0.00005938      -0.00003629      -0.00007909
Co       4.51184473       3.19035846       7.81473582       0.00003206       0.00007610      -0.00006834
As      -0.00000013       0.00000034       0.00000004      -0.00000150      -0.00001101      -0.00000095
O        1.47057733       1.03985140       5.20983018       0.00004625       0.00000167       0.00003964
O        4.54521192       3.21395134       5.20982856      -0.00004780       0.00000501       0.00002702
O        3.77655334       1.03985197       3.87847092      -0.00003701      -0.00000322       0.00005591
O        2.23923505       3.21394939       6.54118598       0.00001299      -0.00003588      -0.00002015
O        2.23923270       3.21395101       3.87847156      -0.00001574      -0.00000858       0.00006032
O        3.77655235       1.03985280       6.54118602      -0.00004929       0.00001264      -0.00001431
