9
Lattice="5.61427025444776 9.741278683841221e-08 3.241400574340157 1.8714235016711362 5.293185273644973 3.241400588750595 -8.702396920202487e-08 -4.388620282449375e-08 6.482801299410196" Properties=species:S:1:pos:R:3:forces:R:3 energy=-32.75057601928711 free_energy=-32.75057601928711 stress="-6.943245534785092e-05 -1.2683644001754146e-07 2.3113672398267227e-07 -1.2683644001754146e-07 -7.003708742558956e-05 1.6566701788178761e-07 2.3113672398267227e-07 1.6566701788178761e-07 -6.990467954892665e-05" pbc="T T T"
Co       1.87140104       1.32329076       3.24142731      -0.00022581      -0.00003741       0.00026361
Co       5.61427484       3.96986350       9.72420351       0.00006114      -0.00024665      -0.00000804
As      -0.00000032       0.00000111      -0.00000177       0.00001133       0.00001204      -0.00000799
Se       2.19690717       1.55346153       6.48279007      -0.00438514      -0.00295994      -0.00012313
Se       5.28878586       3.73973069       6.48280186       0.00435299       0.00301766       0.00000761
Se       4.51581978       1.55345796       5.14397988       0.00221241      -0.00299022      -0.00376949
Se       2.96988000       3.73974384       7.82161230      -0.00214964       0.00314233       0.00366986
Se       2.96987640       3.73973217       5.14398019      -0.00219493       0.00303847      -0.00374025
Se       4.51583003       1.55345988       7.82161667       0.00231762      -0.00297648       0.00370765
