9
Lattice="6.160403898453372 -3.0742212612106546e-08 3.5567108577902373 2.053467938629102 5.8080845509687276 3.5567108552579896 2.5538093912845e-08 1.495679597782708e-08 7.113421671347201" Properties=species:S:1:pos:R:3:forces:R:3 energy=-30.69241714477539 free_energy=-30.69241714477539 stress="0.00019404351769480854 2.235406704187426e-08 2.6915771833557756e-09 2.235406704187426e-08 0.00019401680037844926 -9.200070150150452e-10 2.6915771833557756e-09 -9.200070150150452e-10 0.00019403002806939185" pbc="T T T"
Co       2.05346801       1.45202125       3.55671085      -0.00000098       0.00000019       0.00000060
Co       6.16040382       4.35606330      10.67013257       0.00000013      -0.00000072       0.00000020
B       -0.00000005      -0.00000005       0.00000005       0.00000195      -0.00000095      -0.00000030
Te       1.86268288       1.31711574       7.11342167      -0.00547417      -0.00387108      -0.00000019
Te       6.35118901       4.49096879       7.11342172       0.00547349       0.00387086       0.00000004
Te       5.22906243       1.31711578       5.16984147       0.00273637      -0.00386998      -0.00473920
Te       2.98480945       4.49096875       9.05700182      -0.00273648       0.00387046       0.00474048
Te       2.98480947       4.49096874       5.16984154      -0.00273709       0.00387125      -0.00474063
Te       5.22906241       1.31711585       9.05700183       0.00273665      -0.00387007       0.00473909
