9
Lattice="4.041635583584866 3.7730338911582466e-08 2.3334396330652303 1.3472118602697403 3.810490847274707 2.3334396962811113 -1.0643802616795784e-07 2.1603091947758173e-09 4.666879450486526" Properties=species:S:1:pos:R:3:forces:R:3 energy=-48.108795166015625 free_energy=-48.108795166015625 stress="-3.686426134663634e-05 -6.508935967985963e-08 1.3127504416843294e-07 -6.508935967985963e-08 -3.6930654459865764e-05 -3.1930508015420855e-08 1.3127504416843294e-07 -3.1930508015420855e-08 -3.698055661516264e-05" pbc="T T T"
Co       1.34721308       0.95262105       2.33344223       0.00001467      -0.00002027       0.00003559
Co       4.04163551       2.85786724       7.00032327       0.00000013      -0.00001223       0.00005315
B        0.00000012      -0.00000005       0.00000065       0.00000258      -0.00000092      -0.00000084
O        1.30889797       0.92553162       4.66687791      -0.00091279      -0.00063550      -0.00002050
O        4.07994875       2.88496048       4.66687775       0.00090122       0.00064558      -0.00001881
O        3.38718607       0.92553204       3.46697768       0.00044918      -0.00062901      -0.00080025
O        2.00166070       2.88496077       5.86677842      -0.00045967       0.00065422       0.00077188
O        2.00166196       2.88495998       3.46697819      -0.00044566       0.00064629      -0.00079894
O        3.38718540       0.92553066       5.86677902       0.00044984      -0.00064856       0.00078058
