9
Lattice="5.586063667607957 -9.485476014620022e-09 3.2251155734082197 1.862021178747977 5.266591590676235 3.2251156337616207 2.7742925403216057e-08 9.353471462224305e-08 6.450231098764272" Properties=species:S:1:pos:R:3:forces:R:3 energy=-34.02418518066406 free_energy=-34.02418518066406 stress="-7.180844113463536e-05 -7.3471286832216265e-09 -7.891739528531616e-08 -7.3471286832216265e-09 -7.171813922468573e-05 -7.044899774655278e-08 -7.891739528531616e-08 -7.044899774655278e-08 -7.171367906266823e-05" pbc="T T T"
Co       1.86202092       1.31664624       3.22511288      -0.00000298      -0.00002317      -0.00003771
Co       5.58605979       3.94994344       9.67535094      -0.00005196      -0.00000261       0.00005829
B       -0.00000072      -0.00000026      -0.00000011      -0.00000370      -0.00000167       0.00000132
Se       1.71929234       1.21572131       6.45023261       0.00098157       0.00067098       0.00002077
Se       5.72879293       4.05086887       6.45022861      -0.00098362      -0.00068600      -0.00003413
Se       4.72641925       1.21572479       4.71406560      -0.00046732       0.00071210       0.00083475
Se       2.72166730       4.05086897       8.18639644       0.00049275      -0.00068666      -0.00083806
Se       2.72167057       4.05087036       4.71406558       0.00053115      -0.00066648       0.00083321
Se       4.72641705       1.21572295       8.18639664      -0.00049593       0.00068343      -0.00083864
