9
Lattice="5.350142655820746 -3.938817149396916e-08 3.0889061347624702 1.7833808819576176 5.04416255146414 3.0889060761852756 4.1066870997037405e-08 -4.2703442405875494e-08 6.177812198395024" Properties=species:S:1:pos:R:3:forces:R:3 energy=-37.04884719848633 free_energy=-37.04884719848633 stress="-0.00035284459590911865 3.786938052030564e-08 5.464205532490496e-09 3.786938052030564e-08 -0.000352790200849995 1.1099349883636478e-08 5.464205532490496e-09 1.1099349883636478e-08 -0.00035284183104522526" pbc="T T T"
Co       1.78338014       1.26104041       3.08890506      -0.00001030      -0.00000017      -0.00000837
Co       5.35014289       3.78312195       9.26671709       0.00000426       0.00000072      -0.00001252
B        0.00000023       0.00000001       0.00000016       0.00000084       0.00000009       0.00000445
S        1.63816343       1.15835655       6.17781265       0.00659758       0.00466904       0.00000435
S        5.49536016       3.88580592       6.17781276      -0.00659811      -0.00466910       0.00000429
S        4.53106127       1.15835594       4.50759788      -0.00329688       0.00466350       0.00572079
S        2.60246282       3.88580615       7.84802727       0.00330135      -0.00466684      -0.00571698
S        2.60246250       3.88580636       4.50759736       0.00329852      -0.00466597       0.00572124
S        4.53106105       1.15835662       7.84802714      -0.00329724       0.00466904      -0.00571656
