9
Lattice="5.604632471154977 2.513851668498087e-07 3.2358360929468133 1.8682110863559735 5.284098872122473 3.2358360485553757 -2.460112806708304e-07 -2.2832437643028823e-07 6.471672611997537" Properties=species:S:1:pos:R:3:forces:R:3 energy=-30.85952377319336 free_energy=-30.85952377319336 stress="-0.0001905036624521017 -1.6925558554703457e-07 5.8828998561466506e-08 -1.6925558554703457e-07 -0.00019103652448393404 3.5522557340073035e-08 5.8828998561466506e-08 3.5522557340073035e-08 -0.00019094310118816793" pbc="T T T"
Co       1.86822715       1.32100577       3.23584036       0.00017953      -0.00019590       0.00003400
Co       5.60463012       3.96306779       9.70751652      -0.00004359      -0.00005290       0.00008063
Ga      -0.00000002       0.00000054      -0.00000024      -0.00000576       0.00000576      -0.00000084
Se       2.13948619       1.51284557       6.47167143      -0.00254902      -0.00180681      -0.00001291
Se       5.33334988       3.77126338       6.47166849       0.00247382       0.00191727      -0.00004173
Se       4.53488274       1.51284941       5.08867929       0.00120756      -0.00176580      -0.00227953
Se       2.93795667       3.77125917       7.85465552      -0.00124982       0.00186007       0.00217810
Se       2.93795898       3.77125702       5.08868540      -0.00121932       0.00184169      -0.00220942
Se       4.53488152       1.51284685       7.85466226       0.00120658      -0.00180337       0.00225177
