9
Lattice="5.426202010793625 8.656318270455777e-09 3.1328191168439528 1.8087340427952963 5.115872002018722 3.132819063087724 1.0900366137388348e-07 1.1239562061739276e-08 6.265638044888018" Properties=species:S:1:pos:R:3:forces:R:3 energy=-32.46112060546875 free_energy=-32.46112060546875 stress="-0.00011420297232689336 1.7749027136915174e-08 -4.325357849666034e-08 1.7749027136915174e-08 -0.00011423032265156507 -1.7811013108826046e-08 -4.325357849666034e-08 -1.7811013108826046e-08 -0.00011424144031479955" pbc="T T T"
Co       1.80873343       1.27896856       3.13281997      -0.00000694       0.00000536       0.00000894
Co       5.42620257       3.83690312       9.39845645       0.00000466      -0.00000939      -0.00000577
Ga       0.00000022       0.00000043      -0.00000018      -0.00000313      -0.00000520       0.00000203
S        1.90867713       1.34963912       6.26563786      -0.00217440      -0.00153063      -0.00000128
S        5.32625815       3.76623277       6.26563879       0.00218113       0.00153802       0.00000495
S        4.47186313       1.34963891       4.78578198       0.00108664      -0.00153756      -0.00188341
S        2.76307285       3.76623342       7.74549388      -0.00108952       0.00153823       0.00188217
S        2.76307252       3.76623257       4.78578206      -0.00109209       0.00153406      -0.00188560
S        4.47186467       1.34963918       7.74549407       0.00109372      -0.00153270       0.00187792
