9
Lattice="4.301409073819587 6.845328291199173e-08 2.483419881700177 1.433803091026475 4.055407759262984 2.4834198784412727 1.695603262552897e-07 1.1590588097883655e-07 4.966839469713233" Properties=species:S:1:pos:R:3:forces:R:3 energy=-40.247074127197266 free_energy=-40.247074127197266 stress="7.715605170233175e-05 -8.537948303910525e-08 -3.9544076457787014e-07 -8.537948303910525e-08 7.573689799755812e-05 -2.717638949434331e-07 -3.9544076457787014e-07 -2.717638949434331e-07 7.710180943831801e-05" pbc="T T T"
Co       1.43380125       1.01385966       2.48342012      -0.00002138       0.00009701      -0.00000237
Co       4.30140838       3.04155590       7.45026455      -0.00001429       0.00000068       0.00006764
Ga      -0.00000017       0.00000026       0.00000024      -0.00000038       0.00002137       0.00000856
O        1.50244815       1.06239219       4.96683967      -0.00046340      -0.00032255       0.00000075
O        4.23276552       2.99301435       4.96683724       0.00047618       0.00028223      -0.00003225
O        3.55018621       1.06239296       3.78457823       0.00024755      -0.00030927      -0.00040406
O        2.18502652       2.99301313       6.14910221      -0.00024453       0.00028622       0.00041088
O        2.18502819       2.99301353       3.78457581      -0.00021541       0.00028729      -0.00042620
O        3.55018531       1.06238994       6.14909904       0.00023565      -0.00034323       0.00037736
