9
Lattice="6.242263633260351 1.125644733819572e-08 3.603972646558728 2.080754535607295 5.885262509976378 3.603972680204674 -4.2738474794618285e-08 1.0987045234118041e-08 7.2079453671426235" Properties=species:S:1:pos:R:3:forces:R:3 energy=-27.985729217529297 free_energy=-27.985729217529297 stress="6.944136202946538e-06 8.58226201216894e-09 -8.235361725894563e-09 8.58226201216894e-09 6.938758815522306e-06 -6.560799459265354e-09 -8.235361725894563e-09 -6.560799459265354e-09 6.941728770470945e-06" pbc="T T T"
Co       2.08075405       1.47131544       3.60397260      -0.00000160      -0.00000132      -0.00000080
Co       6.24226342       4.41394691      10.81191685      -0.00000113       0.00000144      -0.00000348
Ga      -0.00000007      -0.00000013       0.00000010      -0.00000040       0.00000005      -0.00000023
Te       2.25480652       1.59438875       7.20794519      -0.00013903      -0.00009894      -0.00000060
Te       6.06821214       4.29087362       7.20794579       0.00013952       0.00009815       0.00000189
Te       5.11486056       1.59438875       5.55669248       0.00007033      -0.00009937      -0.00012041
Te       3.20815788       4.29087377       8.85919862      -0.00006833       0.00009856       0.00012087
Te       3.20815743       4.29087390       5.55669243      -0.00006966       0.00009961      -0.00011951
Te       5.11486057       1.59438911       8.85919870       0.00007029      -0.00009824       0.00012229
