9
Lattice="4.530907634812979 -2.1202366675733452e-08 2.6159207129388204 1.5103025890878246 4.271780589843963 2.6159206018452243 5.128661265925617e-08 -9.979624920008942e-08 5.231841337046729" Properties=species:S:1:pos:R:3:forces:R:3 energy=-47.20624923706055 free_energy=-47.20624923706055 stress="0.0004137184005230665 -3.3452767667085936e-08 7.893710574080615e-08 -3.3452767667085936e-08 0.000413738947827369 -1.6978594530314695e-08 7.893710574080615e-08 -1.6978594530314695e-08 0.00041368193342350423" pbc="T T T"
Co       1.51030060       1.06794322       2.61592137      -0.00002718      -0.00002504       0.00001044
Co       4.53090766       3.20383638       7.84776244      -0.00000103       0.00001508       0.00000952
Ir       0.00000025      -0.00000001       0.00000005      -0.00000595       0.00000283      -0.00000022
O        1.51025857       1.06791313       5.23184133      -0.00506670      -0.00359482      -0.00000386
O        4.53095194       3.20386754       5.23184186       0.00507383       0.00359528       0.00000378
O        3.77577911       1.06791469       3.92384197       0.00254489      -0.00358558      -0.00439851
O        2.26543151       3.20386723       6.53983979      -0.00253460       0.00359490       0.00438839
O        2.26543184       3.20386714       3.92384297      -0.00253654       0.00360013      -0.00439337
O        3.77577968       1.06791270       6.53983855       0.00255319      -0.00360264       0.00438338
