9
Lattice="5.266510175521776 1.6011443327980765e-09 3.040620935528923 1.755503410882063 4.96531319694173 3.0406209051628266 -6.999101244353687e-10 -3.768566965034858e-08 6.081241872270179" Properties=species:S:1:pos:R:3:forces:R:3 energy=-40.8151741027832 free_energy=-40.8151741027832 stress="-0.00016352764214389026 1.8097493281743482e-08 2.197276138815596e-08 1.8097493281743482e-08 -0.00016356975538656116 3.4073718069294046e-08 2.197276138815596e-08 3.4073718069294046e-08 -0.0001635599764995277" pbc="T T T"
Co       1.75550131       1.24132804       3.04062018      -0.00002360      -0.00000254      -0.00000645
Co       5.26650920       3.72398569       9.12186284      -0.00000985       0.00000927      -0.00000322
Ir      -0.00000054       0.00000102       0.00000010      -0.00000345       0.00000207      -0.00000046
S        1.89442057       1.33955644       6.08124234      -0.00721979      -0.00511399       0.00000589
S        5.12759371       3.62575582       6.08124217       0.00723028       0.00510839       0.00000190
S        4.31930118       1.33955686       4.68123701       0.00362143      -0.00511247      -0.00624937
S        2.70271365       3.62575579       7.48124669      -0.00361088       0.00511053       0.00625497
S        2.70271420       3.62575642       4.68123684      -0.00360578       0.00511298      -0.00625467
S        4.31930093       1.33955656       7.48124653       0.00362173      -0.00511405       0.00625116
