9
Lattice="5.732458736771716 -9.682374851404278e-10 3.3096366291573065 1.9108195767968348 5.404613669266592 3.309636631260419 1.9061521008235596e-09 3.92360654105902e-09 6.619273255013099" Properties=species:S:1:pos:R:3:forces:R:3 energy=-37.402488708496094 free_energy=-37.402488708496094 stress="-0.00023255297855939716 2.5044274210017647e-08 -1.2177634012289218e-08 2.5044274210017647e-08 -0.00023257221619132906 1.2581081065832223e-08 -1.2177634012289218e-08 1.2581081065832223e-08 -0.00023260385205503553" pbc="T T T"
Co       1.91081766       1.35115292       3.30963614      -0.00001671      -0.00000520      -0.00000574
Co       5.73245905       4.05346128       9.92891027       0.00000312       0.00000779       0.00000318
Ir       0.00000007       0.00000016      -0.00000023      -0.00000000      -0.00000027       0.00000334
Se       2.01125828       1.42217375       6.61927347       0.00419670       0.00296336       0.00000335
Se       5.63202020       3.98243942       6.61927302      -0.00419395      -0.00296745      -0.00000179
Se       4.72683052       1.42217390       5.05143774      -0.00208995       0.00296398       0.00363931
Se       2.91644839       3.98243944       8.18710943       0.00209556      -0.00296573      -0.00363657
Se       2.91644860       3.98244010       5.05143740       0.00209877      -0.00296192       0.00363666
Se       4.72683049       1.42217373       8.18710879      -0.00209368       0.00296551      -0.00364172
