9
Lattice="5.512022959419237 -2.9076114481179266e-08 3.1823678604875205 1.837340976111683 5.196784845044161 3.182367830952939 1.688460069628765e-08 -2.423311656263647e-08 6.364735691730055" Properties=species:S:1:pos:R:3:forces:R:3 energy=-43.13546371459961 free_energy=-43.13546371459961 stress="-4.0332051867153496e-05 6.84565026887185e-09 -5.1441539916652346e-09 6.84565026887185e-09 -4.0379061829298735e-05 -3.124858949377085e-08 -5.1441539916652346e-09 -3.124858949377085e-08 -4.035502206534147e-05" pbc="T T T"
Co       1.83734168       1.29919595       3.18236788       0.00000657      -0.00000241       0.00000207
Co       5.51202255       3.89758860       9.54710153      -0.00000459      -0.00000145      -0.00001696
Mo       0.00000019      -0.00000016      -0.00000021      -0.00000125       0.00000143       0.00000049
S        1.88643075       1.33390782       6.36473581      -0.00067595      -0.00047766       0.00000053
S        5.46293268       3.86287735       6.36473705       0.00067553       0.00048335       0.00000869
S        4.56880732       1.33390758       4.81606464       0.00033510      -0.00048089      -0.00058652
S        2.78055691       3.86287709       7.91340722      -0.00033346       0.00047581       0.00058798
S        2.78055588       3.86287683       4.81606464      -0.00034060       0.00047769      -0.00058562
S        4.56880789       1.33390815       7.91340697       0.00033851      -0.00047575       0.00058909
