9
Lattice="4.58858967018933 -1.3758912733220956e-07 2.6492234869753792 1.5295297776376375 4.326163587909309 2.6492234570199145 1.2704898860764914e-08 -2.7704091447914844e-08 5.298446951945214" Properties=species:S:1:pos:R:3:forces:R:3 energy=-49.094505310058594 free_energy=-49.094505310058594 stress="0.00019363555475138128 9.686087310001312e-08 3.234464429624495e-08 9.686087310001312e-08 0.0001936797925736755 1.29575661311776e-09 3.234464429624495e-08 1.29575661311776e-09 0.00019381944730412215" pbc="T T T"
Co       1.52952996       1.08154007       2.64922374       0.00000235      -0.00000725       0.00000443
Co       4.58859041       3.24462409       7.94767143       0.00001105       0.00001604       0.00001017
Mo       0.00000014       0.00000017      -0.00000028       0.00000012      -0.00000340       0.00000217
O        1.55019295       1.09615175       5.29844668      -0.00114256      -0.00080788      -0.00000340
O        4.56792652       3.23001171       5.29844675       0.00113845       0.00080687      -0.00000398
O        3.81349300       1.09615129       3.99172999       0.00057048      -0.00081229      -0.00098717
O        2.30462613       3.23001199       6.60516360      -0.00057551       0.00081354       0.00098544
O        2.30462622       3.23001163       3.99172967      -0.00057131       0.00080830      -0.00099039
O        3.81349256       1.09615090       6.60516391       0.00056633      -0.00081372       0.00098050
