9
Lattice="5.9422449018437025 -8.314279251605392e-08 3.4307566980902813 1.9807482955688953 5.602402209813522 3.4307565710580303 5.36959602932445e-08 -1.1761333077089546e-07 6.861513303176419" Properties=species:S:1:pos:R:3:forces:R:3 energy=-39.754669189453125 free_energy=-39.754669189453125 stress="0.00024061519070528448 1.2156674777941134e-08 2.4731917847020668e-08 1.2156674777941134e-08 0.00024064145691227168 -4.0795626432554855e-08 2.4731917847020668e-08 -4.0795626432554855e-08 0.00024066089827101678" pbc="T T T"
Co       1.98074783       1.40059970       3.43075663      -0.00000400      -0.00000508      -0.00000068
Co       5.94224486       4.20180133      10.29227028       0.00000031      -0.00000128       0.00000571
Mo      -0.00000005      -0.00000008       0.00000036       0.00000142       0.00000155      -0.00000257
Se       1.98806272       1.40577269       6.86151372      -0.00449169      -0.00317352       0.00000320
Se       5.93493068       4.19662970       6.86151333       0.00449070       0.00317293      -0.00000082
Se       4.94821377       1.40577239       5.15246942       0.00224362      -0.00317517      -0.00388849
Se       2.97477950       4.19662988       8.57055657      -0.00224641       0.00317813       0.00388405
Se       2.97478023       4.19662957       5.15246960      -0.00224236       0.00317943      -0.00389212
Se       4.94821341       1.40577282       8.57055639       0.00224864      -0.00317720       0.00389165
