9
Lattice="4.034131551489469 2.960950023628714e-09 2.329107002042581 1.344710545147617 3.803415609944849 2.3291069584072637 1.6076437143184873e-07 6.023544558292096e-08 4.6582137256331055" Properties=species:S:1:pos:R:3:forces:R:3 energy=-41.884944915771484 free_energy=-41.884944915771484 stress="-0.0007464943919330835 1.6100388222639594e-07 -3.260281573602697e-07 1.6100388222639594e-07 -0.000746466510463506 -9.284701008027696e-08 -3.260281573602697e-07 -9.284701008027696e-08 -0.0007461683126166463" pbc="T T T"
Co       1.34470987       0.95085355       2.32910988      -0.00000547      -0.00000060       0.00004813
Co       4.03413315       2.85256350       6.98732124       0.00001261       0.00001860       0.00002781
N        0.00000003       0.00000134       0.00001465       0.00000309       0.00003875       0.00037928
O        1.29944239       0.91884404       4.65821454      -0.00411415      -0.00290918       0.00001756
O        4.07939876       2.88457062       4.65821488       0.00408721       0.00289017       0.00001788
O        3.38441317       0.91884015       3.45445278       0.00213605      -0.00302005      -0.00368369
O        1.99443569       2.88456623       5.86196417      -0.00196290       0.00277394       0.00341499
O        1.99442859       2.88457432       3.45445379      -0.00212979       0.00300032      -0.00366104
O        3.38440721       0.91884899       5.86196507       0.00197423      -0.00279182       0.00343907
