9
Lattice="5.502677824634053 -1.3322434646596743e-08 3.176972436795739 1.8342259503869633 5.187974191412372 3.176972399725027 1.3145484179223935e-08 -3.610690129754658e-08 6.353944850822803" Properties=species:S:1:pos:R:3:forces:R:3 energy=-35.846343994140625 free_energy=-35.846343994140625 stress="6.637478509219363e-05 3.2809548855539106e-08 -3.6182071228019197e-10 3.2809548855539106e-08 6.63093087496236e-05 1.077345501698801e-08 -3.6182071228019197e-10 1.077345501698801e-08 6.638119521085173e-05" pbc="T T T"
Co       1.83422630       1.29699336       3.17697209       0.00000323      -0.00000320      -0.00000477
Co       5.50267858       3.89098181       9.53091775       0.00000745       0.00001280       0.00000845
P       -0.00000012       0.00000014      -0.00000017       0.00000242      -0.00000065      -0.00000076
S        1.78119979       1.25949795       6.35394504      -0.00101519      -0.00072420       0.00000281
S        5.55570440       3.92847554       6.35394474       0.00101781       0.00071752      -0.00000349
S        4.61207766       1.25949760       4.71953620       0.00050396      -0.00072068      -0.00087851
S        2.72482525       3.92847619       7.98835295      -0.00051355       0.00072151       0.00087762
S        2.72482569       3.92847665       4.71953691      -0.00050825       0.00072140      -0.00087678
S        4.61207756       1.25949746       7.98835325       0.00050169      -0.00072426       0.00087601
