9
Lattice="3.9386499972485396 6.31414573617484e-08 2.273980622685502 1.312883296740298 3.713394932780619 2.2739807875875626 9.55631693184496e-09 2.0872016880781475e-07 4.547961228819041" Properties=species:S:1:pos:R:3:forces:R:3 energy=-52.35858917236328 free_energy=-52.35858917236328 stress="-3.447008566581644e-05 2.574744257799466e-07 1.3323632686024212e-07 2.574744257799466e-07 -3.393571751075797e-05 5.154384439265414e-07 1.3323632686024212e-07 5.154384439265414e-07 -3.4041648177662864e-05" pbc="T T T"
Co       1.31288382       0.92835051       2.27398067      -0.00001748      -0.00003215      -0.00000561
Co       3.93865049       2.78504507       6.82194194      -0.00000842       0.00003098       0.00000571
P       -0.00000013       0.00000019      -0.00000004       0.00002492      -0.00003036      -0.00001629
O        1.39244093       0.98460388       4.54796147       0.00380605       0.00271124       0.00000883
O        3.85909185       2.72879113       4.54796103      -0.00377518      -0.00269449      -0.00000693
O        3.24242955       0.98460398       3.47986991      -0.00189286       0.00270605       0.00330245
O        2.00910350       2.72879141       5.61605278       0.00188574      -0.00269276      -0.00327158
O        2.00910345       2.72879074       3.47986962       0.00189084      -0.00268668       0.00328982
O        3.24242963       0.98460477       5.61605302      -0.00191301       0.00268954      -0.00330812
