9
Lattice="5.721750742292157 4.460370298584515e-08 3.303454424194525 1.9072502642976752 5.394518421354005 3.303454467817698 3.043135561509219e-08 7.494543432899664e-08 6.6069087956804" Properties=species:S:1:pos:R:3:forces:R:3 energy=-32.8742561340332 free_energy=-32.8742561340332 stress="-0.00020426225091796368 -2.0710293480163955e-09 1.1921169829065548e-08 -2.0710293480163955e-09 -0.00020427961135283113 -1.5441168343954814e-08 1.1921169829065548e-08 -1.5441168343954814e-08 -0.00020427937852218747" pbc="T T T"
Co       1.90725146       1.34863088       3.30345368       0.00001347       0.00001582      -0.00000814
Co       5.72174980       4.04588808       9.91036502      -0.00001287      -0.00000972       0.00001886
P       -0.00000011       0.00000001       0.00000029      -0.00000081       0.00000330      -0.00000689
Se       1.90660656       1.34817445       6.60690895      -0.00068119      -0.00048098       0.00000210
Se       5.72239470       4.04634391       6.60690750       0.00068161       0.00047909      -0.00001318
Se       4.76844740       1.34817516       4.95462376       0.00033921      -0.00047278      -0.00059444
Se       2.86055379       4.04634308       8.25919398      -0.00034121       0.00047268       0.00059679
Se       2.86055394       4.04634362       4.95462381      -0.00033361       0.00047569      -0.00059283
Se       4.76844660       1.34817496       8.25919381       0.00033543      -0.00048308       0.00059766
