9
Lattice="5.728646957341939 -1.1071718005141504e-08 3.307435791610587 1.9095489876885052 5.401020094798063 3.3074357702260055 2.8515192955662242e-08 -6.027359638440005e-09 6.614871533831427" Properties=species:S:1:pos:R:3:forces:R:3 energy=-36.21044921875 free_energy=-36.21044921875 stress="-0.00016764641623012722 1.2234867341476274e-08 -6.840602750912694e-09 1.2234867341476274e-08 -0.0001676141982898116 1.6342916353551118e-08 -6.840602750912694e-09 1.6342916353551118e-08 -0.00016767645138315856" pbc="T T T"
Co       1.90954898       1.35025579       3.30743613       0.00000070       0.00000694       0.00000172
Co       5.72864685       4.05076453       9.92230693      -0.00000120      -0.00000613      -0.00000160
Rh       0.00000002       0.00000018       0.00000004       0.00000119      -0.00000565       0.00000165
Se       1.99782436       1.41267494       6.61487135       0.00302224       0.00213742      -0.00000148
Se       5.64037177       3.98834460       6.61487158      -0.00301915      -0.00213858       0.00000064
Se       4.72973474       1.41267512       5.03760208      -0.00151137       0.00213981       0.00261697
Se       2.90846106       3.98834473       8.19214089       0.00150947      -0.00213794      -0.00261559
Se       2.90846098       3.98834478       5.03760223       0.00150878      -0.00213841       0.00261435
Se       4.72973512       1.41267568       8.19214108      -0.00151078       0.00214255      -0.00261654
