9
Lattice="5.333673893276274 -6.999094696048325e-08 3.0793981348446535 1.7778912613854039 5.028635846293516 3.0793980835504575 1.616048267957433e-08 -5.139510744938605e-08 6.158796241698518" Properties=species:S:1:pos:R:3:forces:R:3 energy=-39.41154861450195 free_energy=-39.41154861450195 stress="-9.442078589927405e-05 -5.338471331661765e-10 1.3481646021773486e-08 -5.338471331661765e-10 -9.441909060114995e-05 -3.422221794835423e-08 1.3481646021773486e-08 -3.422221794835423e-08 -9.442283771932125e-05" pbc="T T T"
Co       1.77789190       1.25716044       3.07939756       0.00000651       0.00001476      -0.00000464
Co       5.33367354       3.77147676       9.23819288      -0.00000453      -0.00000188      -0.00001606
Rh      -0.00000001       0.00000013       0.00000013       0.00000168      -0.00000362       0.00000045
S        1.87833843       1.32818558       6.15879626       0.00064218       0.00045300       0.00000156
S        5.23322715       3.70044953       6.15879702      -0.00063717      -0.00045729       0.00000698
S        4.39450456       1.32818522       4.70608670      -0.00032467       0.00045288       0.00055850
S        2.71706046       3.70044983       7.61150633       0.00032327      -0.00045955      -0.00054908
S        2.71706026       3.70044952       4.70608653       0.00031698      -0.00045776       0.00055230
S        4.39450443       1.32818590       7.61150650      -0.00032377       0.00045925      -0.00054991
