9
Lattice="4.481585034324884 -3.4213057961152106e-08 2.5874442794993757 1.4938616470685389 4.225278778424805 2.587444277392105 1.0097468660718023e-08 4.559130559148551e-09 5.1748885415094215" Properties=species:S:1:pos:R:3:forces:R:3 energy=-44.12069320678711 free_energy=-44.12069320678711 stress="0.0001600021932972595 7.1217939989765e-08 1.830243157030509e-08 7.1217939989765e-08 0.00016048156248871237 -1.0222972690598908e-08 1.830243157030509e-08 -1.0222972690598908e-08 0.00016033658175729215" pbc="T T T"
Co       1.49386590       1.05631496       2.58744404       0.00006202      -0.00007178      -0.00000181
Co       4.48158560       3.16895919       7.76233335       0.00000926      -0.00000132       0.00000729
Rh      -0.00000009       0.00000013       0.00000006       0.00000132      -0.00000458      -0.00000140
O        1.54782926       1.09448054       5.17488867      -0.00209659      -0.00148112       0.00000038
O        4.42761563       3.13080030       5.17488821       0.00207067       0.00152153      -0.00000462
O        3.70766870       1.09448071       3.92790308       0.00102270      -0.00148182      -0.00182831
O        2.26777642       3.13079927       6.42187216      -0.00104749       0.00150220       0.00180458
O        2.26777679       3.13079919       3.92790469      -0.00104436       0.00150172      -0.00180618
O        3.70766857       1.09448070       6.42187397       0.00102243      -0.00148480       0.00183015
