9
Lattice="5.256911451108511 -2.2951872206239792e-08 3.035079311846958 1.7523037917296163 4.956263575929325 3.035079318198905 -3.8553186220008895e-08 -1.9481706608201328e-08 6.070158690470042" Properties=species:S:1:pos:R:3:forces:R:3 energy=-40.789127349853516 free_energy=-40.789127349853516 stress="-0.0002649875823408365 1.7911204963638738e-08 6.356874138191415e-09 1.7911204963638738e-08 -0.0002650073729455471 1.552596384790661e-09 6.356874138191415e-09 1.552596384790661e-09 -0.00026505772257223725" pbc="T T T"
Co       1.75230319       1.23906552       3.03507912      -0.00000852      -0.00000427      -0.00000328
Co       5.25691127       3.71719712       9.10523889      -0.00000262      -0.00000631       0.00001025
Ru      -0.00000130      -0.00000030      -0.00000092      -0.00000741      -0.00000273      -0.00000508
S        1.87447106       1.32545161       6.07015876      -0.00726199      -0.00513256       0.00000389
S        5.13474470       3.63081244       6.07015809       0.00726664       0.00513554      -0.00000537
S        4.31967641       1.32545132       4.65841889       0.00363716      -0.00513104      -0.00628835
S        2.68953930       3.63081271       7.48189866      -0.00363129       0.00513422       0.00628871
S        2.68953984       3.63081290       4.65841914      -0.00362563       0.00514057      -0.00628793
S        4.31967632       1.32545086       7.48189860       0.00363365      -0.00513333       0.00628775
