9
Lattice="5.775387734855203 -3.37277572408515e-08 3.3344217012270283 1.9251291880676988 5.445087667790756 3.3344217446758573 -9.040306874457064e-08 -1.0710850454927054e-08 6.668843559036666" Properties=species:S:1:pos:R:3:forces:R:3 energy=-37.71095657348633 free_energy=-37.71095657348633 stress="-0.00021422684949357063 -1.7843420963004064e-08 1.698781737502486e-08 -1.7843420963004064e-08 -0.00021422826102934778 4.922576124499756e-08 1.698781737502486e-08 4.922576124499756e-08 -0.00021419963741209358" pbc="T T T"
Co       1.92512905       1.36127219       3.33442055      -0.00000164       0.00000326      -0.00001130
Co       5.77538782       4.08381614      10.00326711       0.00000043       0.00000334       0.00001821
Ru      -0.00000029      -0.00000003      -0.00000024       0.00000145       0.00000091      -0.00000006
Se       1.99214922       1.40866217       6.66884365      -0.00636768      -0.00450453       0.00000258
Se       5.70836793       4.03642503       6.66884230       0.00636916       0.00449927      -0.00001015
Se       4.77931323       1.40866265       5.05967359       0.00318902      -0.00450260      -0.00551731
Se       2.92120366       4.03642471       8.27801366      -0.00318995       0.00450072       0.00551796
Se       2.92120406       4.03642609       5.05967401      -0.00317967       0.00450708      -0.00551417
Se       4.77931265       1.40866156       8.27801335       0.00317894      -0.00450744       0.00551423
