9
Lattice="4.669124810944667 2.4986813437421562e-08 2.6957206496521096 1.556374968455026 4.402093381709722 2.695720635941678 1.0692847467048601e-08 -9.230803392502063e-09 5.391441280783697" Properties=species:S:1:pos:R:3:forces:R:3 energy=-44.07692337036133 free_energy=-44.07692337036133 stress="8.448020707874093e-06 -2.0964058933259366e-07 7.026076787042257e-08 -2.0964058933259366e-07 8.267386874649674e-06 2.9491554087712757e-08 7.026076787042257e-08 2.9491554087712757e-08 8.339376108779106e-06" pbc="T T T"
Co       1.55637179       1.10052594       2.69572196      -0.00003568       0.00003142       0.00001527
Co       4.66913020       3.30156843       8.08715924       0.00006378      -0.00001853      -0.00003330
Sb      -0.00000007       0.00000026       0.00000000      -0.00000160      -0.00001028       0.00000547
O        1.59376416       1.12696392       5.39144139      -0.00028253      -0.00016993      -0.00000387
O        4.63173518       3.27512936       5.39144283       0.00028205       0.00017381       0.00001513
O        3.87224184       1.12696225       4.07596308       0.00014156      -0.00020325      -0.00023043
O        2.35325679       3.27513082       6.70691959      -0.00015312       0.00019497       0.00023162
O        2.35325566       3.27512990       4.07596325      -0.00016785       0.00019026      -0.00022948
O        3.87224351       1.12696278       6.70691943       0.00015283      -0.00018859       0.00022948
