9
Lattice="5.808426541995232 -2.8141078853017494e-07 3.3534968606559166 1.936141909358906 5.476237476839334 3.3534968710300057 -1.1596133508706777e-07 -6.929143498135498e-08 6.706993922162792" Properties=species:S:1:pos:R:3:forces:R:3 energy=-32.220855712890625 free_energy=-32.220855712890625 stress="-4.9750709877116606e-05 -7.776798582881383e-08 1.1307512259861596e-08 -7.776798582881383e-08 -4.97340333822649e-05 1.4266229975135047e-08 1.1307512259861596e-08 1.4266229975135047e-08 -4.976778291165829e-05" pbc="T T T"
Co       1.93613154       1.36906498       3.35350184      -0.00006957       0.00003147       0.00003000
Co       5.80843002       4.10718344      10.06048995       0.00003112       0.00003355      -0.00000852
Sb       0.00000013      -0.00000054       0.00000042       0.00000354      -0.00000372      -0.00000345
Se       2.31535339       1.63720182       6.70699105      -0.00362328      -0.00256588      -0.00001786
Se       5.42921725       3.83903213       6.70699418       0.00364003       0.00253688       0.00000388
Se       4.65075248       1.63719909       5.35865487       0.00182778      -0.00257976      -0.00311771
Se       3.09381795       3.83903364       8.05533410      -0.00182444       0.00256971       0.00313590
Se       3.09381646       3.83903369       5.35865278      -0.00182977       0.00255591      -0.00313699
Se       4.65075413       1.63720023       8.05533142       0.00184460      -0.00257812       0.00311475
