9
Lattice="6.412918790471717 2.978896785078039e-08 3.7025003479570504 2.1376396443553296 6.04615785540102 3.7025003142754045 2.7487062408580172e-08 -2.1815140063032925e-08 7.405000648305087" Properties=species:S:1:pos:R:3:forces:R:3 energy=-28.6319522857666 free_energy=-28.6319522857666 stress="-6.194194429554045e-05 -4.738442971330414e-09 7.477204633232759e-09 -4.738442971330414e-09 -6.194687739480287e-05 -8.31504376463954e-09 7.477204633232759e-09 -8.31504376463954e-09 -6.195103924255818e-05" pbc="T T T"
Co       2.13763968       1.51153979       3.70249994       0.00000054       0.00000204      -0.00000124
Co       6.41291889       4.53461824      11.10750139      -0.00000009      -0.00000017       0.00000092
Sb       0.00000001       0.00000012       0.00000001       0.00000045      -0.00000178      -0.00000030
Te       2.37465394       1.67913396       7.40500050      -0.00036910      -0.00026028       0.00000089
Te       6.17590465       4.36702375       7.40500040       0.00036821       0.00026031      -0.00000040
Te       5.22559189       1.67913392       5.75901074       0.00018415      -0.00026041      -0.00031944
Te       3.32496640       4.36702369       9.05099074      -0.00018375       0.00025964       0.00031900
Te       3.32496666       4.36702408       5.75901094      -0.00018441       0.00026096      -0.00031889
Te       5.22559169       1.67913390       9.05099056       0.00018401      -0.00026033       0.00031950
