9
Lattice="5.6039001002070306 -8.306505680805323e-08 3.235413084572386 1.8679665916161754 5.283407744508454 3.235413136773562 2.260173651410212e-08 7.99149416146844e-08 6.470826129997376" Properties=species:S:1:pos:R:3:forces:R:3 energy=-32.94312286376953 free_energy=-32.94312286376953 stress="-3.6263110814616084e-05 5.6668792325353934e-08 -7.259149015226285e-08 5.6668792325353934e-08 -3.624241435318254e-05 -6.96306940994873e-08 -7.259149015226285e-08 -6.96306940994873e-08 -3.6205117794452235e-05" pbc="T T T"
Co       1.86796437       1.32085220       3.23541421      -0.00002269       0.00000089       0.00001485
Co       5.60390150       3.96255606       9.70623613       0.00001485       0.00000083      -0.00003072
Sb      -0.00000003      -0.00000000      -0.00000011      -0.00000102      -0.00000074      -0.00000288
S        2.00412348       1.41713058       6.47082615      -0.00091583      -0.00063804      -0.00000376
S        5.46774334       3.86627700       6.47082840       0.00091782       0.00063664       0.00002109
S        4.60183739       1.41712818       4.97103606       0.00045229      -0.00065660      -0.00078040
S        2.87002865       3.86627886       7.97061649      -0.00045484       0.00065404       0.00078404
S        2.87002789       3.86627800       4.97103569      -0.00046654       0.00064349      -0.00078431
S        4.60184020       1.41713015       7.97061632       0.00047550      -0.00064018       0.00078228
