9
Lattice="4.600496187307699 -1.9634917066236197e-08 2.65609752707673 1.5334987146986965 4.337389387889175 2.65609751996126 -1.0169695348102364e-08 -1.5905685171607478e-08 5.312195071767916" Properties=species:S:1:pos:R:3:forces:R:3 energy=-56.59477996826172 free_energy=-56.59477996826172 stress="0.00011347009422024712 7.678755054030262e-08 7.335892604487526e-08 7.678755054030262e-08 0.00011330576671753079 7.000214630181745e-09 7.335892604487526e-08 7.000214630181745e-09 0.00011352982983225957" pbc="T T T"
Co       1.53349963       1.08434933       2.65609747       0.00001287       0.00002021       0.00000045
Co       4.60049546       3.25304038       7.96829106      -0.00001101      -0.00001964      -0.00002077
Ta      -0.00000002      -0.00000002      -0.00000019      -0.00000719      -0.00000144       0.00000205
O        1.58566694       1.12123657       5.31219514      -0.00194150      -0.00136340       0.00000117
O        4.54832765       3.21615263       5.31219602       0.00194758       0.00136906       0.00000805
O        3.80766209       1.12123619       4.02932530       0.00096634      -0.00136518      -0.00168198
O        2.32633316       3.21615279       6.59506500      -0.00096512       0.00136119       0.00168639
O        2.32633236       3.21615269       4.02932547      -0.00097036       0.00136274      -0.00168288
O        3.80766230       1.12123679       6.59506511       0.00096834      -0.00136310       0.00168759
