9
Lattice="5.818150323378345 8.73618787742225e-08 3.359110606106705 1.9393835096341943 5.485404587101392 3.359110630108536 3.46876295824265e-08 5.39239843174132e-08 6.71822115213273" Properties=species:S:1:pos:R:3:forces:R:3 energy=-41.152862548828125 free_energy=-41.152862548828125 stress="-5.7053806813200936e-05 1.86352533404488e-08 3.015280114482266e-08 1.86352533404488e-08 -5.709421748179011e-05 -8.375859117393247e-09 3.015280114482266e-08 -8.375859117393247e-09 -5.712606434826739e-05" pbc="T T T"
Co       1.93938336       1.37135130       3.35911044       0.00000214       0.00000171      -0.00000068
Co       5.81815021       4.11405359      10.07733351      -0.00000316       0.00000074       0.00001527
Ta      -0.00000029      -0.00000035       0.00000002       0.00000343       0.00000638       0.00000510
Se       2.05156645       1.45067632       6.71822110      -0.00073453      -0.00052211       0.00000079
Se       5.70596800       4.03472851       6.71822032       0.00072913       0.00051631      -0.00000811
Se       4.79236707       1.45067687       5.13581854       0.00036672      -0.00051516      -0.00063678
Se       2.96516595       4.03472849       8.30062352      -0.00036564       0.00051270       0.00062948
Se       2.96516709       4.03472813       5.13581863      -0.00036151       0.00051786      -0.00063671
Se       4.79236763       1.45067606       8.30062349       0.00036373      -0.00051846       0.00063159
