9
Lattice="5.4425824177057835 7.289218985088482e-09 3.142276333815987 1.814194166823202 5.13131579747923 3.142276297935533 5.624859286094497e-08 -4.170665978409833e-09 6.284552570206558" Properties=species:S:1:pos:R:3:forces:R:3 energy=-45.699737548828125 free_energy=-45.699737548828125 stress="-7.714630919508636e-05 3.1305297909511864e-08 2.3782418256956817e-09 3.1305297909511864e-08 -7.71939376136288e-05 2.6316332224496364e-08 2.3782418256956817e-09 2.6316332224496364e-08 -7.714606181252748e-05" pbc="T T T"
Co       1.81419416       1.28282905       3.14227634      -0.00000014       0.00000033      -0.00000028
Co       5.44258200       3.84848722       9.42682951      -0.00000590       0.00000616       0.00000718
Ta       0.00000001       0.00000017      -0.00000000      -0.00000229      -0.00000054       0.00000233
S        1.94097488       1.37247600       6.28455263      -0.00126779      -0.00089893      -0.00000017
S        5.31580184       3.75883957       6.28455228       0.00127116       0.00089908      -0.00000212
S        4.47209517       1.37247626       4.82320963       0.00063661      -0.00089942      -0.00110012
S        2.78468150       3.75883955       7.74589546      -0.00063311       0.00089423       0.00109586
S        2.78468188       3.75883925       4.82320946      -0.00063266       0.00089633      -0.00109968
S        4.47209514       1.37247617       7.74589548       0.00063421      -0.00089723       0.00109728
