9
Lattice="4.2285636914243865 -9.207379732798541e-08 2.441362213150533 1.4095211695792529 3.9867277324239185 2.4413621682688222 5.880640632845283e-08 -1.3386202796278763e-08 4.88272432444537" Properties=species:S:1:pos:R:3:forces:R:3 energy=-58.13845443725586 free_energy=-58.13845443725586 stress="4.355376859166427e-06 2.4882390903258056e-07 -1.7652195083428524e-07 2.4882390903258056e-07 5.123107257531956e-06 1.9703507803114917e-07 -1.7652195083428524e-07 1.9703507803114917e-07 5.116943611938041e-06" pbc="T T T"
Cr       1.40952493       0.99668531       2.44136155       0.00005163       0.00005171      -0.00001057
Cr       4.22856361       2.99004999       7.32408572       0.00000378       0.00007024      -0.00001416
As      -0.00000015      -0.00000005      -0.00000002      -0.00000012      -0.00000236       0.00000033
N        1.48728593       1.05166897       4.88272419       0.00023055       0.00013876       0.00000105
N        4.15079990       2.93505678       4.88272425      -0.00020194      -0.00016141       0.00000234
N        3.48491923       1.05166756       3.72939030      -0.00013512       0.00011909       0.00019628
N        2.15316475       2.93505675       6.03606056       0.00010711      -0.00017434      -0.00016177
N        2.15316299       2.93505682       3.72938899       0.00009131      -0.00017500       0.00017804
N        3.48491867       1.05166832       6.03605916      -0.00014791       0.00013357      -0.00019133
