9
Lattice="5.577454673484885 2.819535680162754e-08 3.220144842423614 1.8591515686579931 5.258474510179056 3.2201448697088177 -3.1413050987045734e-10 3.319528927386837e-08 6.4402896853913445" Properties=species:S:1:pos:R:3:forces:R:3 energy=-42.72462463378906 free_energy=-42.72462463378906 stress="6.747869338141754e-05 4.6949923948602645e-09 -3.905792667069363e-08 4.6949923948602645e-09 6.749780004611239e-05 -4.750527970998064e-09 -3.905792667069363e-08 -4.750527970998064e-09 6.743832636857405e-05" pbc="T T T"
Cr       1.85915240       1.31461989       3.22014526       0.00000564       0.00000791       0.00000315
Cr       5.57745478       3.94385575       9.66043451       0.00000060       0.00000043      -0.00000033
As       0.00000004      -0.00000007      -0.00000018       0.00000001       0.00000311       0.00000215
S        1.89736991       1.34164331       6.44028953      -0.00041974      -0.00029439      -0.00000173
S        5.53923654       3.91683121       6.44028980       0.00042212       0.00029427       0.00000104
S        4.62876912       1.34164295       4.86331536       0.00020558      -0.00029922      -0.00036538
S        2.80783624       3.91683125       8.01726405      -0.00021076       0.00029224       0.00036359
S        2.80783629       3.91683098       4.86331524      -0.00021040       0.00029057      -0.00036675
S        4.62876952       1.34164292       8.01726402       0.00020677      -0.00029516       0.00036442
