9
Lattice="5.577505684284514 8.569093682728779e-08 3.220174345416097 1.859168631500979 5.258522759480447 3.220174363979113 6.010625403136589e-08 6.523648200570414e-08 6.440348586725176" Properties=species:S:1:pos:R:3:forces:R:3 energy=-42.72462463378906 free_energy=-42.72462463378906 stress="7.416465814458206e-05 5.990515461462564e-08 -2.445731839273435e-09 5.990515461462564e-08 7.413898129016161e-05 2.043044133870353e-08 -2.445731839273435e-09 2.043044133870353e-08 7.415709842462093e-05" pbc="T T T"
Cr       1.85916939       1.31463041       3.22017491       0.00000670       0.00000021       0.00000589
Cr       5.57750649       3.94389229       9.66052266       0.00000556       0.00000056      -0.00000205
As      -0.00000005       0.00000018       0.00000002       0.00000203      -0.00000004       0.00000348
S        1.89737284       1.34164509       6.44034810      -0.00031734      -0.00022411      -0.00000426
S        5.53930154       3.91687822       6.44034868       0.00031459       0.00022632       0.00000134
S        4.62881886       1.34164495       4.86334715       0.00015301      -0.00022423      -0.00027311
S        2.80785471       3.91687773       8.01735016      -0.00015885       0.00021964       0.00027066
S        2.80785452       3.91687778       4.86334713      -0.00016075       0.00022036      -0.00027126
S        4.62881941       1.34164501       8.01735024       0.00015521      -0.00021905       0.00026935
