9
Lattice="5.582926757340095 8.840155047434256e-08 3.2233038339288163 1.860975707189195 5.263633355780025 3.2233037680008496 -2.807158902547543e-07 -2.7924081726449134e-07 6.446608154071633" Properties=species:S:1:pos:R:3:forces:R:3 energy=-39.974388122558594 free_energy=-39.974388122558594 stress="-0.00010161530371988192 1.0811652018105633e-08 2.0201358363891586e-09 1.0811652018105633e-08 -0.00010155521158594638 -2.3091548229103864e-08 2.0201358363891586e-09 -2.3091548229103864e-08 -0.00010166526772081852" pbc="T T T"
Cr       1.86099226       1.31592697       3.22329489       0.00012218       0.00013766      -0.00006411
Cr       5.58292195       3.94772446       9.66988968      -0.00003422      -0.00000401      -0.00016599
As       0.00000022      -0.00000011       0.00000039      -0.00000500      -0.00000496       0.00000509
Se       2.09736987       1.48306357       6.44661111      -0.00006035      -0.00005272       0.00002682
Se       5.34653230       3.78056675       6.44661799       0.00006601       0.00002618       0.00007264
Se       4.53423845       1.48306043       5.03968136      -0.00000283      -0.00006397      -0.00004092
Se       2.90966289       3.78056021       7.85354493      -0.00001277      -0.00001921       0.00011721
Se       2.90965568       3.78056227       5.03967818      -0.00005989      -0.00000599      -0.00006074
Se       4.53423521       1.48306808       7.85354445      -0.00001316      -0.00001292       0.00011012
