9
Lattice="4.415653944788018 -8.260272340293573e-08 2.5493787528073018 1.4718845532636071 4.1631182323864016 2.5493787824607756 -2.0846396026530673e-07 -1.110883310803061e-07 5.098757866684732" Properties=species:S:1:pos:R:3:forces:R:3 energy=-54.462921142578125 free_energy=-54.462921142578125 stress="4.404769788379781e-05 5.221679444389338e-08 7.148106817567168e-08 5.221679444389338e-08 4.399630779516883e-05 9.925167887558928e-08 7.148106817567168e-08 9.925167887558928e-08 4.362819163361564e-05" pbc="T T T"
Cr       1.47188435       1.04078050       2.54937901       0.00000332       0.00001073       0.00000002
Cr       4.41565387       3.12233733       7.64813777      -0.00000333      -0.00001281       0.00001485
As      -0.00000013      -0.00000034      -0.00000017      -0.00000140       0.00000976      -0.00000450
O        1.47021538       1.03959909       5.09875804      -0.00380230      -0.00268459      -0.00000384
O        4.41732258       3.12351956       5.09875760       0.00379717       0.00268435      -0.00000281
O        3.68054641       1.03959935       3.82262211       0.00190187      -0.00267386      -0.00328767
O        2.20699125       3.12351852       6.37489249      -0.00190592       0.00267756       0.00328267
O        2.20699241       3.12351895       3.82262143      -0.00189459       0.00266981      -0.00328469
O        3.68054659       1.03959915       6.37489272       0.00190479      -0.00268066       0.00328517
