9
Lattice="5.583664509320354 -7.641278395632049e-08 3.2237299273688085 1.8612215465235666 5.26432854521444 3.223729727387098 1.9796678653094648e-08 -2.3092818987551812e-07 6.447459820448751" Properties=species:S:1:pos:R:3:forces:R:3 energy=-39.97438049316406 free_energy=-39.97438049316406 stress="-5.745087764807977e-05 4.320534685575694e-08 3.403873094498522e-08 4.320534685575694e-08 -5.740326741943136e-05 -1.0794027893723523e-08 3.403873094498522e-08 -1.0794027893723523e-08 -5.74642326682806e-05" pbc="T T T"
Cr       1.86121641       1.31608276       3.22372252      -0.00003943       0.00000610      -0.00005563
Cr       5.58367129       3.94824291       9.67121177       0.00004916      -0.00002471       0.00016885
As      -0.00000003       0.00000000      -0.00000070      -0.00000163       0.00000002       0.00000349
Se       2.09696291       1.48278199       6.44746437       0.00372168       0.00266379       0.00002995
Se       5.34792048       3.78154961       6.44744828      -0.00373372      -0.00264813      -0.00007712
Se       4.53518527       1.48278232       5.03975443      -0.00183792       0.00267091       0.00322679
Se       2.90969859       3.78154887       7.85516287       0.00182974      -0.00265658      -0.00326025
Se       2.90970634       3.78155061       5.03975440       0.00188404      -0.00262956       0.00323009
Se       4.53518300       1.48277367       7.85516013      -0.00187187       0.00261827      -0.00326598
