9
Lattice="6.536936140246278 8.840361404417753e-09 3.774101880583991 2.1789787619782706 6.163082321133574 3.7741018109069464 6.371773039539065e-08 -4.028135794716231e-08 7.548203650805665" Properties=species:S:1:pos:R:3:forces:R:3 energy=-35.94227981567383 free_energy=-35.94227981567383 stress="-6.446157840400701e-06 -1.7221134740452726e-08 1.7285581854764587e-09 -1.7221134740452726e-08 -6.427623247873271e-06 -1.4205873810624325e-08 1.7285581854764587e-09 -1.4205873810624325e-08 -6.4308328546758275e-06" pbc="T T T"
Cr       2.17897851       1.54077073       3.77410176      -0.00000046       0.00000037      -0.00000090
Cr       6.53693622       4.62231146      11.32230545       0.00000026      -0.00000038       0.00000098
Bi       0.00000033       0.00000033      -0.00000012      -0.00000094      -0.00000252      -0.00000082
Te       2.44045975       1.72566591       7.54820359      -0.00769480      -0.00544021      -0.00000003
Te       6.27545455       4.43741644       7.54820362       0.00769639       0.00544184      -0.00000087
Te       5.31670650       1.72566567       5.88760232       0.00384881      -0.00544120      -0.00666334
Te       3.39920890       4.43741628       9.20880497      -0.00384926       0.00544177       0.00666606
Te       3.39920883       4.43741625       5.88760238      -0.00384843       0.00544265      -0.00666644
Te       5.31670633       1.72566611       9.20880538       0.00384842      -0.00544231       0.00666527
