9
Lattice="3.9754080424929694 6.221367654210922e-08 2.2952027786059865 1.3251361205256718 3.748050423178475 2.2952026959771783 3.790543541405475e-07 1.6683276839013316e-07 4.590404900670555" Properties=species:S:1:pos:R:3:forces:R:3 energy=-57.68326187133789 free_energy=-57.68326187133789 stress="0.000538092979695648 1.9916942051168007e-07 6.626216730865053e-08 1.9916942051168007e-07 0.0005374317988753319 -5.859749663272851e-08 6.626216730865053e-08 -5.859749663272851e-08 0.0005388078279793262" pbc="T T T"
Cr       1.32513783       0.93701447       2.29520288       0.00001705       0.00001844       0.00000152
Cr       3.97540693       2.81103642       6.88560686      -0.00001262      -0.00001454      -0.00000512
B        0.00000031       0.00000016       0.00000033      -0.00000273      -0.00000689      -0.00000074
O        1.27912933       0.90448130       4.59040460      -0.00111258      -0.00078154      -0.00001201
O        4.02141497       2.84357012       4.59040495       0.00111365       0.00079346       0.00000354
O        3.33584406       0.90448133       3.40296119       0.00055808      -0.00078785      -0.00096726
O        1.96470104       2.84356877       5.77785013      -0.00054908       0.00077832       0.00098193
O        1.96470082       2.84356899       3.40296121      -0.00056249       0.00078309      -0.00097477
O        3.33584321       0.90448095       5.77784964       0.00055039      -0.00078189       0.00097191
