9
Lattice="5.729166804883042 5.349981334493891e-08 3.3077359343521255 1.9097222838438324 5.401510295994964 3.3077359947844105 -1.0397153203468689e-08 6.666228290807546e-08 6.61547188671263" Properties=species:S:1:pos:R:3:forces:R:3 energy=-41.1115608215332 free_energy=-41.1115608215332 stress="0.00028912792913615704 -2.1646431314081838e-09 -1.3472208237885752e-08 -2.1646431314081838e-09 0.000289154180791229 3.082744726157216e-08 -1.3472208237885752e-08 3.082744726157216e-08 0.00028919908800162375" pbc="T T T"
Cr       1.90972165       1.35037761       3.30773605      -0.00000469      -0.00000031       0.00000147
Cr       5.72916696       4.05113299       9.92320863      -0.00000017       0.00000198       0.00000413
Bi      -0.00000009       0.00000005       0.00000004      -0.00000158       0.00000146      -0.00000136
S        2.01079574       1.42184712       6.61547194      -0.00104555      -0.00074100      -0.00000067
S        5.62809355       3.97966308       6.61547149       0.00104630       0.00073950      -0.00000096
S        4.72376913       1.42184755       5.04913606       0.00052485      -0.00074084      -0.00090739
S        2.91511965       3.97966305       8.18180761      -0.00052397       0.00074115       0.00090605
S        2.91512028       3.97966335       5.04913585      -0.00052127       0.00073905      -0.00090542
S        4.72376948       1.42184686       8.18180759       0.00052601      -0.00074084       0.00090411
