9
Lattice="5.514062366968534 -5.9236862522563165e-08 3.183545353154719 1.8380207982800605 5.198707754562313 3.1835452403296 -2.6089065905264514e-08 -1.5662969953439924e-07 6.367090751497001" Properties=species:S:1:pos:R:3:forces:R:3 energy=-42.326297760009766 free_energy=-42.326297760009766 stress="-3.1037834560265765e-05 -5.407925218747778e-09 1.2862533260715736e-08 -5.407925218747778e-09 -3.10030191030819e-05 1.6249909196019985e-09 1.2862533260715736e-08 1.6249909196019985e-09 -3.0986710044089705e-05" pbc="T T T"
Cr       1.83802061       1.29967697       3.18354597      -0.00000142       0.00000005       0.00000466
Cr       5.51406237       3.89902991       9.55063517       0.00000102      -0.00000483      -0.00000467
B        0.00000001      -0.00000005       0.00000006       0.00000031      -0.00000103       0.00000131
Se       1.74565851       1.23436727       6.36709070       0.00090294       0.00064074      -0.00000201
Se       5.60642437       3.96434068       6.36709089      -0.00090355      -0.00063781       0.00000165
Se       4.64123302       1.23436721       4.69533024      -0.00045269       0.00063831       0.00077979
Se       2.71085017       3.96434034       8.03885120       0.00045126      -0.00063603      -0.00078018
Se       2.71085004       3.96434024       4.69532995       0.00044882      -0.00063887       0.00078046
Se       4.64123349       1.23436755       8.03885126      -0.00044671       0.00063959      -0.00078116
