9
Lattice="5.310663747424827 5.735260848919473e-08 3.0661133156580176 1.7702212716662613 5.006941918205182 3.0661133703005747 -8.208944883088207e-08 8.877194625113546e-09 6.132226773499136" Properties=species:S:1:pos:R:3:forces:R:3 energy=-45.64474868774414 free_energy=-45.64474868774414 stress="-4.37646776845213e-05 -2.9016476332799357e-08 1.2743616828458926e-08 -2.9016476332799357e-08 -4.378780067781918e-05 2.3386991898632914e-08 1.2743616828458926e-08 2.3386991898632914e-08 -4.375578282633796e-05" pbc="T T T"
Cr       1.77022179       1.25173499       3.06611421       0.00000460      -0.00000126       0.00000483
Cr       5.31066354       3.75520632       9.19834158      -0.00000114      -0.00000112       0.00000940
B       -0.00000004       0.00000019      -0.00000022       0.00000064       0.00000083      -0.00000121
S        1.62485036       1.14894260       6.13222662       0.00002915       0.00002089      -0.00000026
S        5.45603510       3.85799936       6.13222617      -0.00003421      -0.00002334      -0.00000195
S        4.49823808       1.14894372       4.47327442      -0.00001454       0.00002265       0.00002050
S        2.58264642       3.85799948       7.79117822       0.00001657      -0.00002003      -0.00002891
S        2.58264636       3.85799916       4.47327469       0.00001580      -0.00001967       0.00002480
S        4.49823817       1.14894227       7.79117835      -0.00001708       0.00002101      -0.00002730
