9
Lattice="5.879937767988363 4.163809637033533e-08 3.394783673331041 1.9599792625001797 5.5436588111398875 3.3947837300603725 -4.94238281710385e-08 3.4531052488612865e-08 6.78956743226668" Properties=species:S:1:pos:R:3:forces:R:3 energy=-38.60676956176758 free_energy=-38.60676956176758 stress="-0.00014332143473438919 1.4590015418036728e-08 -3.811798432451496e-09 1.4590015418036728e-08 -0.00014336021558847278 -4.3240147573619936e-10 -3.811798432451496e-09 -4.3240147573619936e-10 -0.00014338632172439247" pbc="T T T"
Cr       1.95997800       1.38591468       3.39478450      -0.00000621      -0.00000183       0.00000495
Cr       5.87993751       4.15774168      10.18434934      -0.00000037      -0.00001453      -0.00001194
Bi       0.00000015      -0.00000012      -0.00000014      -0.00000053       0.00000096       0.00000313
Se       2.28311154       1.61440462       6.78956709      -0.00285001      -0.00200928      -0.00000307
Se       5.55680508       3.92925480       6.78956836       0.00284827       0.00201266       0.00000617
Se       4.73838222       1.61440485       5.37201648       0.00142644      -0.00200993      -0.00246665
Se       3.10153583       3.92925565       8.20711812      -0.00141988       0.00201608       0.00246429
Se       3.10153473       3.92925421       5.37201669      -0.00142680       0.00201137      -0.00246495
Se       4.73838284       1.61440517       8.20711890       0.00142899      -0.00200524       0.00246800
