9
Lattice="5.99562253058851 6.55186521630661e-08 3.4615742608417217 1.9985408778874272 5.652727342241427 3.4615743083236072 -8.77179648221929e-08 -3.8728075043133945e-09 6.9231486736153895" Properties=species:S:1:pos:R:3:forces:R:3 energy=-38.795654296875 free_energy=-38.795654296875 stress="-6.960250902920961e-05 1.7852176625865468e-08 1.0362421143383926e-08 1.7852176625865468e-08 -6.95928611094132e-05 4.906730133313886e-09 1.0362421143383926e-08 4.906730133313886e-09 -6.961452891118824e-05" pbc="T T T"
Cr       1.99854145       1.41318146       3.46157425       0.00000474      -0.00000507       0.00000002
Cr       5.99562217       4.23954713      10.38472173      -0.00000229       0.00001004      -0.00000779
B       -0.00000016       0.00000040      -0.00000031       0.00000048      -0.00000184       0.00000133
Te       1.90998804       1.35056472       6.92314865       0.00310007       0.00218526      -0.00000045
Te       6.08417529       4.30216245       6.92314905      -0.00309838      -0.00218717       0.00000338
Te       5.04062841       1.35056456       5.11567224      -0.00155207       0.00218648       0.00268590
Te       2.95353512       4.30216196       8.73062538       0.00155124      -0.00218818      -0.00268105
Te       2.95353437       4.30216221       5.11567224       0.00154788      -0.00219010       0.00268327
Te       5.04062861       1.35056472       8.73062567      -0.00155184       0.00219060      -0.00268474
