9
Lattice="5.348105532827151 -1.702106386828999e-08 3.0877300894398796 1.7827018467564253 5.042242020649609 3.0877300573478386 2.8521313236299648e-08 -1.9136942680770246e-08 6.175460129479407" Properties=species:S:1:pos:R:3:forces:R:3 energy=-47.1885986328125 free_energy=-47.1885986328125 stress="1.64169669005787e-05 -3.906104328876836e-09 3.8155092418890035e-09 -3.906104328876836e-09 1.643832183617633e-05 -2.8676945262873232e-09 3.8155092418890035e-09 -2.8676945262873232e-09 1.6429197785328142e-05" pbc="T T T"
Cr       1.78270150       1.26056035       3.08773045      -0.00000308      -0.00000092       0.00000405
Cr       5.34810570       3.78168243       9.26318996       0.00000156       0.00000670      -0.00000126
Co       0.00000014       0.00000003       0.00000005      -0.00000159      -0.00000128      -0.00000171
S        1.76381165       1.24720245       6.17546037       0.00076613       0.00053892       0.00000089
S        5.36699596       3.79503865       6.17546045      -0.00076145      -0.00053942       0.00000125
S        4.46619945       1.24720245       4.61523536      -0.00038549       0.00053662       0.00066248
S        2.66460751       3.79503931       7.73568435       0.00038147      -0.00053954      -0.00066420
S        2.66460766       3.79503915       4.61523544       0.00038198      -0.00054011       0.00066173
S        4.46620012       1.24720300       7.73568460      -0.00037919       0.00053892      -0.00066325
