9
Lattice="4.299193391635341 -6.352519276143647e-08 2.4821405903646747 1.433064442894883 4.053318157416008 2.482140522973087 2.8305041291911146e-08 -6.25228243006528e-08 4.964281131703564" Properties=species:S:1:pos:R:3:forces:R:3 energy=-52.30796432495117 free_energy=-52.30796432495117 stress="-9.616075112717226e-05 2.7893175769122536e-08 5.329052754632357e-09 2.7893175769122536e-08 -9.592324204277247e-05 4.3980898922768574e-09 5.329052754632357e-09 4.3980898922768574e-09 -9.606092498870566e-05" pbc="T T T"
Cr       1.43306564       1.01332854       2.48213952       0.00000965      -0.00000472      -0.00000861
Cr       4.29919246       3.03998960       7.44642258      -0.00000758       0.00001085       0.00000673
Co      -0.00000011       0.00000011      -0.00000019       0.00000380       0.00000329       0.00000282
O        1.45112733       1.02610076       4.96428131       0.00223488       0.00157058      -0.00000128
O        4.28113107       3.02721750       4.96428100      -0.00224334      -0.00157809       0.00000014
O        3.57363036       1.02610157       3.73885348      -0.00111130       0.00157779       0.00193399
O        2.15862750       3.02721625       6.18970900       0.00111383      -0.00157881      -0.00193447
O        2.15862806       3.02721644       3.73885302       0.00112012      -0.00157768       0.00193381
O        3.57362917       1.02610122       6.18970947      -0.00112060       0.00157744      -0.00193375
