9
Lattice="5.980080631548767 -8.796329352627308e-08 3.452601227119489 1.993360130653626 5.638074232302583 3.452601221802196 -5.078722678551732e-08 -4.242432439559046e-08 6.905202542205059" Properties=species:S:1:pos:R:3:forces:R:3 energy=-41.813392639160156 free_energy=-41.813392639160156 stress="-7.841306796763092e-05 -4.198347003381286e-09 -4.675939635490067e-09 -4.198347003381286e-09 -7.842783816158772e-05 -1.0164240116239398e-08 -4.675939635490067e-09 -1.0164240116239398e-08 -7.84264484536834e-05" pbc="T T T"
Cr       1.99336057       1.40951840       3.45260140       0.00000218      -0.00000040       0.00000131
Cr       5.98008080       4.22855552      10.35780304       0.00000081       0.00000000      -0.00000264
Co      -0.00000007       0.00000020      -0.00000027       0.00000019      -0.00000163       0.00000806
Te       1.98509406       1.40367361       6.90520251       0.00657074       0.00464728      -0.00000019
Te       5.98834681       4.23440068       6.90520284      -0.00657373      -0.00464647       0.00000060
Te       4.98753320       1.40367333       5.17174326      -0.00328564       0.00464592       0.00569009
Te       2.98590718       4.23440079       8.63866186       0.00328809      -0.00464924      -0.00569376
Te       2.98590687       4.23440060       5.17174344       0.00328552      -0.00464548       0.00569097
Te       4.98753344       1.40367329       8.63866195      -0.00328817       0.00464997      -0.00569418
