9
Lattice="5.1584707891198 5.2323233724115956e-08 2.9782446301566954 1.7194902780222778 4.863453133234563 2.9782446896500203 -4.4276852709735444e-08 4.155566636413374e-08 5.956489337003197" Properties=species:S:1:pos:R:3:forces:R:3 energy=-44.051170349121094 free_energy=-44.051170349121094 stress="-0.00012363636051304638 -1.149848039005974e-08 1.0044499276773422e-07 -1.149848039005974e-08 -0.00012368705938570201 2.7636863464408634e-08 1.0044499276773422e-07 2.7636863464408634e-08 -0.00012379285180941224" pbc="T T T"
Cr       1.71949030       1.21586395       2.97824543       0.00002223       0.00001731      -0.00000768
Cr       5.15847219       3.64759138       8.93472708       0.00003686       0.00002505      -0.00008288
C       -0.00006457      -0.00003036       0.00006152      -0.00201811      -0.00095932       0.00192188
S        1.61273493       1.14037546       5.95648769       0.00249636       0.00176299      -0.00001615
S        5.26528192       3.72311718       5.95649284      -0.00074744      -0.00052714       0.00003838
S        4.35212695       1.14033937       4.37487262      -0.00049824       0.00067008       0.00085598
S        2.52585580       3.72308426       7.53807207       0.00115228      -0.00159883      -0.00196505
S        2.52583399       3.72310541       4.37487838       0.00056773      -0.00085115       0.00103825
S        4.35211269       1.14036628       7.53807654      -0.00101233       0.00146109      -0.00178224
