9
Lattice="4.087850834393068 1.6782493899090448e-07 2.3601217383715336 1.3626170319300883 3.85406316458087 2.360121861510778 9.479108782757315e-08 2.178415908989866e-07 4.720243312560097" Properties=species:S:1:pos:R:3:forces:R:3 energy=-56.34602355957031 free_energy=-56.34602355957031 stress="-0.0011799127096310258 -3.462365683049029e-08 7.510876542937694e-08 -3.462365683049029e-08 -0.0011806987458840013 2.9662718503686847e-08 7.510876542937694e-08 2.9662718503686847e-08 -0.0011803089873865247" pbc="T T T"
Cr       1.36261637       0.96351647       2.36012121      -0.00000249       0.00000755      -0.00000825
Cr       4.08785151       2.89054642       7.08036499       0.00000251      -0.00000566      -0.00000247
C       -0.00000015       0.00000068      -0.00000065       0.00000239       0.00000397      -0.00000908
O        1.25669658       0.88861888       4.72024333       0.00212967       0.00150955       0.00000144
O        4.19377143       2.96544455       4.72024338      -0.00213301      -0.00151074       0.00000220
O        3.45950329       0.88861895       3.44845310      -0.00106364       0.00150859       0.00184965
O        1.99096537       2.96544455       5.99203431       0.00106478      -0.00150990      -0.00184548
O        1.99096514       2.96544456       3.44845320       0.00106502      -0.00151300       0.00185406
O        3.45950236       0.88861937       5.99203458      -0.00106466       0.00150895      -0.00184214
