9
Lattice="5.4279847592459625 -5.939351154773348e-08 3.1338483527414134 1.8093282002278723 5.117552989586328 3.133848347298232 -3.393605519014739e-08 -3.066294217734911e-08 6.2676967642617845" Properties=species:S:1:pos:R:3:forces:R:3 energy=-48.59825897216797 free_energy=-48.59825897216797 stress="-5.7719924370758235e-05 1.0406982831057121e-08 3.985540431017398e-08 1.0406982831057121e-08 -5.774838791694492e-05 -4.561015032322757e-08 3.985540431017398e-08 -4.561015032322757e-08 -5.770862480858341e-05" pbc="T T T"
Cr       1.80932839       1.27938847       3.13384751       0.00000147       0.00000054      -0.00000659
Cr       5.42798444       3.83816428       9.40154538      -0.00000179      -0.00000089       0.00000235
Fe       0.00000032       0.00000006      -0.00000058      -0.00000797      -0.00000115       0.00000588
S        1.78457312       1.26188381       6.26769699       0.00053382       0.00037593       0.00000220
S        5.45273944       3.85566918       6.26769626      -0.00052708      -0.00037104      -0.00000093
S        4.53569820       1.26188402       4.67933429      -0.00026444       0.00037557       0.00045764
S        2.70161482       3.85566869       7.85606010       0.00026780      -0.00038013      -0.00046015
S        2.70161495       3.85566937       4.67933442       0.00026369      -0.00037187       0.00045663
S        4.53569806       1.26188387       7.85605952      -0.00026545       0.00037315      -0.00045747
