9
Lattice="4.5125821405002275 -6.3117731027102095e-09 2.6053403868213563 1.5041940226500379 4.2545032409116645 2.6053404184011812 -5.864391089981189e-08 -2.7903392447721746e-09 5.2106808752169815" Properties=species:S:1:pos:R:3:forces:R:3 energy=-52.91946029663086 free_energy=-52.91946029663086 stress="0.0003896849520970136 -1.2293487827719218e-07 4.916858031833726e-08 -1.2293487827719218e-07 0.0003895422851201147 -3.463961562033546e-08 4.916858031833726e-08 -3.463961562033546e-08 0.00038971775211393833" pbc="T T T"
Cr       1.50419638       1.06362761       2.60534162       0.00002615       0.00001258       0.00001374
Cr       4.51258482       3.19087458       7.81602203       0.00002891      -0.00002579       0.00000678
Fe       0.00000012       0.00000003      -0.00000013      -0.00000796      -0.00000029      -0.00000152
O        1.45728629       1.03045882       5.21067995      -0.00071064      -0.00048104      -0.00000531
O        4.55948832       3.22404548       5.21068067       0.00069943       0.00049354      -0.00000001
O        3.78393751       1.03045846       3.86738727       0.00034408      -0.00049065      -0.00062062
O        2.23283673       3.22404511       6.55397342      -0.00036222       0.00049151       0.00060916
O        2.23283662       3.22404507       3.86738837      -0.00036591       0.00049381      -0.00061548
O        3.78393771       1.03045786       6.55397337       0.00034811      -0.00049388       0.00061382
