9
Lattice="5.68471111690692 1.2509212803696302e-07 3.2820693637073455 1.894903820791903 5.359597170228994 3.282069368525385 2.605900300323945e-08 2.4327418360365718e-08 6.564138682279215" Properties=species:S:1:pos:R:3:forces:R:3 energy=-45.82498550415039 free_energy=-45.82498550415039 stress="-5.968363620922901e-05 2.191440628962482e-08 -1.3819364319545002e-08 2.191440628962482e-08 -5.9684025472961366e-05 1.6489801524244285e-08 -1.3819364319545002e-08 1.6489801524244285e-08 -5.973059523967095e-05" pbc="T T T"
Cr       1.89490393       1.33989921       3.28206982      -0.00000060      -0.00000276       0.00000502
Cr       5.68471089       4.01969870       9.84620914       0.00000032       0.00000389       0.00000873
Fe      -0.00000004      -0.00000052      -0.00000037       0.00000290       0.00000810      -0.00000358
Se       1.86609818       1.31953045       6.56413833      -0.00096154      -0.00068150      -0.00000273
Se       5.71351691       4.04006681       6.56413821       0.00095847       0.00067705      -0.00000403
Se       4.75166223       1.31953040       4.89815729       0.00047877      -0.00067775      -0.00083187
Se       2.82795252       4.04006733       8.23011995      -0.00048114       0.00067930       0.00082928
Se       2.82795311       4.04006697       4.89815727      -0.00047693       0.00067596      -0.00083008
Se       4.75166220       1.31952991       8.23012010       0.00047950      -0.00068215       0.00082943
