9
Lattice="6.00167714309502 2.771919563383351e-08 3.465069997138893 2.0005590530090194 5.658435534435113 3.465070033205792 -2.999992138998615e-08 2.29595808726275e-08 6.9301400462390985" Properties=species:S:1:pos:R:3:forces:R:3 energy=-43.133026123046875 free_energy=-43.133026123046875 stress="-1.3746051081398036e-05 4.317208368576075e-09 9.638939424405635e-09 4.317208368576075e-09 -1.3760408364760224e-05 -2.4878275439732533e-08 9.638939424405635e-09 -2.4878275439732533e-08 -1.3771788871963508e-05" pbc="T T T"
Cr       2.00055804       1.41461013       3.46506924      -0.00000638       0.00000856      -0.00000364
Cr       6.00167721       4.24382688      10.39521010      -0.00000024       0.00000154       0.00000064
Fe       0.00000000       0.00000018      -0.00000016      -0.00000280       0.00000407       0.00000026
Te       1.96759222       1.39129750       6.93014052       0.00537481       0.00379921       0.00000133
Te       6.03464502       4.26713668       6.93014023      -0.00537205      -0.00380406      -0.00000016
Te       5.01788132       1.39129758       5.16905481      -0.00268595       0.00379977       0.00465496
Te       2.98435456       4.26713761       8.69122554       0.00268923      -0.00380550      -0.00465716
Te       2.98435508       4.26713817       5.16905469       0.00268857      -0.00380172       0.00465629
Te       5.01788119       1.39129759       8.69122536      -0.00268526       0.00379810      -0.00465256
