9
Lattice="5.768234919586596 2.5227528391122615e-09 3.330291940725376 1.9227449379806159 5.438344120587874 3.330292005839071 3.205150030123547e-08 1.0241151071517686e-07 6.660583825935943" Properties=species:S:1:pos:R:3:forces:R:3 energy=-40.15576171875 free_energy=-40.15576171875 stress="-0.00012310390593484044 6.931769047646696e-11 -1.3976839241536254e-08 6.931769047646696e-11 -0.00012307050928939134 7.945070379378194e-09 -1.3976839241536254e-08 7.945070379378194e-09 -0.0001230216003023088" pbc="T T T"
Cr       1.92274655       1.35958612       3.33029175       0.00001160       0.00000169      -0.00000041
Cr       5.76823490       4.07875821       9.99087716      -0.00000112      -0.00000002       0.00000765
Ge      -0.00000003      -0.00000014      -0.00000032      -0.00000000       0.00000269       0.00000543
Se       1.99277308       1.40910333       6.66058354      -0.00182438      -0.00128990       0.00000004
Se       5.69820676       4.02924106       6.66058300       0.00182077       0.00129080      -0.00000473
Se       4.77184766       1.40910362       5.05608392       0.00091095      -0.00129169      -0.00158526
Se       2.91913129       4.02924059       8.26508390      -0.00091211       0.00128511       0.00157809
Se       2.91913156       4.02924082       5.05608423      -0.00091182       0.00129087      -0.00158139
Se       4.77184780       1.40910325       8.26508386       0.00090645      -0.00128949       0.00158054
