9
Lattice="4.409691184064441 -6.772273217493964e-08 2.5459363178431995 1.4698969925906478 4.157496929678368 2.5459363263554584 -9.729647255348463e-08 -5.837363434788556e-08 5.091872804208814" Properties=species:S:1:pos:R:3:forces:R:3 energy=-49.61540985107422 free_energy=-49.61540985107422 stress="-0.00018448743503540754 4.951002097186574e-08 8.039251753189092e-08 4.951002097186574e-08 -0.00018466102483216673 1.7801228580083261e-07 8.039251753189092e-08 1.7801228580083261e-07 -0.0001845885708462447" pbc="T T T"
Cr       1.46989599       1.03937550       2.54593709      -0.00001087       0.00001477       0.00000776
Cr       4.40969068       3.11812228       7.63780836      -0.00000634      -0.00000538      -0.00000893
Ga      -0.00000023      -0.00000028      -0.00000007       0.00000560       0.00000758       0.00000459
O        1.52962441       1.08160810       5.09187280      -0.00526208      -0.00371915      -0.00000203
O        4.34996393       3.07588878       5.09187331       0.00525683       0.00370800       0.00000347
O        3.64487878       1.08160820       3.87062972       0.00263160      -0.00371724      -0.00455469
O        2.23470962       3.07588835       6.31311584      -0.00262249       0.00371253       0.00455797
O        2.23470895       3.07588852       3.87062983      -0.00263181       0.00371438      -0.00455296
O        3.64488004       1.08160768       6.31311489       0.00263906      -0.00371528       0.00454533
