9
Lattice="6.22335014660362 -2.0061841497861135e-08 3.5930529031332004 2.0744500564818815 5.86743083308309 3.5930528571845324 2.9746983801764697e-08 -3.524115259671084e-08 7.186105754743126" Properties=species:S:1:pos:R:3:forces:R:3 energy=-36.173179626464844 free_energy=-36.173179626464844 stress="2.7072778721048962e-06 5.239503275689117e-10 -1.3030229117916292e-09 5.239503275689117e-10 2.6989096113538835e-06 -9.278181778427097e-09 -1.3030229117916292e-09 -9.278181778427097e-09 2.703311338336789e-06" pbc="T T T"
Cr       2.07445015       1.46685723       3.59305274       0.00000032      -0.00000309      -0.00000073
Cr       6.22335045       4.40057309      10.77915777       0.00000225       0.00000009      -0.00000572
Ga       0.00000011      -0.00000013      -0.00000001      -0.00000003       0.00000068       0.00000030
Te       2.20214479       1.55715171       7.18610575      -0.00006459      -0.00004461       0.00000014
Te       6.09565524       4.31027937       7.18610625       0.00006133       0.00004513       0.00000213
Te       5.12227751       1.55715122       5.50016646       0.00003120      -0.00004616      -0.00005354
Te       3.17552257       4.31027945       8.87204540      -0.00003002       0.00004594       0.00005450
Te       3.17552244       4.31027948       5.50016637      -0.00003237       0.00004597      -0.00005326
Te       5.12227767       1.55715163       8.87204535       0.00003194      -0.00004386       0.00005610
