9
Lattice="5.649980458143204 7.167361643048743e-08 3.262017410919887 1.8833267355470176 5.326852421609873 3.262017673167266 -2.3206255915376421e-07 1.5709312841376983e-07 6.524035223783835" Properties=species:S:1:pos:R:3:forces:R:3 energy=-38.603736877441406 free_energy=-38.603736877441406 stress="0.00012510037049651146 6.175890376880488e-08 3.7881688896845844e-09 6.175890376880488e-08 0.00012504772166721523 -3.92220478317995e-08 3.7881688896845844e-09 -3.92220478317995e-08 0.00012505069025792181" pbc="T T T"
Cr       1.88332602       1.33171413       3.26202207      -0.00000444       0.00000515       0.00003148
Cr       5.64998473       3.99513906       9.78605067       0.00003056      -0.00000220      -0.00001602
Ga       0.00000068       0.00000053      -0.00000018      -0.00000321      -0.00000288       0.00000136
Se       2.05463710       1.45284920       6.52403419       0.00542118       0.00384386      -0.00001329
Se       5.47866762       3.87400333       6.52403637      -0.00542171      -0.00383414       0.00000798
Se       4.62266050       1.45284741       5.04138589      -0.00271981       0.00382915       0.00469840
Se       2.91064416       3.87400464       8.00668296       0.00270240      -0.00383300      -0.00470549
Se       2.91064367       3.87400310       5.04138629       0.00269452      -0.00384471       0.00469893
Se       4.62266335       1.45284929       8.00668301      -0.00269954       0.00383882      -0.00470339
