9
Lattice="5.5582894656350925 2.130290307861939e-08 3.209079877038948 1.8527631717688644 5.2404055271025705 3.2090798831485574 -2.338612790478073e-08 -9.053768736646934e-09 6.4181597945838" Properties=species:S:1:pos:R:3:forces:R:3 energy=-43.185157775878906 free_energy=-43.185157775878906 stress="0.0002017891820287332 9.758321262154368e-09 4.6860391123004774e-09 9.758321262154368e-09 0.00020179389684926718 -2.4603199477724047e-08 4.6860391123004774e-09 -2.4603199477724047e-08 0.00020177409169264138" pbc="T T T"
Cr       1.85276383       1.31010131       3.20907977       0.00000523      -0.00000026      -0.00000046
Cr       5.55828945       3.93030543       9.62723998      -0.00000064       0.00000828       0.00000247
Ge      -0.00000005       0.00000008       0.00000007      -0.00000046      -0.00000073      -0.00000544
S        1.88007454       1.32941296       6.41815988      -0.00365889      -0.00259221       0.00000118
S        5.53097827       3.91099221       6.41815960       0.00366271       0.00258899      -0.00000376
S        4.61825204       1.32941276       4.83727182       0.00182503      -0.00258857      -0.00316763
S        2.79280039       3.91099215       7.99904757      -0.00183073       0.00258923       0.00317174
S        2.79280038       3.91099233       4.83727186      -0.00182831       0.00258845      -0.00316966
S        4.61825161       1.32941290       7.99904754       0.00182611      -0.00259358       0.00317180
