9
Lattice="6.223014252126321 1.0113330527516071e-08 3.5928589528197175 2.0743380896176116 5.867113988646321 3.5928589596777023 -2.6500788138403535e-08 -1.0339640897870112e-08 7.185717951540175" Properties=species:S:1:pos:R:3:forces:R:3 energy=-37.3236083984375 free_energy=-37.3236083984375 stress="1.8290964362677187e-05 5.774247302525737e-09 -3.710265428225057e-10 5.774247302525737e-09 1.8295042536919937e-05 1.5411279197241612e-10 -3.710265428225057e-10 1.5411279197241612e-10 1.8283921235706657e-05" pbc="T T T"
Cr       2.07433836       1.46677803       3.59285902       0.00000115      -0.00000303       0.00000071
Cr       6.22301396       4.40033592      10.77857703      -0.00000226       0.00000135      -0.00000006
Ge       0.00000014      -0.00000001      -0.00000010      -0.00000121      -0.00000022       0.00000024
Te       2.21184056       1.56400714       7.18571797      -0.00034966      -0.00024893      -0.00000047
Te       6.08551145       4.30310669       7.18571815       0.00035065       0.00025021       0.00000043
Te       5.11709388       1.56400744       5.50836909       0.00017425      -0.00024812      -0.00030434
Te       3.18025832       4.30310670       8.86306665      -0.00017422       0.00024877       0.00030346
Te       3.18025866       4.30310672       5.50836902      -0.00017388       0.00024801      -0.00030431
Te       5.11709394       1.56400732       8.86306662       0.00017516      -0.00024804       0.00030422
