9
Lattice="5.437819886304525 1.1068550047753688e-08 3.1395266824741244 1.8126066332587 5.126825813071893 3.139526692771192 -2.049353892152448e-08 -1.8798255540351842e-09 6.2790534004440905" Properties=species:S:1:pos:R:3:forces:R:3 energy=-41.42215347290039 free_energy=-41.42215347290039 stress="-0.00012413003423716873 8.858629940711182e-10 -6.148089148894087e-09 8.858629940711182e-10 -0.00012408799375407398 2.967869860981409e-08 -6.148089148894087e-09 2.967869860981409e-08 -0.00012413461809046566" pbc="T T T"
Cr       1.81260630       1.28170622       3.13952687      -0.00000199      -0.00000329       0.00000081
Cr       5.43781996       3.84511928       9.41858032       0.00000047       0.00000099       0.00000200
Ga       0.00000002      -0.00000024       0.00000025      -0.00000089       0.00000491      -0.00000410
S        1.86069777       1.31571202       6.27905305      -0.00189823      -0.00134119      -0.00000005
S        5.38972895       3.81111410       6.27905311       0.00189333       0.00134000      -0.00000169
S        4.50747117       1.31571191       4.75093835       0.00094988      -0.00134072      -0.00164169
S        2.74295522       3.81111400       7.80716842      -0.00094882       0.00134209       0.00163944
S        2.74295539       3.81111410       4.75093813      -0.00094330       0.00133951      -0.00163837
S        4.50747120       1.31571185       7.80716858       0.00094961      -0.00134222       0.00164373
