9
Lattice="5.649979910966405 -7.461395107734555e-08 3.26201733868637 1.8833264897487332 5.3268519968496655 3.262017471869593 -3.9792032819699155e-08 1.349782635791087e-07 6.524034746294482" Properties=species:S:1:pos:R:3:forces:R:3 energy=-38.603736877441406 free_energy=-38.603736877441406 stress="0.0001250588393304497 6.075370606595243e-08 -3.327025410726492e-08 6.075370606595243e-08 0.00012505768972914666 -1.2539612903594843e-08 -3.327025410726492e-08 -1.2539612903594843e-08 0.00012504505866672844" pbc="T T T"
Cr       1.88332668       1.33171365       3.26202158      -0.00000042       0.00000339       0.00003034
Cr       5.64998197       3.99514105       9.78605294       0.00001462       0.00001326       0.00000172
Ga       0.00000045       0.00000038       0.00000032      -0.00000360      -0.00000216      -0.00000045
Se       2.05463782       1.45284787       6.52403327       0.00542621       0.00383487      -0.00001340
Se       5.47866724       3.87400290       6.52403516      -0.00541827      -0.00383221      -0.00000153
Se       4.62266018       1.45284747       5.04138546      -0.00271908       0.00382943       0.00469564
Se       2.91064519       3.87400448       8.00668225       0.00270428      -0.00382914      -0.00470182
Se       2.91064450       3.87400250       5.04138519       0.00270377      -0.00384460       0.00469349
Se       4.62266145       1.45284784       8.00668218      -0.00270761       0.00382710      -0.00470397
