9
Lattice="6.223350496289191 -1.79628148187372e-08 3.5930530506167484 2.074450147090973 5.86743113209076 3.5930530530471914 -2.2452154169542288e-08 -1.2899405332574492e-08 7.186106140121793" Properties=species:S:1:pos:R:3:forces:R:3 energy=-36.173179626464844 free_energy=-36.173179626464844 stress="2.793478643070557e-06 -7.592944939460722e-09 -1.6142899239568465e-09 -7.592944939460722e-09 2.7976843739452306e-06 -6.361145388211753e-09 -1.6142899239568465e-09 -6.361145388211753e-09 2.81717257166747e-06" pbc="T T T"
Cr       2.07445019       1.46685758       3.59305287      -0.00000068      -0.00000150      -0.00000088
Cr       6.22335073       4.40057310      10.77915832       0.00000133      -0.00000025      -0.00000364
Ga      -0.00000002       0.00000002       0.00000017      -0.00000006      -0.00000117      -0.00000305
Te       2.20214471       1.55715178       7.18610605      -0.00006436      -0.00004459      -0.00000099
Te       6.09565573       4.31027952       7.18610659       0.00006475       0.00004560       0.00000134
Te       5.12227806       1.55715141       5.50016651       0.00003075      -0.00004449      -0.00005416
Te       3.17552270       4.31027954       8.87204579      -0.00003303       0.00004831       0.00005836
Te       3.17552254       4.31027971       5.50016670      -0.00003161       0.00004536      -0.00005452
Te       5.12227786       1.55715173       8.87204594       0.00003297      -0.00004719       0.00005758
