9
Lattice="4.583623856249827 8.790962336914157e-08 2.6463565708950756 1.5278746642680923 4.321482200724107 2.6463566356111277 2.7910485085959424e-09 8.12342348665363e-08 5.292713136955917" Properties=species:S:1:pos:R:3:forces:R:3 energy=-62.008583068847656 free_energy=-62.008583068847656 stress="0.00018919560534413904 -3.554683658535396e-08 -4.941172093708701e-08 -3.554683658535396e-08 0.00018934746913146228 -2.9942761159418296e-08 -4.941172093708701e-08 -2.9942761159418296e-08 0.00018927155178971589" pbc="T T T"
Cr       1.52787486       1.08037019       2.64635681       0.00000077      -0.00000381       0.00000113
Cr       4.58362382       3.24111221       7.93907088      -0.00000047       0.00000596       0.00000857
Hf      -0.00000005      -0.00000004      -0.00000022      -0.00000190       0.00000027       0.00000031
O        1.64176011       1.16089978       5.29271304      -0.00028169      -0.00020015      -0.00000137
O        4.46973844       3.16058255       5.29271251       0.00028062       0.00020230      -0.00000474
O        3.76274379       1.16089978       4.06816244       0.00013855      -0.00019926      -0.00024563
O        2.34875461       3.16058260       6.51726380      -0.00013956       0.00019875       0.00024009
O        2.34875474       3.16058269       4.06816252      -0.00013736       0.00019822      -0.00024110
O        3.76274370       1.16089969       6.51726358       0.00014141      -0.00020230       0.00024235
