9
Lattice="5.8957433164175255 1.9668915555333428e-07 3.40390888424335 1.9652479358565194 5.558559964549014 3.403908921868713 -6.804166167060433e-09 4.1270162870126034e-08 6.807817780271927" Properties=species:S:1:pos:R:3:forces:R:3 energy=-47.08823776245117 free_energy=-47.08823776245117 stress="6.35300821159035e-05 3.853707397638573e-08 8.687718100475195e-09 3.853707397638573e-08 6.349787872750312e-05 -1.3178258484458638e-08 8.687718100475195e-09 -1.3178258484458638e-08 6.34362077107653e-05" pbc="T T T"
Cr       1.96524743       1.38964111       3.40390898      -0.00000001       0.00000968       0.00000128
Cr       5.89574236       4.16892015      10.21172722      -0.00000987      -0.00000028       0.00000290
Hf      -0.00000001       0.00000014      -0.00000022       0.00000387      -0.00000064      -0.00000217
Se       2.09213894       1.47936551       6.80781786      -0.00495520      -0.00350584       0.00000116
Se       5.76885250       4.07919438       6.80781719       0.00495727       0.00349961      -0.00000236
Se       4.84967368       1.47936530       5.21575372       0.00247534      -0.00350189      -0.00428779
Se       3.01131782       4.07919470       8.39988217      -0.00247340       0.00350037       0.00429063
Se       3.01131781       4.07919388       5.21575347      -0.00247551       0.00349927      -0.00429276
Se       4.84967444       1.47936569       8.39988198       0.00247725      -0.00350040       0.00428903
