9
Lattice="6.373658062961635 -1.578192633471081e-10 3.679833282614937 2.124552709241176 6.009142441500151 3.679833244966954 4.459793707399197e-08 -1.457367761559171e-08 7.359666487983971" Properties=species:S:1:pos:R:3:forces:R:3 energy=-44.36502456665039 free_energy=-44.36502456665039 stress="1.7946276784641668e-05 5.276215464533607e-09 -1.1309291281236256e-08 5.276215464533607e-09 1.794493800844066e-05 1.8362900533475113e-08 -1.1309291281236256e-08 1.8362900533475113e-08 1.7932135961018503e-05" pbc="T T T"
Cr       2.12455201       1.50228622       3.67983329      -0.00000367       0.00000266      -0.00000043
Cr       6.37365885       4.50685657      11.03950026       0.00000262      -0.00000084       0.00000308
Hf      -0.00000018      -0.00000018      -0.00000014       0.00000211       0.00000274       0.00000288
Te       2.26655890       1.60269939       7.35966649       0.00083640       0.00059190      -0.00000006
Te       6.23165231       4.40644333       7.35966633      -0.00083894      -0.00059502      -0.00000094
Te       5.24037882       1.60269920       5.64273106      -0.00041685       0.00059213       0.00072467
Te       3.25783179       4.40644306       9.07660204       0.00041837      -0.00059383      -0.00072780
Te       3.25783206       4.40644314       5.64273088       0.00041981      -0.00059356       0.00072686
Te       5.24037877       1.60269897       9.07660185      -0.00041993       0.00059380      -0.00072825
