9
Lattice="5.576090806008171 8.162345336221512e-10 3.2193574466493335 1.8586969068299728 5.257188784128963 3.219357497356243 -4.365347214659984e-08 3.123535271904869e-08 6.4387149689087" Properties=species:S:1:pos:R:3:forces:R:3 energy=-51.39574432373047 free_energy=-51.39574432373047 stress="-1.1252621334278956e-05 1.0385085680297834e-08 2.3627586553942592e-09 1.0385085680297834e-08 -1.1273868040007073e-05 2.7454747808519642e-08 2.3627586553942592e-09 2.7454747808519642e-08 -1.1230496056668926e-05" pbc="T T T"
Cr       1.85869720       1.31429730       3.21935746      -0.00000010       0.00000032       0.00000008
Cr       5.57609045       3.94289167       9.65807222      -0.00000118       0.00000089      -0.00000058
Hf      -0.00000026      -0.00000004      -0.00000004       0.00000226      -0.00000004      -0.00000092
S        1.98051150       1.40043285       6.43871494      -0.00537182      -0.00379870      -0.00000005
S        5.45427642       3.85675548       6.43871517       0.00537107       0.00379727      -0.00000014
S        4.58583506       1.40043312       4.93453068       0.00268564      -0.00379839      -0.00465297
S        2.84895269       3.85675589       7.94289913      -0.00268477       0.00379894       0.00465206
S        2.84895255       3.85675591       4.93453088      -0.00268593       0.00379765      -0.00465013
S        4.58583503       1.40043309       7.94289923       0.00268478      -0.00379795       0.00465240
