9
Lattice="5.519544552025694 -1.9353090050713597e-08 3.186710520487601 1.8398482044336462 5.203876422534854 3.186710453506918 2.0292471505048337e-08 -6.768533519281548e-08 6.37342100582767" Properties=species:S:1:pos:R:3:forces:R:3 energy=-48.176090240478516 free_energy=-48.176090240478516 stress="-4.085662294528447e-05 1.0051058652038591e-08 1.843150698732643e-08 1.0051058652038591e-08 -4.083734529558569e-05 -2.7408921354776794e-08 1.843150698732643e-08 -2.7408921354776794e-08 -4.082905797986314e-05" pbc="T T T"
Cr       1.83984794       1.30096884       3.18671076      -0.00000098      -0.00000122       0.00000343
Cr       5.51954449       3.90290783       9.56013276      -0.00000011       0.00000361       0.00000982
Ir       0.00000001      -0.00000002       0.00000017      -0.00000083       0.00000082       0.00000283
S        1.87779951       1.32780438       6.37342094      -0.00388283      -0.00274849      -0.00000257
S        5.48159336       3.87607192       6.37342041       0.00388491       0.00274861      -0.00000364
S        4.58064502       1.32780490       4.81293205       0.00194171      -0.00274432      -0.00336468
S        2.77874759       3.87607197       7.93390958      -0.00194257       0.00274444       0.00335950
S        2.77874814       3.87607156       4.81293222      -0.00194293       0.00274730      -0.00336736
S        4.58064509       1.32780400       7.93390897       0.00194377      -0.00275081       0.00336242
