9
Lattice="5.769293739589996 -9.367560736948088e-08 3.33090331238222 1.923097814783836 5.439342191024376 3.3309033298666333 -7.185674040964562e-09 1.6332894446249707e-08 6.661806637210387" Properties=species:S:1:pos:R:3:forces:R:3 energy=-45.358882904052734 free_energy=-45.358882904052734 stress="-0.00016515058814547956 -4.201531567105121e-08 -4.2293123669878696e-08 -4.201531567105121e-08 -0.00016512561705894768 4.405768194715165e-08 -4.2293123669878696e-08 4.405768194715165e-08 -0.00016508798580616713" pbc="T T T"
Cr       1.92309809       1.35983524       3.33090250       0.00000086      -0.00000268      -0.00000415
Cr       5.76929343       4.07950671       9.99270963      -0.00000063       0.00000161      -0.00000367
Ir      -0.00000021       0.00000002      -0.00000011       0.00000419       0.00000179       0.00000123
Se       1.99338896       1.40953885       6.66180674      -0.00293294      -0.00207505       0.00000221
Se       5.69900290       4.02980352       6.66180681       0.00292900       0.00207148       0.00000249
Se       4.77259915       1.40953888       5.05722930       0.00146964      -0.00207870      -0.00254226
Se       2.91979249       4.02980322       8.26638438      -0.00146782       0.00207676       0.00254403
Se       2.91979235       4.02980331       5.05722906      -0.00146684       0.00207655      -0.00254060
Se       4.77259904       1.40953869       8.26638477       0.00146452      -0.00207181       0.00254069
