9
Lattice="5.519803222721852 7.12199096692785e-08 3.1868597942227685 1.8399344673392348 5.204120395352613 3.1868598070078584 3.660284942582141e-08 4.1540604826207134e-08 6.373719525047525" Properties=species:S:1:pos:R:3:forces:R:3 energy=-48.17609405517578 free_energy=-48.17609405517578 stress="-1.6914653315325268e-05 -6.024810095262012e-10 -2.9714761207166873e-10 -6.024810095262012e-10 -1.6900119589990936e-05 -4.595129166062861e-09 -2.9714761207166873e-10 -4.595129166062861e-09 -1.691023317107465e-05" pbc="T T T"
Cr       1.83993432       1.30103006       3.18685986      -0.00000195      -0.00000252       0.00000066
Cr       5.51980326       3.90309021       9.56057973      -0.00000066      -0.00000150       0.00000067
Ir      -0.00000023      -0.00000003      -0.00000006       0.00000111      -0.00000033       0.00000013
S        1.87771763       1.32774684       6.37371953      -0.00193119      -0.00136614      -0.00000010
S        5.48202020       3.87637348       6.37371913       0.00193000       0.00136501      -0.00000067
S        4.58094459       1.32774702       4.81301066       0.00096491      -0.00136393      -0.00167203
S        2.77879323       3.87637380       7.93442828      -0.00096434       0.00136662       0.00167191
S        2.77879339       3.87637362       4.81301098      -0.00096574       0.00136757      -0.00167304
S        4.58094450       1.32774706       7.93442830       0.00096756      -0.00136483       0.00167280
