9
Lattice="5.769312192597601 1.3200728862835436e-07 3.3309138959574143 1.9231041811186875 5.439359699576497 3.3309139090139146 -5.093459506790648e-08 -2.002530037427442e-08 6.661827880136088" Properties=species:S:1:pos:R:3:forces:R:3 energy=-45.358882904052734 free_energy=-45.358882904052734 stress="-0.00017029732407536358 5.2892719537567245e-08 -5.0464461054389176e-08 5.2892719537567245e-08 -0.00017032968753483146 4.615798232521229e-08 -5.0464461054389176e-08 4.615798232521229e-08 -0.00017037430370692164" pbc="T T T"
Cr       1.92310416       1.35983927       3.33091452       0.00000178      -0.00000291       0.00000393
Cr       5.76931227       4.07952004       9.99274156      -0.00000033       0.00000285      -0.00000102
Ir       0.00000001       0.00000008      -0.00000024       0.00000029      -0.00000049      -0.00000027
Se       1.99335394       1.40951408       6.66182785      -0.00231442      -0.00163674      -0.00000097
Se       5.69906215       4.02984613       6.66182816       0.00231275       0.00163765       0.00000086
Se       4.77263544       1.40951388       5.05720844       0.00115576      -0.00163512      -0.00200146
Se       2.91978099       4.02984634       8.26644706      -0.00115570       0.00163659       0.00200064
Se       2.91978076       4.02984577       5.05720826      -0.00115386       0.00163032      -0.00199935
Se       4.77263556       1.40951363       8.26644711       0.00115423      -0.00163229       0.00199759
