9
Lattice="4.707512849012082 6.276871748232084e-08 2.7178836442530856 1.5691709702885062 4.438285572182195 2.717883711042861 -6.473435919258322e-08 3.602631908670706e-08 5.435767400629376" Properties=species:S:1:pos:R:3:forces:R:3 energy=-55.69068145751953 free_energy=-55.69068145751953 stress="-0.00017542265413794667 1.634157875685105e-08 -2.509254848348519e-08 1.634157875685105e-08 -0.0001753979449858889 3.2622960333128503e-08 -2.509254848348519e-08 3.2622960333128503e-08 -0.00017548985488247126" pbc="T T T"
Cr       1.56916988       1.10957103       2.71788203      -0.00001123      -0.00000548      -0.00001723
Cr       4.70750999       3.32871383       8.15365013      -0.00002800      -0.00000221      -0.00000889
Ir       0.00000012       0.00000003      -0.00000003      -0.00000480       0.00000621       0.00002298
O        1.53021181       1.08202205       5.43576819       0.00217400       0.00152691       0.00000908
O        4.74647247       3.35626308       5.43576770      -0.00216274      -0.00152765       0.00000469
O        3.94240786       1.08202358       4.04308538      -0.00107059       0.00152789       0.00187024
O        2.33427759       3.35626269       6.82845049       0.00109889      -0.00154290      -0.00187679
O        2.33427727       3.35626325       4.04308583       0.00108461      -0.00152360       0.00187717
O        3.94240807       1.08202320       6.82844939      -0.00107972       0.00154060      -0.00188139
