9
Lattice="4.707837741713931 -5.059985583112679e-08 2.7180713868201 1.569279187351864 4.438591881887114 2.7180714079166934 -5.256171678672497e-08 -1.1328809697268902e-08 5.436142864679798" Properties=species:S:1:pos:R:3:forces:R:3 energy=-55.69068145751953 free_energy=-55.69068145751953 stress="-2.4357976144528948e-05 -4.2803449673556315e-08 6.480267433772724e-09 -4.2803449673556315e-08 -2.4211023628595285e-05 7.511533084425537e-08 6.480267433772724e-09 7.511533084425537e-08 -2.4212027710746042e-05" pbc="T T T"
Cr       1.56928192       1.10964918       2.71807026       0.00002297       0.00000930      -0.00001097
Cr       4.70783892       3.32894274       8.15421414       0.00001426      -0.00001021      -0.00000355
Ir      -0.00000007      -0.00000025      -0.00000007       0.00000135       0.00001744      -0.00001249
O        1.53029314       1.08208293       5.43614201      -0.00035404      -0.00023088      -0.00000449
O        4.74682268       3.35650980       5.43614366       0.00033362       0.00023302       0.00000951
O        3.94269010       1.08208179       4.04334530       0.00016852      -0.00024320      -0.00030185
O        2.33442592       3.35650971       6.82894094      -0.00017639       0.00023688       0.00030260
O        2.33442692       3.35651084       4.04334530      -0.00016705       0.00024058      -0.00029026
O        3.94268804       1.08208056       6.82894100       0.00015708      -0.00025283       0.00031149
