9
Lattice="5.479526203555558 6.963499467506594e-08 3.1636059412090414 1.8265087393087087 5.166146973856419 3.163606046625588 -2.9401500254317437e-08 1.0831840176936033e-07 6.327211933342973" Properties=species:S:1:pos:R:3:forces:R:3 energy=-49.88182067871094 free_energy=-49.88182067871094 stress="1.145486930909101e-05 3.0301468001425746e-08 -2.5814950177505125e-08 3.0301468001425746e-08 1.1459288543846924e-05 5.8208581066310217e-08 -2.5814950177505125e-08 5.8208581066310217e-08 1.140791573561728e-05" pbc="T T T"
Cr       1.82650829       1.29153636       3.16360634      -0.00000263      -0.00000145       0.00000331
Cr       5.47952626       3.87461005       9.49081749      -0.00000105      -0.00000275      -0.00000586
Mn       0.00000012      -0.00000003       0.00000003      -0.00000359       0.00000311       0.00000052
S        1.80798180       1.27843652       6.32721182      -0.00363934      -0.00257322      -0.00000144
S        5.49805324       3.88771062       6.32721213       0.00364041       0.00257415       0.00000282
S        4.57553513       1.27843679       4.72936448       0.00182149      -0.00257543      -0.00315410
S        2.73049985       3.88771085       7.92505970      -0.00181815       0.00257379       0.00315082
S        2.73049916       3.88771086       4.72936412      -0.00181943       0.00257206      -0.00314796
S        4.57553579       1.27843659       7.92505956       0.00182205      -0.00257030       0.00315195
