9
Lattice="4.604794007881181 -4.975737963084116e-08 2.6585790649277086 1.534931285048957 4.34144148088693 2.6585790718554394 -4.188024225879031e-08 -2.1129080424515343e-08 5.317158202394103" Properties=species:S:1:pos:R:3:forces:R:3 energy=-57.46364974975586 free_energy=-57.46364974975586 stress="-0.00011216651182621717 2.2829572898785955e-08 -2.9093509823496788e-08 2.2829572898785955e-08 -0.00011200635344721377 6.240147598646217e-08 -2.9093509823496788e-08 6.240147598646217e-08 -0.00011217104474781081" pbc="T T T"
Cr       1.53493064       1.08536142       2.65857842      -0.00000681       0.00001308      -0.00000827
Cr       4.60479322       3.25608177       7.97573731      -0.00000836       0.00000485      -0.00000162
Mo      -0.00000003       0.00000005       0.00000015       0.00000207      -0.00000179      -0.00000153
O        1.56120838       1.10394121       5.31715848       0.00049603       0.00034571       0.00000235
O        4.57851731       3.23749953       5.31715778      -0.00049245      -0.00035393      -0.00000166
O        3.82419006       1.10394038       4.01062603      -0.00024641       0.00034118       0.00043201
O        2.31553586       3.23750004       6.62369105       0.00024980      -0.00034469      -0.00042307
O        2.31553590       3.23750007       4.01062493       0.00025225      -0.00035179       0.00042570
O        3.82418959       1.10394107       6.62369135      -0.00024652       0.00034714      -0.00042391
