9
Lattice="5.718234472452168 -5.0172539108060503e-08 3.3014241703283327 1.9060781353815142 5.391203043109281 3.301424126679653 -5.369570358141078e-09 -5.725537052894708e-08 6.602848349957092" Properties=species:S:1:pos:R:3:forces:R:3 energy=-46.61590576171875 free_energy=-46.61590576171875 stress="-0.0001783052139217034 1.6176153749825062e-08 1.979429775644803e-08 1.6176153749825062e-08 -0.00017831831064540893 -3.015682636942074e-08 1.979429775644803e-08 -3.015682636942074e-08 -0.00017828236741479486" pbc="T T T"
Cr       1.90607831       1.34780060       3.30142452       0.00000176      -0.00000068       0.00000136
Cr       5.71823441       4.04340229       9.90427154       0.00000019       0.00000051      -0.00000921
Mn       0.00000014      -0.00000012       0.00000002      -0.00000236       0.00000571       0.00000062
Se       1.90110800       1.34428652       6.60284820      -0.00320548      -0.00226504      -0.00000040
Se       5.72320456       4.04691656       6.60284881       0.00320396       0.00226498       0.00000355
Se       4.76768039       1.34428585       4.94783217       0.00159988      -0.00226620      -0.00277260
Se       2.85663234       4.04691680       8.25786451      -0.00159799       0.00226218       0.00277191
Se       2.85663193       4.04691693       4.94783223      -0.00160237       0.00226459      -0.00277281
Se       4.76768027       1.34428629       8.25786454       0.00160225      -0.00226602       0.00277761
