9
Lattice="5.862441386417293 -6.518238157186514e-08 3.3846822767224274 1.954147070213015 5.527163231134459 3.3846822717656155 -4.184206564678665e-08 -3.5657597669219246e-08 6.769364625917443" Properties=species:S:1:pos:R:3:forces:R:3 energy=-48.073448181152344 free_energy=-48.073448181152344 stress="2.3641372536076233e-05 -7.73477566440306e-08 -3.6748994958202275e-09 -7.73477566440306e-08 2.365066211496014e-05 2.2726947435103284e-08 -3.6748994958202275e-09 2.2726947435103284e-08 2.3724642232991755e-05" pbc="T T T"
Cr       1.95414753       1.38179094       3.38468183       0.00000283       0.00000202      -0.00000217
Cr       5.86244108       4.14537312      10.15404764      -0.00000201       0.00000638       0.00000702
Mo      -0.00000009       0.00000003       0.00000088      -0.00000256      -0.00000030      -0.00001096
Se       1.98983192       1.40702368       6.76936452      -0.00384831      -0.00272201      -0.00000149
Se       5.82675615       4.12013928       6.76936361       0.00385119       0.00272186      -0.00000613
Se       4.86752534       1.40702371       5.10792806       0.00192554      -0.00272769      -0.00333537
Se       2.94906343       4.12013869       8.43080110      -0.00192893       0.00272648       0.00334279
Se       2.94906357       4.12013916       5.10792800      -0.00192377       0.00272255      -0.00333463
Se       4.86752473       1.40702394       8.43080109       0.00192610      -0.00272946       0.00334094
