9
Lattice="5.613306012024739 2.834447908660907e-08 3.240843704926455 1.8711019960256707 5.292275727764294 3.240843765039057 -5.744608367288696e-08 3.300205993916215e-08 6.481687509352454" Properties=species:S:1:pos:R:3:forces:R:3 energy=-51.70674133300781 free_energy=-51.70674133300781 stress="6.733764166710898e-05 4.727462421527662e-09 -1.860758835903198e-08 4.727462421527662e-09 6.73204121994786e-05 2.030986578915872e-08 -1.860758835903198e-08 2.030986578915872e-08 6.729490269208327e-05" pbc="T T T"
Cr       1.87110249       1.32306871       3.24084400       0.00000336      -0.00000076       0.00000124
Cr       5.61330583       3.96920747       9.72252969       0.00000071       0.00000362      -0.00000996
Mo      -0.00000002      -0.00000010       0.00000004       0.00000171      -0.00000218       0.00000141
S        1.89424315       1.33943213       6.48168738      -0.00016621      -0.00012008       0.00000065
S        5.59016480       3.95284382       6.48168825       0.00016775       0.00011747       0.00000516
S        4.66618412       1.33943206       4.88130640       0.00008162      -0.00012063      -0.00014257
S        2.81822396       3.95284382       8.08206868      -0.00008217       0.00011892       0.00014710
S        2.81822315       3.95284327       4.88130646      -0.00008728       0.00011840      -0.00014415
S        4.66618429       1.33943196       8.08206899       0.00008039      -0.00011474       0.00014127
