9
Lattice="5.613284617367515 5.66172175008378e-08 3.240831346600398 1.8710949366398293 5.292255454769692 3.2408313278859784 2.3969474387764136e-08 -5.9713798406298424e-09 6.481662651684413" Properties=species:S:1:pos:R:3:forces:R:3 energy=-51.70674133300781 free_energy=-51.70674133300781 stress="6.49749199510552e-05 5.754047194272971e-08 -1.93284339644606e-08 5.754047194272971e-08 6.494309491245076e-05 2.3144659522245092e-09 -1.93284339644606e-08 2.3144659522245092e-09 6.489318184321746e-05" pbc="T T T"
Cr       1.87109480       1.32306357       3.24083187      -0.00000034      -0.00000085       0.00000321
Cr       5.61328488       3.96919168       9.72249295       0.00000221      -0.00000028      -0.00000630
Mo      -0.00000004       0.00000014      -0.00000017       0.00000106      -0.00000452      -0.00000385
S        1.89424436       1.33943284       6.48166268      -0.00022293      -0.00015840      -0.00000063
S        5.59013526       3.95282239       6.48166301       0.00022525       0.00015856       0.00000182
S        4.66616248       1.33943245       4.88129447       0.00010723      -0.00015465      -0.00018729
S        2.81821717       3.95282294       8.08203075      -0.00011121       0.00015987       0.00019179
S        2.81821644       3.95282279       4.88129495      -0.00011252       0.00015450      -0.00018906
S        4.66616295       1.33943322       8.08203084       0.00011127      -0.00015408       0.00019033
