9
Lattice="4.3332478412943995 -4.7870737712866334e-08 2.5018018623513094 1.4444159724413166 4.085425203174401 2.5018017402830175 5.470123473840273e-08 -1.1082290407237278e-07 5.003603629957346" Properties=species:S:1:pos:R:3:forces:R:3 energy=-48.65020751953125 free_energy=-48.65020751953125 stress="-0.00012129393144277856 -2.4748180393885377e-08 9.001778522588211e-08 -2.4748180393885377e-08 -0.0001214886360685341 -3.396347381112719e-08 9.001778522588211e-08 -3.396347381112719e-08 -0.00012130901450291276" pbc="T T T"
Cr       1.44441635       1.02135594       2.50180221      -0.00000028       0.00000125       0.00000175
Cr       4.33324818       3.06406864       7.50540463       0.00000471      -0.00000383      -0.00000677
Ni      -0.00000009      -0.00000011       0.00000004       0.00000642      -0.00000063      -0.00000430
O        1.44866442       1.02436084       5.00360390      -0.00114793      -0.00081100       0.00000055
O        4.32899962       3.06106414       5.00360383       0.00114104       0.00080968       0.00000114
O        3.60891547       1.02436020       3.75638250       0.00056824      -0.00081049      -0.00098681
O        2.16874836       3.06106531       6.25082468      -0.00057062       0.00081686       0.00099118
O        2.16874791       3.06106419       3.75638199      -0.00057128       0.00080527      -0.00099290
O        3.60891522       1.02436092       6.25082531       0.00056940      -0.00080747       0.00099581
