9
Lattice="5.577954725428647 5.825859916886079e-08 3.220433648146759 1.8593182496252916 5.258946252203375 3.2204337297453782 -1.1081570438495288e-08 9.210166197320281e-08 6.440867315487393" Properties=species:S:1:pos:R:3:forces:R:3 energy=-51.87839889526367 free_energy=-51.87839889526367 stress="7.589454617118463e-05 4.455760915789142e-08 -3.2172845720879195e-08 4.455760915789142e-08 7.585043931612745e-05 4.7520014589963466e-08 -3.2172845720879195e-08 4.7520014589963466e-08 7.584547711303458e-05" pbc="T T T"
Cr       1.85931832       1.31473674       3.22043359       0.00000040       0.00000111      -0.00000084
Cr       5.57795491       3.94420925       9.66130058       0.00000081      -0.00000412      -0.00000119
Nb      -0.00000010      -0.00000047       0.00000016       0.00000105       0.00000590       0.00000176
S        1.93095340       1.36539049       6.44086732      -0.00168753      -0.00119279      -0.00000033
S        5.50631981       3.89355607       6.44086714       0.00168261       0.00118969      -0.00000051
S        4.61247811       1.36539055       4.89268820       0.00084281      -0.00119096      -0.00145952
S        2.82479487       3.89355610       7.98904663      -0.00083925       0.00118968       0.00145645
S        2.82479422       3.89355643       4.89268832      -0.00084156       0.00118852      -0.00145377
S        4.61247841       1.36539048       7.98904684       0.00084077      -0.00118683       0.00145797
