9
Lattice="4.199686829538973 1.0209336914789004e-07 2.424690356039466 1.3998956650023353 3.9595030228521475 2.424690427224232 -4.1377686226266954e-09 8.425732171265878e-08 4.849380719245769" Properties=species:S:1:pos:R:3:forces:R:3 energy=-50.33470153808594 free_energy=-50.33470153808594 stress="4.4252850784687325e-05 5.198911168236009e-08 8.047157251667159e-08 5.198911168236009e-08 4.473187436815351e-05 1.1547932388111803e-07 8.047157251667159e-08 1.1547932388111803e-07 4.4423086364986375e-05" pbc="T T T"
Cr       1.39989548       0.98987643       2.42469032       0.00000057       0.00000648      -0.00000087
Cr       4.19968679       2.96962727       7.27407144       0.00000296       0.00000279       0.00000317
N        0.00000258       0.00000247       0.00000101       0.00004662       0.00003846       0.00001837
O        1.30684289       0.92407758       4.84938058      -0.00154972      -0.00109696      -0.00000472
O        4.29273651       3.03542329       4.84938068       0.00149488       0.00105548       0.00000131
O        3.54626506       0.92407854       3.55645033       0.00076485      -0.00108355      -0.00132138
O        2.05331820       3.03542387       6.14231012      -0.00075758       0.00107169       0.00130916
O        2.05331795       3.03542447       3.55645079      -0.00076506       0.00108057      -0.00131941
O        3.54626446       0.92407904       6.14231029       0.00076175      -0.00107509       0.00131327
