9
Lattice="6.000562496975379 -4.014692601637554e-08 3.4644264951897643 2.000187447371148 5.657384742205951 3.4644265190396797 -3.2727932334807314e-08 6.067951974224394e-09 6.928853047065932" Properties=species:S:1:pos:R:3:forces:R:3 energy=-40.22505569458008 free_energy=-40.22505569458008 stress="-8.253851410700008e-05 -2.7638852984068762e-08 -5.478493214639002e-09 -2.7638852984068762e-08 -8.251151302829385e-05 7.61771090651564e-09 -5.478493214639002e-09 7.61771090651564e-09 -8.249477104982361e-05" pbc="T T T"
Cr       2.00018639       1.41434611       3.46442687      -0.00000645       0.00000031       0.00000053
Cr       6.00056230       4.24303856      10.39328110      -0.00000272      -0.00000081       0.00000903
Ni      -0.00000019       0.00000012       0.00000017       0.00000383      -0.00000120      -0.00000287
Te       2.04343518       1.44492686       6.92885294       0.00007488       0.00005160      -0.00000071
Te       5.95731484       4.21245769       6.92885215      -0.00007284      -0.00005321      -0.00000341
Te       4.97884540       1.44492734       5.23409340      -0.00003508       0.00005421       0.00006522
Te       3.02190490       4.21245784       8.62361220       0.00003494      -0.00005053      -0.00006247
Te       3.02190554       4.21245767       5.23409338       0.00003818      -0.00005041       0.00005983
Te       4.97884530       1.44492664       8.62361208      -0.00003468       0.00005007      -0.00006522
