9
Lattice="5.8857256113896605 -7.124677671347516e-08 3.3981253408843877 1.9619084760930094 5.549115397486374 3.39812533025782 -1.3578519322196936e-08 -2.2616288732882722e-08 6.796250705287357" Properties=species:S:1:pos:R:3:forces:R:3 energy=-47.662872314453125 free_energy=-47.662872314453125 stress="0.00036291012656874955 -2.6941302522232036e-08 2.7411887870698592e-08 -2.6941302522232036e-08 0.00036292048753239214 -7.480971397910707e-09 2.7411887870698592e-08 -7.480971397910707e-09 0.0003629353013820946" pbc="T T T"
Cr       1.96190825       1.38727890       3.39812543      -0.00000137       0.00000107       0.00000170
Cr       5.88572552       4.16183671      10.19437552       0.00000002       0.00000104      -0.00000192
Nb       0.00000020      -0.00000015       0.00000010      -0.00000083       0.00000091       0.00000215
Se       2.02827673       1.43420811       6.79625062      -0.00525264      -0.00371536       0.00000045
Se       5.81935757       4.11490700       6.79625079       0.00525463       0.00371316      -0.00000008
Se       4.87158698       1.43420823       5.15466471       0.00262651      -0.00371662      -0.00455214
Se       2.97604701       4.11490721       8.43783687      -0.00262618       0.00371538       0.00455032
Se       2.97604680       4.11490688       5.15466492      -0.00262907       0.00371711      -0.00455194
Se       4.87158724       1.43420835       8.43783657       0.00262892      -0.00371669       0.00455137
