9
Lattice="5.384933409295819 -6.022695524034628e-08 3.1089927234051933 1.794977774317211 5.076963937178651 3.1089926749058425 -2.101679088010769e-08 -7.426047828503018e-08 6.217985483212534" Properties=species:S:1:pos:R:3:forces:R:3 energy=-45.67652893066406 free_energy=-45.67652893066406 stress="4.073587479069829e-05 -2.995395220750652e-08 7.066407192724e-08 -2.995395220750652e-08 4.07436273235362e-05 -7.615486197209975e-08 7.066407192724e-08 -7.615486197209975e-08 4.079027712577954e-05" pbc="T T T"
Cr       1.79497763       1.26924107       3.10899298      -0.00000025      -0.00000086       0.00000293
Cr       5.38493322       3.80772287       9.32697762      -0.00000237       0.00000019      -0.00000572
Ni      -0.00000001       0.00000002       0.00000001       0.00000456       0.00000176      -0.00001223
S        1.77148699       1.25263050       6.21798552       0.00125295       0.00088587      -0.00000131
S        5.40842419       3.82433332       6.21798569      -0.00125772      -0.00089070       0.00000129
S        4.49918990       1.25262969       4.64314512      -0.00063282       0.00089186       0.00109285
S        2.68072142       3.82433373       7.79282560       0.00062999      -0.00088477      -0.00108379
S        2.68072118       3.82433331       4.64314557       0.00062761      -0.00088695       0.00108570
S        4.49919009       1.25263078       7.79282534      -0.00062194       0.00088361      -0.00107992
