9
Lattice="4.199686339357681 -2.991121530839341e-08 2.424690029165091 1.3998954672433732 3.959502126677623 2.4246899443095296 4.524016775224141e-08 -7.193678508693052e-08 4.8493799799719195" Properties=species:S:1:pos:R:3:forces:R:3 energy=-50.33470153808594 free_energy=-50.33470153808594 stress="4.744304169435054e-05 7.347443897742778e-08 7.551027891850026e-08 7.347443897742778e-08 4.789305603480898e-05 2.3413527117099875e-07 7.551027891850026e-08 2.3413527117099875e-07 4.7701221774332225e-05" pbc="T T T"
Cr       1.39989560       0.98987551       2.42468942       0.00000345       0.00000088      -0.00000275
Cr       4.19968645       2.96962639       7.27406967       0.00000335      -0.00000306      -0.00000235
N        0.00000229       0.00000000       0.00000092       0.00003923       0.00000090       0.00001669
O        1.30683272       0.92407000       4.84937999      -0.00084919      -0.00060576      -0.00000176
O        4.29274755       3.03543058       4.84938033       0.00081837       0.00057948       0.00000271
O        3.54626973       0.92407101       3.55644089       0.00041640      -0.00058800      -0.00071901
O        2.05331193       3.03543125       6.14231934      -0.00042227       0.00059426       0.00072688
O        2.05331177       3.03543210       3.55644040      -0.00042129       0.00060201      -0.00073224
O        3.54626932       0.92407117       6.14231861       0.00041258      -0.00058132       0.00070888
