9
Lattice="6.30697957804757 3.171607275564507e-08 3.6413364254440106 2.1023265574361507 5.946277425181838 3.6413364228145553 -1.0613491232655259e-08 -1.0725264348950272e-08 7.282672869271186" Properties=species:S:1:pos:R:3:forces:R:3 energy=-44.20618438720703 free_energy=-44.20618438720703 stress="-8.701602928340435e-05 1.0575710973625974e-08 -1.5834766387001764e-08 1.0575710973625974e-08 -8.702897321199998e-05 1.4166755768485473e-08 -1.5834766387001764e-08 1.4166755768485473e-08 -8.70286748977378e-05" pbc="T T T"
Cr       2.10232618       1.48656896       3.64133649      -0.00000146      -0.00000205       0.00000019
Cr       6.30697969       4.45970885      10.92400829      -0.00000003       0.00000335      -0.00000529
Nb       0.00000006       0.00000003       0.00000021      -0.00000111      -0.00000223      -0.00000033
Te       2.20398578       1.55845305       7.28267288      -0.00197082      -0.00139539      -0.00000007
Te       6.20532033       4.38782420       7.28267338       0.00197341       0.00139493       0.00000165
Te       5.20498675       1.55845278       5.55004424       0.00098448      -0.00139470      -0.00170587
Te       3.20431961       4.38782428       9.01530163      -0.00098544       0.00139580       0.00170925
Te       3.20431923       4.38782441       5.55004426      -0.00098569       0.00139433      -0.00170587
Te       5.20498687       1.55845322       9.01530147       0.00098662      -0.00139403       0.00170632
