9
Lattice="5.63903523376967 -5.985694241925876e-08 3.255697910235364 1.879678359876189 5.316532735301686 3.255697901482801 -9.82776199148083e-08 -8.021243555328233e-08 6.511395990692578" Properties=species:S:1:pos:R:3:forces:R:3 energy=-42.70182800292969 free_energy=-42.70182800292969 stress="0.00034303401480428874 1.3162393841525954e-08 8.19885315195279e-09 1.3162393841525954e-08 0.0003430292708799243 -7.917319244654664e-09 8.19885315195279e-09 -7.917319244654664e-09 0.0003430449578445405" pbc="T T T"
Cr       1.87967947       1.32913375       3.25569822       0.00000610       0.00000300       0.00000361
Cr       5.63903455       3.98739908       9.76709292      -0.00000164      -0.00000344      -0.00000683
Ni       0.00000035      -0.00000002       0.00000112      -0.00000807       0.00000162      -0.00001998
Se       1.89607411       1.34072724       6.51139604       0.00203040       0.00143769      -0.00000020
Se       5.62263925       3.97580532       6.51139665      -0.00202754      -0.00143346       0.00000361
Se       4.69099757       1.34072672       4.89774611      -0.00101979       0.00143787       0.00175992
Se       2.82771560       3.97580565       8.12504513       0.00101371      -0.00143176      -0.00175381
Se       2.82771547       3.97580538       4.89774572       0.00101928      -0.00144294       0.00176311
Se       4.69099759       1.34072726       8.12504530      -0.00101241       0.00143135      -0.00174934
