9
Lattice="5.7775275806201 -2.5296612220487262e-08 3.335657100707207 1.9258425234334628 5.447105029506875 3.3356570653560946 4.435089719206982e-08 -1.1935277284954957e-08 6.671314124596412" Properties=species:S:1:pos:R:3:forces:R:3 energy=-46.99429702758789 free_energy=-46.99429702758789 stress="-0.00013136022607795894 -4.2249350684642195e-08 -2.2880213279563577e-08 -4.2249350684642195e-08 -0.00013127285637892783 -8.199957157728477e-09 -2.2880213279563577e-08 -8.199957157728477e-09 -0.00013128029240760952" pbc="T T T"
Cr       1.92584254       1.36177554       3.33565770       0.00000019      -0.00000547       0.00000518
Cr       5.77752812       4.08532879      10.00697101       0.00000365       0.00000136      -0.00000267
Os      -0.00000002      -0.00000003      -0.00000016      -0.00000036       0.00000170      -0.00000205
Se       1.99185239       1.40845245       6.67131397      -0.00331467      -0.00234225      -0.00000083
Se       5.71151770       4.03865286       6.67131454       0.00331146       0.00234225       0.00000144
Se       4.78160110       1.40845198       5.06065183       0.00165461      -0.00234368      -0.00287226
Se       2.92176865       4.03865307       8.28197618      -0.00165933       0.00234789       0.00286838
Se       2.92176872       4.03865283       5.06065188      -0.00165515       0.00234437      -0.00286847
Se       4.78160143       1.40845252       8.28197619       0.00165969      -0.00234613       0.00287157
