9
Lattice="5.54010396744295 8.747235263812111e-10 3.1985805248934187 1.8467013159927783 5.223260132410816 3.19858053755973 -1.6418906092686494e-08 3.903089390351507e-09 6.397161078225212" Properties=species:S:1:pos:R:3:forces:R:3 energy=-49.61662673950195 free_energy=-49.61662673950195 stress="-0.0003101584443356842 -2.9588999694851736e-08 3.4226821377103533e-09 -2.9588999694851736e-08 -0.0003101160691585392 -4.5013952565398085e-09 3.4226821377103533e-09 -4.5013952565398085e-09 -0.0003100687463302165" pbc="T T T"
Cr       1.84670120       1.30581500       3.19858057      -0.00000226      -0.00000058      -0.00000017
Cr       5.54010386       3.91744514       9.59574161      -0.00000061       0.00000199      -0.00000088
Os       0.00000012       0.00000008       0.00000002      -0.00000078       0.00000018       0.00000041
S        1.88550654       1.33325440       6.39716107       0.00008672       0.00006074      -0.00000008
S        5.50129867       3.89000560       6.39716107      -0.00008571      -0.00006157       0.00000065
S        4.59735071       1.33325452       4.83147710      -0.00004211       0.00005990       0.00007468
S        2.78945465       3.89000568       7.96284505       0.00004429      -0.00006002      -0.00007474
S        2.78945459       3.89000564       4.83147713       0.00004303      -0.00005990       0.00007522
S        4.59735072       1.33325452       7.96284493      -0.00004226       0.00005919      -0.00007474
