9
Lattice="4.678778412427938 4.194259060187902e-09 2.7012939958300826 1.5595927911014784 4.41119471833531 2.701294025267235 1.366947387466272e-08 4.571877719306154e-08 5.402587967983948" Properties=species:S:1:pos:R:3:forces:R:3 energy=-61.021507263183594 free_energy=-61.021507263183594 stress="-2.247602242277935e-05 9.210132390080616e-08 -3.0679906615205255e-08 9.210132390080616e-08 -2.2503043510369025e-05 -3.786313484965831e-09 -3.0679906615205255e-08 -3.786313484965831e-09 -2.255396611872129e-05" pbc="T T T"
Cr       1.55959258       1.10279938       2.70129412      -0.00000018       0.00000339       0.00000047
Cr       4.67878088       3.30839604       8.10388091       0.00002050       0.00000001      -0.00000832
Os      -0.00000004      -0.00000006       0.00000007      -0.00000281      -0.00000376      -0.00000014
O        1.51229248       1.06935324       5.40258814      -0.00001749      -0.00000545       0.00000336
O        4.72607813       3.34184169       5.40258841       0.00002009       0.00001112       0.00000175
O        3.92263152       1.06935222       4.01097830       0.00000137      -0.00001046      -0.00000709
O        2.31573910       3.34184213       6.79419771      -0.00001080       0.00000781       0.00001144
O        2.31573839       3.34184201       4.01097864      -0.00001512       0.00000784      -0.00000846
O        3.92263189       1.06935240       6.79419763       0.00000426      -0.00001097       0.00000682
