9
Lattice="5.821644545239671 6.219020374224834e-08 3.3611279431758 1.940548180981044 5.488699198003781 3.3611280460579285 4.421637097428569e-08 1.57270047293667e-07 6.722255809766713" Properties=species:S:1:pos:R:3:forces:R:3 energy=-37.838531494140625 free_energy=-37.838531494140625 stress="-0.00011645093036349863 3.0598869216191815e-08 -3.574707818643219e-08 3.0598869216191815e-08 -0.00011650041415123269 -1.1461829707570814e-08 -3.574707818643219e-08 -1.1461829707570814e-08 -0.00011633979738689959" pbc="T T T"
Cr       1.94054589       1.37217308       3.36112931      -0.00001414      -0.00001218       0.00000808
Cr       5.82164604       4.11652569      10.08338291       0.00001142       0.00000814      -0.00000724
Pb       0.00000048       0.00000010       0.00000014      -0.00000457      -0.00000032       0.00000030
Se       2.27295933       1.60722454       6.72225549      -0.00050797      -0.00036053      -0.00000244
Se       5.48923311       3.88147478       6.72225781       0.00051087       0.00036552       0.00000946
Se       4.68516555       1.60722416       5.32956940       0.00025781      -0.00036985      -0.00043607
Se       3.07702710       3.88147600       8.11494176      -0.00025832       0.00037090       0.00043067
Se       3.07702708       3.88147499       5.32956877      -0.00026001       0.00036377      -0.00043590
Se       4.68516647       1.60722431       8.11494152       0.00026498      -0.00036539       0.00043325
