9
Lattice="5.467954036276134 3.696002347483367e-08 3.156924796088204 1.8226513106050157 5.155236745049353 3.1569249167542885 -4.616681336327218e-08 1.1514027251576759e-07 6.313849672139687" Properties=species:S:1:pos:R:3:forces:R:3 energy=-45.744327545166016 free_energy=-45.744327545166016 stress="0.00010734320676419884 -7.867315332532598e-08 -6.703326249635211e-08 -7.867315332532598e-08 0.00010735756950452924 6.974415356353347e-08 -6.703326249635211e-08 6.974415356353347e-08 0.00010746898624347523" pbc="T T T"
Cr       1.82265097       1.28880944       3.15692474      -0.00000252       0.00000116       0.00000101
Cr       5.46795409       3.86642715       9.47077491       0.00000048      -0.00000307       0.00000198
P       -0.00000008      -0.00000004       0.00000005      -0.00000016      -0.00000314       0.00000650
S        1.75448857       1.24061109       6.31384949      -0.00142121      -0.00100279       0.00000024
S        5.53611670       3.91462594       6.31384938       0.00142312       0.00100493      -0.00000113
S        4.59070969       1.24061173       4.67635740       0.00071740      -0.00101018      -0.00123858
S        2.69989578       3.91462557       7.95134210      -0.00071466       0.00100964       0.00123531
S        2.69989579       3.91462550       4.67635698      -0.00071192       0.00100476      -0.00123399
S        4.59070950       1.24061127       7.95134257       0.00070965      -0.00100118       0.00122869
