9
Lattice="4.277364899484321 -2.9915706102286053e-09 2.4695378838648114 1.425788284538927 4.032738411639228 2.4695379054612765 1.2119423711912606e-07 1.1214739679715176e-07 4.939075557815132" Properties=species:S:1:pos:R:3:forces:R:3 energy=-59.44977951049805 free_energy=-59.44977951049805 stress="-0.0001841921912273392 4.7385761092755274e-08 -7.959640413446323e-08 4.7385761092755274e-08 -0.00018391822231933475 -1.0232252378727935e-08 -7.959640413446323e-08 -1.0232252378727935e-08 -0.00018426925817038864" pbc="T T T"
Cr       1.42578757       1.00818379       2.46953802      -0.00000254       0.00000042       0.00000250
Cr       4.27736543       3.02455403       7.40861300      -0.00000046      -0.00000323      -0.00000305
P        0.00000007       0.00000001      -0.00000006       0.00000601       0.00001201       0.00000670
O        1.37599471       0.97297536       4.93907507      -0.00321269      -0.00227308       0.00000164
O        4.32715929       3.05976333       4.93907608       0.00319791       0.00226521       0.00000058
O        3.58936756       0.97297541       3.66118371       0.00160939      -0.00227177      -0.00277483
O        2.11378555       3.05976341       6.21696790      -0.00159836       0.00226617       0.00276518
O        2.11378525       3.05976342       3.66118384      -0.00160116       0.00227547      -0.00276947
O        3.58936782       0.97297555       6.21696809       0.00160241      -0.00226986       0.00276840
