9
Lattice="6.54336406192859 8.099621036086478e-08 3.777812929728955 2.1811214820815015 6.169142707429794 3.7778128401103026 7.437728068923105e-08 -5.716737507257785e-08 7.5556257306327375" Properties=species:S:1:pos:R:3:forces:R:3 energy=-35.427894592285156 free_energy=-35.427894592285156 stress="2.2575344701181166e-05 7.969868320856222e-09 1.6453466367138958e-09 7.969868320856222e-09 2.2560230718227103e-05 4.328752467586128e-09 1.6453466367138958e-09 4.328752467586128e-09 2.25660260184668e-05" pbc="T T T"
Cr       2.18112115       1.54228514       3.77781314      -0.00000121      -0.00000232       0.00000087
Cr       6.54336392       4.62685688      11.33343942       0.00000041      -0.00000074       0.00000369
Pb       0.00000013      -0.00000003       0.00000026       0.00000009      -0.00000002      -0.00000279
Te       2.47354655       1.74906141       7.55562588      -0.00105132      -0.00074312       0.00000039
Te       6.25093914       4.42008176       7.55562568       0.00105000       0.00074299      -0.00000189
Te       5.30659127       1.74906127       5.91996628       0.00052564      -0.00074077      -0.00090836
Te       3.41789468       4.42008170       9.19128458      -0.00052589       0.00074470       0.00090829
Te       3.41789463       4.42008172       5.91996611      -0.00052325       0.00074241      -0.00090906
Te       5.30659098       1.74906115       9.19128474       0.00052548      -0.00074308       0.00090881
