9
Lattice="5.592583720376088 -1.754848818524087e-07 3.2288796720653243 1.8641943868985342 5.272738445023079 3.2288797086314225 -1.896566269140989e-07 -8.93233191020897e-08 6.457759672625622" Properties=species:S:1:pos:R:3:forces:R:3 energy=-42.10660934448242 free_energy=-42.10660934448242 stress="-2.8478661988629028e-05 7.386778833051721e-08 2.066875737227747e-08 7.386778833051721e-08 -2.855838101822883e-05 -9.3099261633256e-09 2.066875737227747e-08 -9.3099261633256e-09 -2.8583992389030755e-05" pbc="T T T"
Cr       1.86419599       1.31818534       3.22888026       0.00000842       0.00000533       0.00000189
Cr       5.59258391       3.95455420       9.68663878       0.00000405       0.00000271      -0.00000372
P       -0.00000006      -0.00000023       0.00000031      -0.00000130       0.00000119      -0.00001073
Se       1.86378667       1.31789621       6.45775983       0.00216579       0.00152877       0.00000011
Se       5.59299090       3.95484194       6.45775977      -0.00216615      -0.00153007       0.00000262
Se       4.66068973       1.31789597       4.84296622      -0.00109033       0.00153473       0.00188026
Se       2.79608735       3.95484174       8.07255233       0.00108162      -0.00153401      -0.00187576
Se       2.79608737       3.95484156       4.84296639       0.00108249      -0.00153865       0.00187957
Se       4.66068979       1.31789599       8.07255227      -0.00108464       0.00153007      -0.00187430
