9
Lattice="5.764993783744902 -9.62324576941413e-09 3.3284206198582726 1.9216645696187413 5.435288340092651 3.328420647380596 -2.0812521686140804e-08 1.899113899722225e-08 6.656841275764899" Properties=species:S:1:pos:R:3:forces:R:3 energy=-42.94028091430664 free_energy=-42.94028091430664 stress="-0.00024984238552860916 9.462840289131691e-09 -6.815136011084633e-09 9.462840289131691e-09 -0.00024986150674521923 1.73340577447334e-08 -6.815136011084633e-09 1.73340577447334e-08 -0.000249807519139722" pbc="T T T"
Cr       1.92166502       1.35882229       3.32842037       0.00000174       0.00000082      -0.00000191
Cr       5.76499328       4.07646628       9.98526112      -0.00000240      -0.00000125      -0.00000454
Pt      -0.00000014      -0.00000023      -0.00000026       0.00000170       0.00000324       0.00000372
Se       1.98679381       1.40487536       6.65684152      -0.00702959      -0.00497031       0.00000205
Se       5.69986474       4.03041299       6.65684186       0.00702667       0.00496870       0.00000398
Se       4.77159675       1.40487531       5.04903449       0.00351328      -0.00497030      -0.00608903
Se       2.91506153       4.03041313       8.26464847      -0.00351122       0.00496858       0.00608611
Se       2.91506141       4.03041301       5.04903429      -0.00351276       0.00496776      -0.00608641
Se       4.77159692       1.40487522       8.26464831       0.00351271      -0.00496727       0.00608608
