9
Lattice="5.593867763635779 1.4981847157340382e-08 3.2296211049107146 1.864622591449077 5.273949365224901 3.2296211231917407 -2.5757378484910062e-08 4.176325419959436e-09 6.459242254434562" Properties=species:S:1:pos:R:3:forces:R:3 energy=-42.106597900390625 free_energy=-42.106597900390625 stress="0.0003007737686857581 -1.792567871916617e-08 -1.9677268703333084e-09 -1.792567871916617e-08 0.00030076183611527085 -2.401228105242126e-10 -1.9677268703333084e-09 -2.401228105242126e-10 0.0003007619525305927" pbc="T T T"
Cr       1.86462258       1.31848783       3.22962081      -0.00000064       0.00000221      -0.00000289
Cr       5.59386761       3.95546210       9.68886257       0.00000011       0.00000171      -0.00000293
P        0.00000013       0.00000023      -0.00000088      -0.00000579      -0.00000421       0.00001739
Se       1.86415931       1.31815957       6.45924229      -0.00124285      -0.00087945       0.00000138
Se       5.59433094       3.95578937       6.45924242       0.00125003       0.00088213       0.00000054
Se       4.66178813       1.31815969       4.84403087       0.00062683      -0.00088663      -0.00108409
Se       2.79670249       3.95578958       8.07445455      -0.00061995       0.00087683       0.00107718
Se       2.79670203       3.95578951       4.84403087      -0.00062750       0.00088522      -0.00108331
Se       4.66178815       1.31815962       8.07445445       0.00061989      -0.00087787       0.00107664
