9
Lattice="5.466884340416408 1.534157255159885e-08 3.1563071465835875 1.8222947902553492 5.154228015248905 3.1563071541139025 2.459822123834432e-09 1.0962069560200134e-08 6.3126142889066355" Properties=species:S:1:pos:R:3:forces:R:3 energy=-45.74432373046875 free_energy=-45.74432373046875 stress="-0.0001068451747414656 -1.0583505627437262e-08 1.3264994436212874e-08 -1.0583505627437262e-08 -0.00010683055006666109 -2.65652522202231e-09 1.3264994436212874e-08 -2.65652522202231e-09 -0.0001068200363079086" pbc="T T T"
Cr       1.82229482       1.28855703       3.15630715      -0.00000187      -0.00000001       0.00000088
Cr       5.46688439       3.86567105       9.46892150       0.00000228       0.00000130       0.00000055
P       -0.00000002       0.00000009      -0.00000021       0.00000003      -0.00000365       0.00000261
S        1.75435445       1.24051599       6.31261430      -0.00073946      -0.00052345      -0.00000031
S        5.53482458       3.91371200       6.31261433       0.00074220       0.00052398       0.00000043
S        4.58970710       1.24051598       4.67562271       0.00036949      -0.00052470      -0.00064105
S        2.69947200       3.91371216       7.94960588      -0.00037158       0.00052464       0.00064093
S        2.69947208       3.91371202       4.67562275      -0.00037318       0.00052625      -0.00064456
S        4.58970715       1.24051586       7.94960594       0.00037169      -0.00052488       0.00064033
