9
Lattice="5.51923189227319 1.1601939168397287e-08 3.1865299309793653 1.8397439683832002 5.203581596413535 3.1865299424910756 -2.9864228761015635e-08 -7.018305752111369e-09 6.373059913685083" Properties=species:S:1:pos:R:3:forces:R:3 energy=-45.595516204833984 free_energy=-45.595516204833984 stress="-1.1420891496527474e-05 3.976835216690233e-08 1.0886824775013793e-08 3.976835216690233e-08 -1.149267700384371e-05 -2.4270706333595626e-08 1.0886824775013793e-08 -2.4270706333595626e-08 -1.1535591511346865e-05" pbc="T T T"
Cr       1.83974442       1.30089587       3.18652961       0.00000379       0.00000320      -0.00000133
Cr       5.51923199       3.90268577       9.55958986      -0.00000039      -0.00000241      -0.00000164
Pt       0.00000005       0.00000006       0.00000026      -0.00000030      -0.00000081      -0.00000735
S        1.87573410       1.32634474       6.37305996      -0.00280756      -0.00198418       0.00000078
S        5.48324167       3.87723686       6.37305981       0.00280815       0.00198460       0.00000124
S        4.58136480       1.32634433       4.81096330       0.00140062      -0.00198179      -0.00242746
S        2.77761093       3.87723704       7.93515646      -0.00140339       0.00198364       0.00243169
S        2.77761098       3.87723717       4.81096336      -0.00140330       0.00198251      -0.00242901
S        4.58136432       1.32634455       7.93515656       0.00140256      -0.00198466       0.00243354
