9
Lattice="4.547036655370233 -2.6870667564445328e-08 2.625232842706427 1.5156788738579943 4.286987287225795 2.6252328183390854 1.2178867379147038e-08 -2.1232015958857412e-08 5.2504656643184475" Properties=species:S:1:pos:R:3:forces:R:3 energy=-51.03492736816406 free_energy=-51.03492736816406 stress="-0.0006290041492320597 -4.966804922901247e-08 -1.7322856038504142e-08 -4.966804922901247e-08 -0.0006286969874054193 2.497155371372628e-09 -1.7322856038504142e-08 2.497155371372628e-09 -0.0006287753931246698" pbc="T T T"
Cr       1.51567952       1.07174537       2.62523220       0.00000762      -0.00001899      -0.00000624
Cr       4.54703759       3.21524288       7.87569903       0.00001351       0.00003328       0.00000730
Pt      -0.00000001       0.00000011      -0.00000017       0.00000480      -0.00000472      -0.00001033
O        1.56696643       1.10801167       5.25046591       0.00057751       0.00039710       0.00000394
O        4.49574950       3.17897516       5.25046471      -0.00057459      -0.00040326      -0.00000759
O        3.76355341       1.10801099       3.98226594      -0.00029175       0.00039005       0.00050482
O        2.29916174       3.17897585       6.51866547       0.00027861      -0.00039005      -0.00049947
O        2.29916157       3.17897500       3.98226540       0.00028259      -0.00039957       0.00049719
O        3.76355245       1.10801192       6.51866673      -0.00029860       0.00039603      -0.00048959
