9
Lattice="5.695572114641798 4.537404739472354e-08 3.2883401174118467 1.8985240808170474 5.369836801628953 3.288340117716597 1.0104960618721745e-07 7.182609392954643e-08 6.576680059800618" Properties=species:S:1:pos:R:3:forces:R:3 energy=-40.16080856323242 free_energy=-40.16080856323242 stress="9.721131937112659e-05 -1.6568700189623087e-08 -1.4667073777729911e-08 -1.6568700189623087e-08 9.7169671789743e-05 -1.8855361716418884e-09 -1.4667073777729911e-08 -1.8855361716418884e-09 9.723490802571177e-05" pbc="T T T"
Cr       1.89852373       1.34245991       3.28834006      -0.00000231       0.00000108       0.00000070
Cr       5.69557241       4.02737744       9.86502071       0.00000116       0.00000049       0.00000234
Pb       0.00000009       0.00000008      -0.00000040      -0.00000132      -0.00000046       0.00000276
S        2.08015974       1.47089470       6.57668014      -0.00034043      -0.00024132       0.00000086
S        5.51393663       3.89894195       6.57668015       0.00034335       0.00024126      -0.00000095
S        4.65549220       1.47089516       5.08981115       0.00017266      -0.00024226      -0.00029811
S        2.93860396       3.89894196       8.06354914      -0.00017266       0.00024143       0.00029591
S        2.93860379       3.89894171       5.08981122      -0.00017254       0.00024223      -0.00029832
S        4.65549259       1.47089473       8.06354909       0.00017197      -0.00024244       0.00029482
