9
Lattice="5.814756199067564 1.1534659877371413e-08 3.3571509569464717 1.9382520573355122 5.482204437323119 3.357150991406169 -6.807287469705459e-08 -5.930431940571724e-09 6.714302031798603" Properties=species:S:1:pos:R:3:forces:R:3 energy=-41.53445053100586 free_energy=-41.53445053100586 stress="-7.493353768950328e-05 -1.0298468744451839e-08 7.434641235981587e-10 -1.0298468744451839e-08 -7.497075421269983e-05 -2.8070315849504368e-08 7.434641235981587e-10 -2.8070315849504368e-08 -7.493964221794158e-05" pbc="T T T"
Cr       1.93825145       1.37055108       3.35715146      -0.00000268      -0.00000044       0.00000157
Cr       5.81475598       4.11165267      10.07145399      -0.00000269      -0.00000289       0.00000548
Pd      -0.00000011      -0.00000005       0.00000028      -0.00000165       0.00000091      -0.00000396
Se       2.02353692       1.43085678       6.71430204      -0.00143367      -0.00101349      -0.00000031
Se       5.72947118       4.05134770       6.71430146       0.00143483       0.00101367      -0.00000274
Se       4.80298799       1.43085706       5.10958514       0.00071816      -0.00101110      -0.00124127
Se       2.95002068       4.05134806       8.31901810      -0.00071584       0.00101480       0.00123996
Se       2.95002080       4.05134772       5.10958523      -0.00071450       0.00101250      -0.00124025
Se       4.80298777       1.43085674       8.31901810       0.00071810      -0.00101396       0.00124148
