9
Lattice="4.782329585821383 -6.197776471399805e-09 2.7610793292924107 1.5941098065566137 4.508823765762443 2.761079415099135 -1.0078759632190654e-07 3.382374933286601e-08 5.522158833154057" Properties=species:S:1:pos:R:3:forces:R:3 energy=-47.59424591064453 free_energy=-47.59424591064453 stress="-0.0006091592367738485 -4.0381564758718014e-08 -5.105847744601988e-09 -4.0381564758718014e-08 -0.0006091572577133775 -3.5121143326932724e-08 -5.105847744601988e-09 -3.5121143326932724e-08 -0.0006091195973567665" pbc="T T T"
Cr       1.59411039       1.12720527       2.76108011       0.00000428      -0.00000476       0.00000383
Cr       4.78233018       3.38161858       8.28323896       0.00000563       0.00000551       0.00000927
Pb      -0.00000003       0.00000022      -0.00000020       0.00000399      -0.00000929       0.00001691
O        1.68047513       1.18827608       5.52215853       0.00516176       0.00365187      -0.00000142
O        4.69596370       3.32054786       5.52215833      -0.00516239      -0.00364809      -0.00000612
O        3.94209089       1.18827540       4.21641374      -0.00258575       0.00364566       0.00446615
O        2.43434744       3.32054840       6.82790320       0.00258113      -0.00364842      -0.00447524
O        2.43434783       3.32054834       4.21641448       0.00257860      -0.00364193       0.00446528
O        3.94209155       1.18827504       6.82790321      -0.00258744       0.00364967      -0.00447908
