9
Lattice="5.487346993405765 8.661516615707172e-10 3.168121229318702 1.8291156274679765 5.173520290684176 3.1681212948200725 -1.2850258560030048e-08 7.113594932325025e-08 6.33624248089471" Properties=species:S:1:pos:R:3:forces:R:3 energy=-46.78973388671875 free_energy=-46.78973388671875 stress="-6.6391185100656e-05 -2.0599559391598632e-08 2.0052674187809316e-08 -2.0599559391598632e-08 -6.641414802288637e-05 -2.7916632561186816e-08 2.0052674187809316e-08 -2.7916632561186816e-08 -6.638624472543597e-05" pbc="T T T"
Cr       1.82911604       1.29337935       3.16812178       0.00000153      -0.00000596       0.00000475
Cr       5.48734687       3.88014024       9.50436383      -0.00000168       0.00000202       0.00000193
Rh      -0.00000010      -0.00000031       0.00000021      -0.00000034       0.00000264       0.00000115
S        1.86968044       1.32206356       6.33624242      -0.00250530      -0.00177372      -0.00000171
S        5.44678220       3.85145719       6.33624238       0.00250340       0.00177324      -0.00000118
S        4.55250647       1.32206374       4.78731192       0.00125286      -0.00177318      -0.00217247
S        2.76395577       3.85145712       7.88517263      -0.00125194       0.00177294       0.00216812
S        2.76395603       3.85145644       4.78731186      -0.00125313       0.00177467      -0.00217342
S        4.55250672       1.32206409       7.88517295       0.00125435      -0.00177228       0.00217271
