9
Lattice="5.745759819172765 2.52214821728597e-08 3.317315960446269 1.9152532970208893 5.417154381100628 3.317315960127116 4.266750957009121e-09 2.6261706036307278e-09 6.634631913502284" Properties=species:S:1:pos:R:3:forces:R:3 energy=-46.04214859008789 free_energy=-46.04214859008789 stress="-0.00017424974066670984 1.0162645835976036e-08 1.2289605777482393e-08 1.0162645835976036e-08 -0.00017423379176761955 -2.26131313674216e-09 1.2289605777482393e-08 -2.26131313674216e-09 -0.00017423575627617538" pbc="T T T"
Cr       1.91525336       1.35428936       3.31731605       0.00000169       0.00000447       0.00000051
Cr       5.74575957       4.06286498       9.95194859      -0.00000197      -0.00000456       0.00000196
Ru      -0.00000009       0.00000000      -0.00000025      -0.00000025       0.00000008       0.00000191
Se       1.97243019       1.39471927       6.63463196      -0.00212872      -0.00150336       0.00000003
Se       5.68858290       4.02243527       6.63463181       0.00212990       0.00150385      -0.00000022
Se       4.75954471       1.39471913       5.02549045       0.00106350      -0.00150371      -0.00184488
Se       2.90146831       4.02243565       8.24377319      -0.00106300       0.00150286       0.00184245
Se       2.90146879       4.02243512       5.02549030      -0.00106417       0.00150241      -0.00184517
Se       4.75954472       1.39471884       8.24377322       0.00106310      -0.00150207       0.00184363
