9
Lattice="6.210959836705833 1.6601118755841527e-07 3.585899203202293 2.070320089497773 5.855749184706982 3.5858992250048267 1.2952051268415886e-09 2.7618360643355615e-08 7.171798404161252" Properties=species:S:1:pos:R:3:forces:R:3 energy=-46.00692367553711 free_energy=-46.00692367553711 stress="-0.0002627601788844913 9.009681178895335e-08 -1.2308967178853436e-08 9.009681178895335e-08 -0.00026282595354132354 2.562517531501385e-09 -1.2308967178853436e-08 2.562517531501385e-09 -0.0002628945221658796" pbc="T T T"
Cr       2.07031924       1.46393725       3.58589923      -0.00000390      -0.00000056      -0.00000128
Cr       6.21095963       4.39181232      10.75769757      -0.00000272       0.00000122      -0.00000291
Re      -0.00000025      -0.00000030      -0.00000202       0.00000522       0.00000446       0.00003248
Te       2.13906397       1.51254626       7.17179877      -0.00398472      -0.00281934       0.00000156
Te       6.14221662       4.34320306       7.17179857       0.00397916       0.00281321       0.00000245
Te       5.14142837       1.51254630       5.43838271       0.00199384      -0.00281803      -0.00344865
Te       3.13985156       4.34320376       8.90521515      -0.00197908       0.00280257       0.00343297
Te       3.13985173       4.34320311       5.43838253      -0.00199132       0.00281762      -0.00344858
Te       5.14142884       1.51254579       8.90521481       0.00198351      -0.00280105       0.00343193
