9
Lattice="5.744497414189326 -5.2914508878977726e-09 3.3165872310559847 1.9148324915915222 5.41596408093884 3.3165871874361588 7.969588242129024e-08 2.930365583494422e-09 6.63317432407466" Properties=species:S:1:pos:R:3:forces:R:3 energy=-44.146881103515625 free_energy=-44.146881103515625 stress="-0.00020638447313103825 -8.024117370553085e-09 -2.725085934685012e-08 -8.024117370553085e-09 -0.00020636958652175963 2.48014853099221e-08 -2.725085934685012e-08 2.48014853099221e-08 -0.00020633311942219734" pbc="T T T"
Cr       1.91483261       1.35399112       3.31658729      -0.00000134      -0.00000204       0.00000008
Cr       5.74449721       4.06197313       9.94976119       0.00000045       0.00000108      -0.00000036
Rh      -0.00000003      -0.00000025      -0.00000006      -0.00000042       0.00000391       0.00000051
Se       1.98159343       1.40119770       6.63317455      -0.00204921      -0.00144848      -0.00000026
Se       5.67773676       4.01476621       6.63317442       0.00204743       0.00144704      -0.00000027
Se       4.75370068       1.40119808       5.03269745       0.00102548      -0.00145034      -0.00177668
Se       2.90562946       4.01476633       8.23365161      -0.00102387       0.00144924       0.00177477
Se       2.90562917       4.01476603       5.03269736      -0.00102312       0.00144748      -0.00177276
Se       4.75370070       1.40119792       8.23365120       0.00102451      -0.00144790       0.00177507
