9
Lattice="5.8451169757440615 2.925022960479532e-08 3.3746798561594993 1.948372333490497 5.510829273584375 3.374679889648555 -4.66247411263483e-08 8.046850303798138e-09 6.749359793075459" Properties=species:S:1:pos:R:3:forces:R:3 energy=-49.41468048095703 free_energy=-49.41468048095703 stress="-2.4886132450774312e-05 -2.0359461672114776e-08 2.666983611732121e-08 -2.0359461672114776e-08 -2.4849439796525985e-05 -4.655097640693384e-08 2.666983611732121e-08 -4.655097640693384e-08 -2.4843200662871823e-05" pbc="T T T"
Cr       1.94837156       1.37770785       3.37468000      -0.00000340       0.00000400       0.00000083
Cr       5.84511676       4.13312241      10.12403946      -0.00000242       0.00000254      -0.00000057
Re      -0.00000019      -0.00000010      -0.00000007       0.00000342       0.00000004       0.00000161
Se       1.99373431       1.40978281       6.74935967      -0.00151861      -0.00107571       0.00000073
Se       5.79975534       4.10104634       6.74935986       0.00151759       0.00106958       0.00000088
Se       4.84825016       1.40978273       5.10130450       0.00076112      -0.00107349      -0.00131199
Se       2.94523937       4.10104635       8.39741519      -0.00075795       0.00107189       0.00131491
Se       2.94523979       4.10104584       5.10130440      -0.00076109       0.00107563      -0.00132069
Se       4.84824995       1.40978297       8.39741525       0.00076146      -0.00107440       0.00131449
