9
Lattice="5.4873529101312055 1.5071999842277966e-08 3.168124748224837 1.8291176510689309 5.17352598665139 3.1681247479676014 -1.631122945315991e-08 -1.184881479929651e-08 6.336249524701559" Properties=species:S:1:pos:R:3:forces:R:3 energy=-46.78973388671875 free_energy=-46.78973388671875 stress="-7.69875623518601e-05 3.5319168034675386e-08 1.4102009338046173e-08 3.5319168034675386e-08 -7.700000423938036e-05 1.9871500001045206e-08 1.4102009338046173e-08 1.9871500001045206e-08 -7.703215669607744e-05" pbc="T T T"
Cr       1.82911820       1.29338165       3.16812509       0.00000408       0.00000073       0.00000195
Cr       5.48735251       3.88014434       9.50437263      -0.00000364      -0.00000036      -0.00001065
Rh       0.00000006       0.00000005      -0.00000018      -0.00000121      -0.00000062       0.00000076
S        1.86963903       1.32203437       6.33624950      -0.00181001      -0.00128108      -0.00000059
S        5.44683134       3.85149150       6.33625051       0.00181198       0.00128245       0.00000673
S        4.55253307       1.32203431       4.78727983       0.00090271      -0.00128239      -0.00156844
S        2.76393747       3.85149157       7.88521957      -0.00090206       0.00127876       0.00156945
S        2.76393706       3.85149138       4.78727968      -0.00090614       0.00127876      -0.00156832
S        4.55253349       1.32203479       7.88521969       0.00090435      -0.00127649       0.00156891
