9
Lattice="4.564056155555118 3.597694150873399e-08 2.635058966927962 1.5213520503976228 4.303033568253451 2.6350590281966078 -8.784670408949825e-08 1.2921451086762574e-08 5.2701180860108945" Properties=species:S:1:pos:R:3:forces:R:3 energy=-52.06393051147461 free_energy=-52.06393051147461 stress="-0.0004486758843995631 1.70443286151567e-08 4.490621208219636e-08 1.70443286151567e-08 -0.0004486918624024838 7.485149922104029e-08 4.490621208219636e-08 7.485149922104029e-08 -0.00044868525583297014" pbc="T T T"
Cr       1.52135415       1.07576003       2.63506175       0.00002837       0.00002201       0.00003715
Cr       4.56405670       3.22727454       7.90517535       0.00001164      -0.00000750      -0.00002584
Rh      -0.00000007       0.00000016      -0.00000013       0.00000365       0.00000424       0.00000410
O        1.55723185       1.10112999       5.27011671       0.00372490       0.00264332      -0.00001834
O        4.52817612       3.20190380       5.27011894      -0.00373387      -0.00264284       0.00001085
O        3.78543838       1.10112954       3.98366067      -0.00188860       0.00263643       0.00321886
O        2.29996822       3.20190349       6.55657510       0.00186977      -0.00264680      -0.00322849
O        2.29996715       3.20190331       3.98366156       0.00184985      -0.00265196       0.00323209
O        3.78544000       1.10112969       6.55657420      -0.00186583       0.00264299      -0.00323063
