9
Lattice="4.622644651329708 -5.4229186356201927e-08 2.668885120538156 1.5408815237306202 4.358271126820437 2.6688850782498776 3.2346668549628005e-08 -2.8919805973068122e-08 5.337770185050244" Properties=species:S:1:pos:R:3:forces:R:3 energy=-57.08448791503906 free_energy=-57.08448791503906 stress="0.00042869074968621135 9.430332426063615e-08 -1.609606847807754e-08 9.430332426063615e-08 0.0004286868788767606 -6.21247551180204e-08 -1.609606847807754e-08 -6.21247551180204e-08 0.00042873385245911777" pbc="T T T"
Cr       1.54088240       1.08956838       2.66888496       0.00000589       0.00000624       0.00000079
Cr       4.62264465       3.26870284       8.00665568      -0.00000070      -0.00000504       0.00000272
Ru       0.00000020      -0.00000004      -0.00000013       0.00000310      -0.00000374       0.00000663
O        1.51702532       1.07269912       5.33777001      -0.00384361      -0.00271839       0.00000117
O        4.64650087       3.28557201       5.33776986       0.00384176       0.00271484      -0.00000412
O        3.86413164       1.07269889       3.98266707       0.00191760      -0.00271216      -0.00332671
O        2.29939432       3.28557196       6.69287318      -0.00191855       0.00271249       0.00332773
O        2.29939362       3.28557190       3.98266760      -0.00192532       0.00271979      -0.00333291
O        3.86413186       1.07269911       6.69287315       0.00191894      -0.00271389       0.00332481
