9
Lattice="5.484154221745736 2.4904649987771256e-09 3.1662777844099406 1.8280514078482648 5.170510267890452 3.1662777874382173 -6.728086802316372e-08 -4.38659306768101e-08 6.332555685353841" Properties=species:S:1:pos:R:3:forces:R:3 energy=-48.45073699951172 free_energy=-48.45073699951172 stress="-0.000100368466519285 -4.5329979769803685e-09 -1.0355324597810522e-08 -4.5329979769803685e-09 -0.00010035514424089342 9.734158368246426e-09 -1.0355324597810522e-08 9.734158368246426e-09 -0.00010039246990345418" pbc="T T T"
Cr       1.82805077       1.29262781       3.16627810      -0.00000475       0.00000201       0.00000219
Cr       5.48415489       3.87788251       9.49883392       0.00000459      -0.00000198       0.00000278
Ru       0.00000019      -0.00000005       0.00000024       0.00000148       0.00000047       0.00000152
S        1.87908179       1.32871170       6.33255581      -0.00312126      -0.00220478      -0.00000075
S        5.43312351       3.84179863       6.33255552       0.00312018       0.00220394      -0.00000153
S        4.54461348       1.32871155       4.79361012       0.00156036      -0.00220448      -0.00270140
S        2.76759198       3.84179881       7.87150054      -0.00156146       0.00220692       0.00269961
S        2.76759201       3.84179850       4.79361009      -0.00156096       0.00220335      -0.00270122
S        4.54461355       1.32871146       7.87150056       0.00156203      -0.00220555       0.00269878
