9
Lattice="5.745718967480789 3.8160828836943235e-08 3.317292334586442 1.9152396425333433 5.417115962450524 3.3172924199279596 -1.2092562270713851e-08 9.597085416548712e-08 6.634584690117802" Properties=species:S:1:pos:R:3:forces:R:3 energy=-46.04214859008789 free_energy=-46.04214859008789 stress="-0.00017350923735648394 -1.6795874691055701e-09 -8.68607497039875e-09 -1.6795874691055701e-09 -0.00017354130977764726 2.7038224104103392e-08 -8.68607497039875e-09 2.7038224104103392e-08 -0.00017352798022329807" pbc="T T T"
Cr       1.91523992       1.35427906       3.31729260       0.00000077       0.00000002       0.00000259
Cr       5.74571899       4.06283732       9.95187692       0.00000196       0.00000007      -0.00000235
Ru      -0.00000002       0.00000013       0.00000026       0.00000060      -0.00000226      -0.00000152
Se       1.97245643       1.39473725       6.63458457      -0.00269650      -0.00190859      -0.00000102
Se       5.68850205       4.02237875       6.63458485       0.00269789       0.00190715       0.00000136
Se       4.75949082       1.39473733       5.02548981       0.00134859      -0.00190680      -0.00233480
Se       2.90146767       4.02237867       8.24367936      -0.00135113       0.00190940       0.00233886
Se       2.90146763       4.02237854       5.02548987      -0.00134983       0.00190572      -0.00233699
Se       4.75949090       1.39473734       8.24367955       0.00134778      -0.00190486       0.00233403
