9
Lattice="4.616158391293823 9.215767787694865e-08 2.665140294060559 1.538719559061385 4.352155742352763 2.6651402794945613 6.007281430547309e-08 2.4638251157109093e-08 5.330280484071951" Properties=species:S:1:pos:R:3:forces:R:3 energy=-63.724571228027344 free_energy=-63.724571228027344 stress="0.0006081713945604861 4.2190318794155246e-08 -4.123399222066837e-08 4.2190318794155246e-08 0.000608064525295049 -4.095815242521894e-08 -4.123399222066837e-08 -4.095815242521894e-08 0.0006080812308937311" pbc="T T T"
Cr       1.53871988       1.08803809       2.66514019       0.00000761      -0.00001142      -0.00000466
Cr       4.61615959       3.26411633       7.99541986       0.00000928      -0.00000799      -0.00000948
Re       0.00000010       0.00000002      -0.00000026      -0.00000121       0.00000251       0.00001154
O        1.53872247       1.08804184       5.33028080      -0.00563097      -0.00397348       0.00000200
O        4.61615449       3.26411535       5.33028094       0.00562191       0.00398505       0.00000289
O        3.84679703       1.08804129       3.99771364       0.00281161      -0.00397861      -0.00486791
O        2.30808095       3.26411453       6.66284781      -0.00280958       0.00397444       0.00486374
O        2.30808067       3.26411437       3.99771332      -0.00281835       0.00397873      -0.00486708
O        3.84679701       1.08804169       6.66284794       0.00281030      -0.00397027       0.00487006
