9
Lattice="5.4841944999203545 -3.470757581417558e-08 3.1663011272651684 1.8280648044049612 5.1705480271694135 3.1663011206474185 -4.1819389852855225e-09 -1.1062183441778458e-08 6.332602261773698" Properties=species:S:1:pos:R:3:forces:R:3 energy=-48.45073699951172 free_energy=-48.45073699951172 stress="-8.533301297575235e-05 2.7398341373441326e-09 1.6959392112880778e-08 2.7398341373441326e-09 -8.535374217899516e-05 -3.8004186464490886e-09 1.6959392112880778e-08 -3.8004186464490886e-09 -8.528398029739037e-05" pbc="T T T"
Cr       1.82806381       1.29263658       3.16630170      -0.00000605      -0.00000261       0.00000322
Cr       5.48419486       3.87791113       9.49890354       0.00000311       0.00000053       0.00000129
Ru       0.00000008       0.00000011       0.00000046      -0.00000036       0.00000013       0.00000170
S        1.87910768       1.32873001       6.33260206      -0.00352377      -0.00249046      -0.00000100
S        5.43315166       3.84181802       6.33260222       0.00352305       0.00249070      -0.00000077
S        4.54464065       1.32872974       4.79365632       0.00176239      -0.00249177      -0.00305104
S        2.76761870       3.84181850       7.87154794      -0.00176030       0.00249189       0.00304854
S        2.76761874       3.84181830       4.79365619      -0.00176209       0.00249350      -0.00305110
S        4.54464105       1.32872946       7.87154779       0.00176376      -0.00249189       0.00304872
