9
Lattice="4.563881032143419 -4.3735692453288566e-08 2.63495798723773 1.521293652777215 4.302868206814776 2.6349579584328824 1.289201771390685e-08 -2.6162569427212706e-08 5.269915952145851" Properties=species:S:1:pos:R:3:forces:R:3 energy=-52.06392288208008 free_energy=-52.06392288208008 stress="-0.0005516097880899906 6.087746839966712e-08 5.740428132838815e-09 6.087746839966712e-08 -0.0005514088552445173 5.1008221646497987e-08 5.740428132838815e-09 5.1008221646497987e-08 -0.0005514682270586491" pbc="T T T"
Cr       1.52129566       1.07571636       2.63495703       0.00002626      -0.00000766      -0.00001461
Cr       4.56388065       3.22715142       7.90487209      -0.00000471       0.00000406      -0.00002723
Rh      -0.00000001       0.00000005      -0.00000008       0.00000224      -0.00000232      -0.00000314
O        1.55717008       1.10108547       5.26991543       0.00500461       0.00353712      -0.00000103
O        4.52800401       3.20178348       5.26991712      -0.00501224      -0.00352958       0.00001790
O        3.78529607       1.10108499       3.98350737      -0.00250696       0.00353169       0.00433874
O        2.29987862       3.20178210       6.55632554       0.00250442      -0.00354227      -0.00432509
O        2.29987912       3.20178306       3.98350693       0.00250335      -0.00353405       0.00433522
O        3.78529453       1.10108563       6.55632612      -0.00251691       0.00354302      -0.00432026
