9
Lattice="4.623633372608271 -3.4451178203760677e-08 2.669456024818432 1.5412111238924564 4.359203181178166 2.6694559690973554 2.157046429868907e-08 -5.299147045165001e-08 5.338912012275719" Properties=species:S:1:pos:R:3:forces:R:3 energy=-57.084468841552734 free_energy=-57.084468841552734 stress="0.0005323344375938177 9.500519126959261e-08 7.14193433282162e-08 9.500519126959261e-08 0.0005320907803252339 -4.723122160044113e-08 7.14193433282162e-08 -4.723122160044113e-08 0.0005321420030668378" pbc="T T T"
Cr       1.54121087       1.08979981       2.66945755      -0.00000093      -0.00001023       0.00001344
Cr       4.62363486       3.26940116       8.00836724       0.00001330      -0.00001403      -0.00000300
Ru      -0.00000008      -0.00000013       0.00000010       0.00000002      -0.00000305       0.00000286
O        1.51694244       1.07264136       5.33891108      -0.00004023      -0.00001830      -0.00001093
O        4.64790119       3.28656283       5.33891284       0.00003695       0.00003070       0.00000717
O        3.86516204       1.07264130       3.98316678       0.00001463      -0.00001514      -0.00003141
O        2.29968243       3.28656283       6.69465633      -0.00001872       0.00002521       0.00002390
O        2.29968240       3.28656297       3.98316756      -0.00002158       0.00002807      -0.00002807
O        3.86516194       1.07264026       6.69465654       0.00001615      -0.00002307       0.00002527
