9
Lattice="5.744470843481936 -1.7243630204428096e-08 3.316571771125764 1.914823583478095 5.415939017637769 3.316571796688126 -3.304259667752225e-08 7.94270986167121e-09 6.633143599482974" Properties=species:S:1:pos:R:3:forces:R:3 energy=-44.146881103515625 free_energy=-44.146881103515625 stress="-0.00020005390979349613 2.86257453296912e-08 -2.1580895293027424e-08 2.86257453296912e-08 -0.00020006355771329254 3.0214511781423425e-08 -2.1580895293027424e-08 3.0214511781423425e-08 -0.00020011946617159992" pbc="T T T"
Cr       1.91482294       1.35398452       3.31657182      -0.00000310      -0.00000296       0.00000096
Cr       5.74447038       4.06195428       9.94971495      -0.00000392       0.00000075      -0.00000438
Rh       0.00000003      -0.00000006       0.00000037       0.00000160       0.00000091      -0.00000040
Se       1.98163682       1.40122854       6.63314361      -0.00278005      -0.00196648       0.00000023
Se       5.67765787       4.01471044       6.63314382       0.00278001       0.00196482       0.00000093
Se       4.75365265       1.40122859       5.03271938       0.00139097      -0.00196517      -0.00240476
Se       2.90564217       4.01471044       8.23356770      -0.00138842       0.00196591       0.00240667
Se       2.90564197       4.01471045       5.03271933      -0.00138678       0.00196394      -0.00240338
Se       4.75365276       1.40122884       8.23356772       0.00138967      -0.00196178       0.00240405
