9
Lattice="5.5849839288919085 -5.192496319129819e-08 3.2244919646492303 1.8616612946913687 5.265573292926681 3.2244919057317643 4.324305721995763e-08 -4.158147218376085e-08 6.448983854399341" Properties=species:S:1:pos:R:3:forces:R:3 energy=-52.90621566772461 free_energy=-52.90621566772461 stress="0.0003596240421757102 2.741337823408685e-09 4.915605700261949e-09 2.741337823408685e-09 0.00035963859409093857 -1.3246534535937826e-08 4.915605700261949e-09 -1.3246534535937826e-08 0.0003595780290197581" pbc="T T T"
Cr       1.86166168       1.31639315       3.22449220       0.00000199       0.00000075       0.00000134
Cr       5.58498396       3.94917994       9.67347679      -0.00000072      -0.00000130       0.00000588
Re       0.00000007      -0.00000002      -0.00000027      -0.00000055       0.00000125       0.00000149
S        1.89168367       1.33762241       6.44898386      -0.00731927      -0.00517416      -0.00000072
S        5.55496159       3.92795072       6.44898352       0.00731945       0.00517553      -0.00000231
S        4.63914202       1.33762225       4.86273800       0.00365832      -0.00517410      -0.00633973
S        2.80750317       3.92795117       8.03522944      -0.00365952       0.00517493       0.00633478
S        2.80750331       3.92795084       4.86273776      -0.00365737       0.00517356      -0.00633883
S        4.63914166       1.33762229       8.03522966       0.00365752      -0.00517660       0.00633794
