9
Lattice="5.673544572851673 1.2227035015894366e-07 3.2756225502729226 1.8911816267207315 5.349069487876792 3.275622572513761 6.383829294928776e-09 3.1753426977606865e-08 6.551245089488733" Properties=species:S:1:pos:R:3:forces:R:3 energy=-41.966854095458984 free_energy=-41.966854095458984 stress="-0.00022109807468950748 -1.7628186910201293e-08 -1.2929802117866984e-08 -1.7628186910201293e-08 -0.00022114458261057734 5.799214441992717e-09 -1.2929802117866984e-08 5.799214441992717e-09 -0.000221047448576428" pbc="T T T"
Cr       1.89118321       1.33726954       3.27562156       0.00001324       0.00001524      -0.00000692
Cr       5.67354389       4.01180128       9.82686742      -0.00000513      -0.00000836      -0.00000412
Si       0.00000001       0.00000005       0.00000005      -0.00000038      -0.00000025      -0.00000151
Se       1.92563923       1.36163270       6.55124513      -0.00160580      -0.00113333       0.00000158
Se       5.63908684       3.98743656       6.55124527       0.00160761       0.00113295       0.00000197
Se       4.71072504       1.36163310       4.94327507       0.00080096      -0.00113462      -0.00139301
Se       2.85400118       3.98743581       8.15921562      -0.00080388       0.00112827       0.00139822
Se       2.85400123       3.98743641       4.94327492      -0.00080436       0.00113186      -0.00139295
Se       4.71072423       1.36163312       8.15921578       0.00079779      -0.00113179       0.00139678
