9
Lattice="4.351315092417215 4.129229352479785e-09 2.512232667292165 1.4504383928996147 4.1024590229319315 2.5122326242204296 4.341355977229787e-08 -2.2053867656485382e-08 5.0244652593898556" Properties=species:S:1:pos:R:3:forces:R:3 energy=-55.54277420043945 free_energy=-55.54277420043945 stress="-0.00014104849833529443 1.7680271469089348e-07 5.1310070858789913e-08 1.7680271469089348e-07 -0.0001406999072059989 2.1063688393496705e-07 5.1310070858789913e-08 2.1063688393496705e-07 -0.00014108709001448005" pbc="T T T"
Cr       1.45043805       1.02561511       2.51223240      -0.00000095       0.00000202      -0.00000255
Cr       4.35131523       3.07684415       7.53669849      -0.00000091       0.00000053       0.00000295
S        0.00000007      -0.00000024       0.00000037      -0.00000231       0.00001129      -0.00001984
O        1.34590987       0.95170168       5.02446539       0.00357354       0.00253129      -0.00000603
O        4.45584405       3.15075733       5.02446549      -0.00358188      -0.00253057      -0.00000075
O        3.67836061       0.95170166       3.67782421      -0.00179702       0.00254357       0.00310302
O        2.12339314       3.15075695       6.37110603       0.00178754      -0.00253046      -0.00310290
O        2.12339294       3.15075775       3.67782384       0.00180113      -0.00255167       0.00311983
O        3.67836012       0.95170153       6.37110583      -0.00177979       0.00252342      -0.00309169
