9
Lattice="4.601595569674015 -3.14157945566164e-08 2.656732338761491 1.533865158692714 4.33842588055716 2.656732341497273 -4.1570487330559446e-08 -2.6044156286105612e-08 5.313464749525174" Properties=species:S:1:pos:R:3:forces:R:3 energy=-52.99101257324219 free_energy=-52.99101257324219 stress="-9.659196803113446e-05 1.2555773309941287e-07 5.7681972975842655e-08 1.2555773309941287e-07 -9.653429879108444e-05 6.443872280215146e-08 5.7681972975842655e-08 6.443872280215146e-08 -9.686605335446075e-05" pbc="T T T"
Cr       1.53386475       1.08460662       2.65673218      -0.00000394       0.00000453      -0.00000417
Cr       4.60159441       3.25382000       7.97019594      -0.00001203       0.00000508      -0.00001252
Sb       0.00000005      -0.00000005      -0.00000017       0.00000169      -0.00001223       0.00001816
O        1.59966841       1.13113584       5.31346491       0.00041854       0.00029284       0.00000165
O        4.53579281       3.20728943       5.31346520      -0.00041103      -0.00029522       0.00000487
O        3.80176133       1.13113590       4.04208566      -0.00020999       0.00029266       0.00036371
O        2.33369989       3.20728973       6.58484440       0.00021935      -0.00029963      -0.00036263
O        2.33369953       3.20728971       4.04208557       0.00020677      -0.00028962       0.00035799
O        3.80176174       1.13113596       6.58484396      -0.00021046       0.00030208      -0.00036812
