9
Lattice="6.391999516938787 -2.7582682876035416e-08 3.69042267274886 2.130666475381361 6.026434964833065 3.6904226801268263 1.752786600017171e-08 2.1430202150042982e-08 7.38084531513856" Properties=species:S:1:pos:R:3:forces:R:3 energy=-36.593875885009766 free_energy=-36.593875885009766 stress="-0.00016460705955978483 -2.3443643470955067e-08 4.260338748451886e-09 -2.3443643470955067e-08 -0.00016457786841783673 -1.4196496200824527e-09 4.260338748451886e-09 -1.4196496200824527e-09 -0.0001645672309678048" pbc="T T T"
Cr       2.13066668       1.50660906       3.69042259       0.00000271       0.00000129       0.00000071
Cr       6.39199952       4.51982627      11.07126763       0.00000089       0.00000130      -0.00000006
Sn       0.00000015      -0.00000023       0.00000002       0.00000120       0.00000195      -0.00000030
Te       2.31149741       1.63447544       7.38084530      -0.00528967      -0.00373979      -0.00000022
Te       6.21116881       4.39195948       7.38084531       0.00528690       0.00373802      -0.00000060
Te       5.23625052       1.63447547       5.69223845       0.00264414      -0.00374120      -0.00458132
Te       3.28641530       4.39195941       9.06945257      -0.00264461       0.00373960       0.00458124
Te       3.28641506       4.39195926       5.69223832      -0.00264556       0.00373970      -0.00458112
Te       5.23625061       1.63447567       9.06945250       0.00264404      -0.00374083       0.00458172
