9
Lattice="4.276540018412319 1.1973472799869475e-08 2.4690614400118616 1.4255133607313155 4.031960882442216 2.4690614227401086 -1.3297507637964306e-08 -3.0556230230889065e-08 4.93812290305568" Properties=species:S:1:pos:R:3:forces:R:3 energy=-58.77298355102539 free_energy=-58.77298355102539 stress="-7.606671715620905e-05 -2.0256811339436354e-08 6.842033606346831e-09 -2.0256811339436354e-08 -7.611485489178449e-05 -1.396478381820998e-07 6.842033606346831e-09 -1.396478381820998e-07 -7.577497308375314e-05" pbc="T T T"
Cr       1.42551402       1.00799062       2.46906045       0.00000268       0.00000396      -0.00000981
Cr       4.27653951       3.02397075       7.40718504      -0.00000425       0.00000038       0.00000710
Si      -0.00000028      -0.00000006       0.00000020       0.00000908      -0.00000081       0.00000137
O        1.42447416       1.00725536       4.93812300      -0.00097477      -0.00069702      -0.00000345
O        4.27757892       3.02470555       4.93812296       0.00097501       0.00069559       0.00000185
O        3.56430360       1.00725565       3.70269253       0.00048733      -0.00069338      -0.00084567
O        2.13775012       3.02470508       6.17355343      -0.00049174       0.00069350       0.00084996
O        2.13775054       3.02470512       3.70269206      -0.00049019       0.00069118      -0.00085163
O        3.56430244       1.00725529       6.17355352       0.00048631      -0.00069278       0.00085104
