9
Lattice="5.419284099535747 4.46197201371268e-08 3.1288250272412657 1.8064281068791428 5.10934997395055 3.12882497245185 8.495233000188502e-08 -7.032687348758882e-09 6.257649907340746" Properties=species:S:1:pos:R:3:forces:R:3 energy=-45.35799026489258 free_energy=-45.35799026489258 stress="-3.355610533617437e-05 3.2114733983235055e-08 -6.165172372618599e-09 3.2114733983235055e-08 -3.3576576242921874e-05 -1.3574126711546342e-08 -6.165172372618599e-09 -1.3574126711546342e-08 -3.361305425642058e-05" pbc="T T T"
Cr       1.80642862       1.27733767       3.12882509       0.00000540       0.00000167       0.00000227
Cr       5.41928403       3.83201210       9.38647439      -0.00000225      -0.00000149      -0.00000157
Si       0.00000026      -0.00000007       0.00000019      -0.00000457       0.00000321      -0.00000144
S        1.80413512       1.27571598       6.25764978      -0.00028640      -0.00020146      -0.00000137
S        5.42157732       3.83363387       6.25764996       0.00028539       0.00020123       0.00000001
S        4.51721633       1.27571581       4.69125148       0.00013980      -0.00019926      -0.00024796
S        2.70849586       3.83363428       7.82404870      -0.00013965       0.00020117       0.00024438
S        2.70849549       3.83363403       4.69125136      -0.00014096       0.00019658      -0.00024408
S        4.51721614       1.27571644       7.82404873       0.00014317      -0.00020158       0.00025010
