9
Lattice="6.432611460822789 6.21415811035522e-09 3.713870059444521 2.144203808479718 6.064724458653366 3.7138700900209605 1.8677262991376067e-08 5.065515566797125e-08 7.427740086539091" Properties=species:S:1:pos:R:3:forces:R:3 energy=-36.42538833618164 free_energy=-36.42538833618164 stress="-6.762626435374841e-05 1.6765675070473662e-08 -3.5715905788435975e-09 1.6765675070473662e-08 -6.765130819985643e-05 6.0253224631878766e-09 -3.5715905788435975e-09 6.0253224631878766e-09 -6.76449344609864e-05" pbc="T T T"
Cr       2.14420366       1.51618142       3.71386989       0.00000041       0.00000186      -0.00000070
Cr       6.43261150       4.54854255      11.14161101      -0.00000026      -0.00000405       0.00000384
Sb      -0.00000013      -0.00000005       0.00000017       0.00000006       0.00000023      -0.00000029
Te       2.34502334       1.65818216       7.42774017      -0.00363766      -0.00257070       0.00000055
Te       6.23179209       4.40654269       7.42773971       0.00363715       0.00257158      -0.00000254
Te       5.26010009       1.65818230       5.74471969       0.00181918      -0.00256920      -0.00314964
Te       3.31671528       4.40654238       9.11076036      -0.00181945       0.00256984       0.00314905
Te       3.31671544       4.40654249       5.74471966      -0.00181778       0.00257032      -0.00314964
Te       5.26009985       1.65818216       9.11076034       0.00181832      -0.00256994       0.00314933
