9
Lattice="4.6017209494850695 -1.2316570571396072e-08 2.6568049660717743 1.5339069322004812 4.338544246382954 2.656805034226328 -5.4421917668540294e-08 4.498981489110443e-08 5.313610026405064" Properties=species:S:1:pos:R:3:forces:R:3 energy=-52.99101257324219 free_energy=-52.99101257324219 stress="-3.1980089261196554e-05 -3.7476745262665645e-08 -3.525582314978237e-08 -3.7476745262665645e-08 -3.1935018341755494e-05 -8.297251952171791e-08 -3.525582314978237e-08 -8.297251952171791e-08 -3.194759483449161e-05" pbc="T T T"
Cr       1.53390655       1.08463581       2.65680444      -0.00000466      -0.00000243      -0.00000664
Cr       4.60172132       3.25390794       7.97041470       0.00000608      -0.00000324      -0.00000809
Sb       0.00000001      -0.00000002      -0.00000021       0.00000091       0.00000051       0.00000522
O        1.59969823       1.13115778       5.31361024      -0.00007939      -0.00005329       0.00000153
O        4.53592947       3.20738669       5.31361034       0.00007796       0.00005251       0.00000292
O        3.80187196       1.13115738       4.04218466       0.00004208      -0.00005579      -0.00006711
O        2.33375605       3.20738702       6.58503572      -0.00003976       0.00005561       0.00006700
O        2.33375605       3.20738694       4.04218474      -0.00004119       0.00006104      -0.00006640
O        3.80187164       1.13115764       6.58503579       0.00003844      -0.00005513       0.00007343
