9
Lattice="4.590374148070357 -6.961684024547153e-08 2.650253812434964 1.5301246644261588 4.327846236563687 2.650253788120255 4.299309519074635e-08 6.214210994873643e-10 5.3005075504036725" Properties=species:S:1:pos:R:3:forces:R:3 energy=-50.601226806640625 free_energy=-50.601226806640625 stress="0.00026199218700639904 1.2998445697576244e-07 -7.535179946671633e-08 1.2998445697576244e-07 0.0002619638398755342 1.2395743098636558e-08 -7.535179946671633e-08 1.2395743098636558e-08 0.0002621500170789659" pbc="T T T"
Cr       1.53012517       1.08196260       2.65025321       0.00000329       0.00001248      -0.00000569
Cr       4.59037351       3.24588268       7.95076217      -0.00000649      -0.00002225       0.00001063
Sn      -0.00000007       0.00000004       0.00000017       0.00000203       0.00000437      -0.00000097
O        1.64626118       1.16408358       5.30050750      -0.00029838      -0.00019711       0.00000168
O        4.47423759       3.16376284       5.30050708       0.00029171       0.00019968      -0.00000497
O        3.76724306       1.16408347       4.07595758       0.00014603      -0.00019687      -0.00025952
O        2.35325569       3.16376270       6.52505770      -0.00014257       0.00019717       0.00025654
O        2.35325605       3.16376385       4.07595830      -0.00014061       0.00020581      -0.00025034
O        3.76724315       1.16408290       6.52505699       0.00014448      -0.00020337       0.00025308
