9
Lattice="6.173815324725479 2.765347180318976e-08 3.564453980162842 2.0579384637548443 5.8207290958696625 3.5644539869044407 -3.069904388632144e-08 -1.3450768048058674e-08 7.12890801349801" Properties=species:S:1:pos:R:3:forces:R:3 energy=-38.18549346923828 free_energy=-38.18549346923828 stress="-0.0003417845000512898 9.675492407268393e-09 -8.661552364230829e-09 9.675492407268393e-09 -0.0003418148262426257 6.954446796214597e-09 -8.661552364230829e-09 6.954446796214597e-09 -0.00034181878436356783" pbc="T T T"
Cr       2.05793822       1.45518273       3.56445409      -0.00000201       0.00000106       0.00000096
Cr       6.17381584       4.36554655      10.69336166       0.00000311      -0.00000101      -0.00000298
Si       0.00000007      -0.00000021       0.00000013      -0.00000132      -0.00000072      -0.00000144
Te       2.11227535       1.49360462       7.12890789      -0.00380005      -0.00268572      -0.00000124
Te       6.11947845       4.32712458       7.12890808       0.00380103       0.00268678       0.00000149
Te       5.11767769       1.49360422       5.39373823       0.00189919      -0.00268607      -0.00328911
Te       3.11407594       4.32712471       8.86407786      -0.00190047       0.00268677       0.00329090
Te       3.11407578       4.32712484       5.39373824      -0.00190036       0.00268522      -0.00328884
Te       5.11767770       1.49360439       8.86407774       0.00190095      -0.00268628       0.00329015
