9
Lattice="5.6746654946457635 -5.122281658463992e-08 3.2762696889591396 1.8915551031298627 5.350126090390286 3.2762697122703144 -5.750443455613328e-08 -1.2111513237372025e-08 6.552539477518902" Properties=species:S:1:pos:R:3:forces:R:3 energy=-42.12488555908203 free_energy=-42.12488555908203 stress="8.739692566450685e-05 7.75223973903394e-09 8.580117949463784e-09 7.75223973903394e-09 8.732698915991932e-05 -2.576804902787444e-08 8.580117949463784e-09 -2.576804902787444e-08 8.736520248930901e-05" pbc="T T T"
Cr       1.89155487       1.33753159       3.27626953      -0.00000112       0.00000030      -0.00000163
Cr       5.67466531       4.01259351       9.82880926      -0.00000014      -0.00000774      -0.00000162
Sn      -0.00000005      -0.00000006       0.00000013      -0.00000150       0.00000050       0.00000408
S        2.00763113       1.41960996       6.55253914      -0.00012541      -0.00008461       0.00000093
S        5.55858942       3.93051606       6.55253912       0.00012475       0.00008482       0.00000034
S        4.67085000       1.41960986       5.01492919       0.00006399      -0.00008574      -0.00010842
S        2.89537094       3.93051639       8.09014952      -0.00005922       0.00008523       0.00010481
S        2.89537082       3.93051679       5.01492987      -0.00006294       0.00008902      -0.00010553
S        4.67084957       1.41961007       8.09014967       0.00006163      -0.00008181       0.00010741
