9
Lattice="5.919498695109964 1.500180756488738e-08 3.417624171432184 1.9731662505695051 5.580956903291193 3.417624163252821 1.103378768591495e-10 -9.93960951669021e-09 6.835248342673253" Properties=species:S:1:pos:R:3:forces:R:3 energy=-39.262935638427734 free_energy=-39.262935638427734 stress="0.00015730784798506647 1.258011117499791e-08 -3.96411570235955e-09 1.258011117499791e-08 0.00015729111328255385 -8.031999954027924e-09 -3.96411570235955e-09 -8.031999954027924e-09 0.00015729891310911626" pbc="T T T"
Cr       1.97316608       1.39523890       3.41762407      -0.00000101       0.00000041      -0.00000056
Cr       5.91949879       4.18571770      10.25287249      -0.00000048      -0.00000108      -0.00000006
Sb      -0.00000004      -0.00000006      -0.00000013       0.00000056       0.00000151       0.00000217
Se       2.10871192       1.49108453       6.83524834       0.00250629       0.00177280      -0.00000010
Se       5.78395301       4.08987251       6.83524836      -0.00250749      -0.00177348       0.00000009
Se       4.86514277       1.49108451       5.24382226      -0.00125229       0.00177186       0.00217259
Se       3.02752216       4.08987260       8.42667453       0.00125432      -0.00177338      -0.00217369
Se       3.02752223       4.08987250       5.24382231       0.00125341      -0.00177213       0.00217204
Se       4.86514287       1.49108442       8.42667448      -0.00125346       0.00177351      -0.00217257
