9
Lattice="5.613270209195112 -1.2549798700846314e-07 3.2408231200857966 1.8710898861198595 5.292242122522505 3.2408232331735127 -6.824598191041351e-08 9.024643908838183e-08 6.481646358377049" Properties=species:S:1:pos:R:3:forces:R:3 energy=-40.506553649902344 free_energy=-40.506553649902344 stress="0.00032041341182775795 -1.0496016500383121e-07 2.3402179749609786e-08 -1.0496016500383121e-07 0.0003204787499271333 -8.393327988187593e-08 2.3402179749609786e-08 -8.393327988187593e-08 0.0003205868706572801" pbc="T T T"
Cr       1.87108949       1.32306017       3.24082318      -0.00000386      -0.00000401       0.00000011
Cr       5.61326985       3.96918164       9.72246913      -0.00000211       0.00000285      -0.00000087
Se      -0.00000007      -0.00000050       0.00000017      -0.00000166       0.00001949      -0.00000179
S        1.85544232       1.31199515       6.48164649      -0.00464737      -0.00328839       0.00000005
S        5.62891876       3.98024685       6.48164672       0.00463766       0.00327873       0.00000072
S        4.68554902       1.31199589       4.84768411       0.00232917      -0.00329274      -0.00403112
S        2.79881088       3.98024665       8.11560872      -0.00232121       0.00328839       0.00402194
S        2.79881135       3.98024613       4.84768403      -0.00232473       0.00329143      -0.00402689
S        4.68554846       1.31199651       8.11560837       0.00233394      -0.00329620       0.00403816
