9
Lattice="6.432136930777175 -2.1654876541652478e-08 3.7135959657497204 2.144045633377876 6.064276781339819 3.7135959480795275 -3.330290853722551e-09 -2.3996359889008665e-08 7.427191937267675" Properties=species:S:1:pos:R:3:forces:R:3 energy=-36.42537307739258 free_energy=-36.42537307739258 stress="-0.00011900661047548056 3.759029532091063e-09 4.625319238726888e-09 3.759029532091063e-09 -0.00011901450488949195 -1.4654943925052066e-08 4.625319238726888e-09 -1.4654943925052066e-08 -0.00011901567631866783" pbc="T T T"
Cr       2.14404573       1.51606884       3.71359611       0.00000060      -0.00000066       0.00000000
Cr       6.43213714       4.54820716      11.14078844       0.00000016      -0.00000060       0.00000170
Sb       0.00000004       0.00000001       0.00000003      -0.00000039       0.00000134       0.00000252
Te       2.34508084       1.65822277       7.42719197      -0.00576943      -0.00407932       0.00000030
Te       6.23110153       4.40605423       7.42719165       0.00576979       0.00408038      -0.00000072
Te       5.25959647       1.65822284       5.74449540       0.00288362      -0.00407936      -0.00499679
Te       3.31658582       4.40605429       9.10988807      -0.00288408       0.00407898       0.00499415
Te       3.31658625       4.40605417       5.74449546      -0.00288487       0.00407897      -0.00499776
Te       5.25959643       1.65822263       9.10988826       0.00288447      -0.00407962       0.00499655
