9
Lattice="5.917344879665798 -6.178081234213233e-08 3.4163805851456885 1.9724482004861708 5.578926429483405 3.416380644881081 -6.736576743834045e-08 2.5525830897787947e-08 6.832761286972294" Properties=species:S:1:pos:R:3:forces:R:3 energy=-39.262935638427734 free_energy=-39.262935638427734 stress="7.410654507111758e-05 9.406956991142579e-09 1.3662235787137433e-08 9.406956991142579e-09 7.408981036860496e-05 -7.686930536543457e-10 1.3662235787137433e-08 -7.686930536543457e-10 7.414638821501285e-05" pbc="T T T"
Cr       1.97244864       1.39473143       3.41638145       0.00000294      -0.00000105       0.00000468
Cr       5.91734451       4.18419389      10.24914292      -0.00000240      -0.00000500       0.00000722
Sb      -0.00000013      -0.00000006       0.00000055      -0.00000050       0.00000023      -0.00000780
Se       2.10971409       1.49179379       6.83276114      -0.00517141      -0.00365325      -0.00000160
Se       5.78007895       4.08713300       6.83276100       0.00517040       0.00365558      -0.00000291
Se       4.86248728       1.49179361       5.24344631       0.00258170      -0.00365131      -0.00447918
Se       3.02730555       4.08713358       8.42207485      -0.00258551       0.00365992       0.00447756
Se       3.02730582       4.08713298       5.24344648      -0.00258138       0.00365302      -0.00447793
Se       4.86248729       1.49179339       8.42207530       0.00258614      -0.00365808       0.00447988
