9
Lattice="5.899513017279364 -2.117536862501756e-07 3.406085736961346 1.9665041924951756 5.562114303646909 3.4060856450840937 1.2764832705360533e-07 -2.2265205533800293e-08 6.812171252829305" Properties=species:S:1:pos:R:3:forces:R:3 energy=-39.43809127807617 free_energy=-39.43809127807617 stress="0.00010262048454023898 -3.509274648649807e-09 -1.1640983288430107e-08 -3.509274648649807e-09 0.00010265273158438504 -6.021650289511626e-09 -1.1640983288430107e-08 -6.021650289511626e-09 0.00010267737525282428" pbc="T T T"
Cr       1.96650503       1.39052801       3.40608543       0.00000520      -0.00000356      -0.00000132
Cr       5.89951351       4.17158415      10.21825658       0.00000325      -0.00001062      -0.00000191
Sn      -0.00000021      -0.00000035      -0.00000001       0.00000002       0.00000543       0.00000136
Se       2.13320331       1.50840311       6.81217151      -0.00488742      -0.00345027       0.00000134
Se       5.73281361       4.05371212       6.81217144       0.00487962       0.00345607      -0.00000028
Se       4.83291106       1.50840308       5.25349414       0.00244250      -0.00345352      -0.00423507
Se       3.03310604       4.05371145       8.37084868      -0.00244179       0.00345296       0.00422902
Se       3.03310557       4.05371144       5.25349461      -0.00244472       0.00345444      -0.00422763
Se       4.83291139       1.50840330       8.37084821       0.00244325      -0.00345092       0.00423434
