9
Lattice="4.435228361272993 -8.628883325899512e-08 2.560680329511287 1.478409352373752 4.18157351050885 2.5606803642043374 -1.1277072421480236e-09 4.1692712937782815e-08 5.121360660975828" Properties=species:S:1:pos:R:3:forces:R:3 energy=-51.883914947509766 free_energy=-51.883914947509766 stress="0.00010447757813381031 -4.588338597955044e-08 -7.028010884368996e-08 -4.588338597955044e-08 0.00010429950634716079 -8.428114739444936e-08 -7.028010884368996e-08 -8.428114739444936e-08 0.00010478276817593724" pbc="T T T"
Cr       1.47840912       1.04539465       2.56068117      -0.00000064       0.00001242       0.00000888
Cr       4.43522957       3.13618045       7.68204036       0.00001603       0.00000415      -0.00001154
Se       0.00000011      -0.00000004      -0.00000024       0.00000122       0.00000371       0.00000105
O        1.44667418       1.02295335       5.12136076      -0.00043690      -0.00030792      -0.00000096
O        4.46696330       3.15862005       5.12136106       0.00042939       0.00030363       0.00000250
O        3.71189066       1.02295271       3.81353715       0.00021404      -0.00031173      -0.00037241
O        2.20174601       3.15861979       6.42918442      -0.00022024       0.00030220       0.00037110
O        2.20174613       3.15861971       3.81353698      -0.00022250       0.00030077      -0.00037313
O        3.71189175       1.02295322       6.42918416       0.00021893      -0.00030768       0.00037479
