9
Lattice="4.457234722881438 -1.628780138410649e-07 2.5733856186267197 1.4857447346280257 4.202321266134163 2.573385652291325 -1.1778760615724798e-07 -4.205786159678896e-08 5.146771441267539" Properties=species:S:1:pos:R:3:forces:R:3 energy=-59.78373336791992 free_energy=-59.78373336791992 stress="0.00018411374185234308 1.0357418744888491e-07 6.76554066103563e-08 1.0357418744888491e-07 0.00018433333025313914 8.127704376192924e-08 6.76554066103563e-08 8.127704376192924e-08 0.00018437053950037807" pbc="T T T"
Cr       1.48574505       1.05058024       2.57338623       0.00000359      -0.00000032       0.00000520
Cr       4.45723306       3.15174185       7.72015518      -0.00001896       0.00001180      -0.00001944
Ti      -0.00000018      -0.00000015      -0.00000014       0.00000054       0.00000231       0.00000162
O        1.54101625       1.08966244       5.14677126      -0.00239325      -0.00170052       0.00000078
O        4.40196366       3.11265803       5.14677230       0.00239825       0.00169307       0.00000942
O        3.68672624       1.08966270       3.90794467       0.00119492      -0.00169665      -0.00207651
O        2.25625352       3.11265849       6.38559860      -0.00118750       0.00169361       0.00207895
O        2.25625280       3.11265808       3.90794474      -0.00119486       0.00169331      -0.00207525
O        3.68672677       1.08966238       6.38559799       0.00119737      -0.00169647       0.00207508
