9
Lattice="5.841762192267565 -1.905091947449047e-07 3.372743113701581 1.9472539661590154 5.507666014671498 3.3727429722213653 1.3864368202918443e-07 -7.52413121670733e-08 6.745485987265264" Properties=species:S:1:pos:R:3:forces:R:3 energy=-49.32111358642578 free_energy=-49.32111358642578 stress="-4.1748786316020414e-05 -4.165531564126468e-08 2.6503746752837287e-08 -4.165531564126468e-08 -4.170336251263507e-05 -4.0112276167292293e-08 2.6503746752837287e-08 -4.0112276167292293e-08 -4.169197563896887e-05" pbc="T T T"
Cr       1.94725517       1.37691545       3.37274368       0.00000574      -0.00000643       0.00000471
Cr       5.84176163       4.13074841      10.11823071      -0.00000316      -0.00000638       0.00001145
Ta      -0.00000032       0.00000004      -0.00000041       0.00000359       0.00000026       0.00000453
Se       2.04102457       1.44322226       6.74548581      -0.00127546      -0.00089934      -0.00000105
Se       5.74799150       4.06444405       6.74548555       0.00126936       0.00090240      -0.00000379
Se       4.82125007       1.44322260       5.14032151       0.00063707      -0.00089795      -0.00110958
Se       2.96776575       4.06444434       8.35064988      -0.00063702       0.00090236       0.00109957
Se       2.96776704       4.06444368       5.14032151      -0.00063588       0.00090622      -0.00111182
Se       4.82124983       1.44322211       8.35065004       0.00063567      -0.00090136       0.00110591
