9
Lattice="6.301535055562952 9.658160623603887e-08 3.638192870800827 2.100511743696384 5.941144197430897 3.6381929271778324 1.513148610625648e-08 7.97470415788862e-08 7.276385715393196" Properties=species:S:1:pos:R:3:forces:R:3 energy=-45.92014694213867 free_energy=-45.92014694213867 stress="-2.979700730065815e-05 5.4105409930116366e-08 3.426317007892976e-09 5.4105409930116366e-08 -2.9846743927919306e-05 6.608129599072754e-10 3.426317007892976e-09 6.608129599072754e-10 -2.9876862754463218e-05" pbc="T T T"
Cr       2.10051127       1.48528565       3.63819299      -0.00000199      -0.00000214       0.00000076
Cr       6.30153541       4.45585847      10.91457823       0.00000192       0.00000193      -0.00000210
Ta       0.00000035       0.00000017      -0.00000023      -0.00000258      -0.00000089       0.00000208
Te       2.20658393       1.56029056       7.27638587      -0.00046241      -0.00032680       0.00000037
Te       6.19546267       4.38085375       7.27638606       0.00046542       0.00032942       0.00000042
Te       5.19824323       1.56029037       5.54915065       0.00022939      -0.00032531      -0.00039702
Te       3.20380353       4.38085417       9.00362093      -0.00022890       0.00032395       0.00039511
Te       3.20380344       4.38085403       5.54915056      -0.00022975       0.00032465      -0.00039545
Te       5.19824343       1.56029032       9.00362101       0.00022885      -0.00032478       0.00039589
