9
Lattice="6.210358389112766 -1.1412533509752548e-07 3.585552189127061 2.070119394288301 5.855181947529518 3.5855521218383823 2.326929120311227e-08 -6.595756381920379e-08 7.171104337950558" Properties=species:S:1:pos:R:3:forces:R:3 energy=-42.955108642578125 free_energy=-42.955108642578125 stress="-7.476177415810525e-05 -3.016425864643679e-08 -5.354797938394995e-09 -3.016425864643679e-08 -7.473935693269596e-05 9.135744383215183e-10 -5.354797938394995e-09 9.135744383215183e-10 -7.471350545529276e-05" pbc="T T T"
Cr       2.07011894       1.46379549       3.58555198      -0.00000201       0.00000069       0.00000002
Cr       6.21035872       4.39138682      10.75665540       0.00000085       0.00000294      -0.00000453
Ti       0.00000017       0.00000021       0.00000019      -0.00000135      -0.00000244       0.00000001
Te       2.15777405       1.52577619       7.17110441      -0.00282691      -0.00199901       0.00000071
Te       6.12270367       4.32940521       7.17110471       0.00283061       0.00200082       0.00000186
Te       5.13147137       1.52577639       5.45423982       0.00141596      -0.00200378      -0.00245035
Te       3.14900644       4.32940513       8.88796933      -0.00141665       0.00200215       0.00245142
Te       3.14900649       4.32940495       5.45423952      -0.00141668       0.00200089      -0.00245198
Te       5.13147136       1.52577669       8.88796923       0.00141626      -0.00200227       0.00245283
