9
Lattice="5.544716886901993 1.333863230572929e-08 3.2012437918836616 1.8482389682105302 5.227609339701206 3.201243803429346 -3.3467143217995933e-08 -9.524299902369137e-09 6.402487641734081" Properties=species:S:1:pos:R:3:forces:R:3 energy=-53.65557098388672 free_energy=-53.65557098388672 stress="-2.0011708329548128e-05 1.671784488621597e-08 5.954217119352734e-10 1.671784488621597e-08 -2.0035586203448474e-05 -4.891499205683658e-09 5.954217119352734e-10 -4.891499205683658e-09 -2.0063338524778374e-05" pbc="T T T"
Cr       1.84823944       1.30690254       3.20124362       0.00000406       0.00000039       0.00000004
Cr       5.54471670       3.92070705       9.60373156       0.00000088       0.00000107      -0.00000276
Ta      -0.00000010      -0.00000009       0.00000004       0.00000138       0.00000199      -0.00000013
S        1.94031387       1.37200916       6.40248745      -0.00502148      -0.00355139      -0.00000140
S        5.45264189       3.85560027       6.40248756       0.00501806       0.00354835       0.00000134
S        4.57455989       1.37200910       4.88160485       0.00250785      -0.00354844      -0.00434637
S        2.81839592       3.85559991       7.92337047      -0.00251028       0.00354800       0.00434914
S        2.81839593       3.85560024       4.88160494      -0.00250912       0.00354901      -0.00434658
S        4.57455968       1.37200919       7.92337034       0.00250871      -0.00354892       0.00434664
