9
Lattice="5.484097712453924 -1.3920553862833755e-08 3.1662453295708954 1.8280325718105834 5.170456796822084 3.166245305119462 1.673163076458954e-08 -1.8115693695200468e-08 6.332490630161749" Properties=species:S:1:pos:R:3:forces:R:3 energy=-50.15631103515625 free_energy=-50.15631103515625 stress="-3.661735900095664e-05 -4.10136680173423e-09 4.451909774161322e-08 -4.10136680173423e-09 -3.660722359200008e-05 -6.5992158404526435e-09 4.451909774161322e-08 -6.5992158404526435e-09 -3.662162271211855e-05" pbc="T T T"
Cr       1.82803291       1.29261394       3.16624562       0.00000244      -0.00000012       0.00000185
Cr       5.48409729       3.87784221       9.49873779      -0.00000154      -0.00000324       0.00001102
Ti       0.00000007       0.00000016       0.00000023       0.00000072      -0.00000346       0.00000020
S        1.88421919       1.33234453       6.33249065      -0.00063032      -0.00044505      -0.00000057
S        5.42791088       3.83811242       6.33248970       0.00063211       0.00044800      -0.00000525
S        4.54198806       1.33234466       4.79802673       0.00031434      -0.00044477      -0.00054818
S        2.77014234       3.83811251       7.86695372      -0.00031646       0.00044748       0.00054614
S        2.77014253       3.83811241       4.79802688      -0.00031568       0.00044848      -0.00055049
S        4.54198794       1.33234422       7.86695374       0.00031427      -0.00044738       0.00054538
