9
Lattice="5.544889301267916 2.922822642099e-08 3.2013434072678275 1.8482964593025573 5.227771910153088 3.2013434107493506 2.1413813567285393e-08 1.940580117014252e-08 6.402686777445868" Properties=species:S:1:pos:R:3:forces:R:3 energy=-53.65557861328125 free_energy=-53.65557861328125 stress="-1.33089652081253e-05 1.1322485171660901e-08 -8.55581117065185e-09 1.1322485171660901e-08 -1.3336704796529375e-05 4.1648959836493304e-08 -8.55581117065185e-09 4.1648959836493304e-08 -1.3302843399287667e-05" pbc="T T T"
Cr       1.84829653       1.30694299       3.20134317       0.00000202      -0.00000137      -0.00000178
Cr       5.54488946       3.92082944       9.60403010      -0.00000023       0.00000334      -0.00000159
Ta       0.00000002       0.00000003      -0.00000004       0.00000103       0.00000068       0.00000252
S        1.94026151       1.37197191       6.40268718      -0.00311354      -0.00220376       0.00000226
S        5.45292454       3.85579969       6.40268698       0.00311199       0.00219908       0.00000226
S        4.57475829       1.37197204       4.88165911       0.00155595      -0.00220448      -0.00269908
S        2.81842699       3.85580011       7.92371422      -0.00155644       0.00220355       0.00269666
S        2.81842724       3.85579981       4.88165907      -0.00155504       0.00220323      -0.00269586
S        4.57475856       1.37197180       7.92371469       0.00155406      -0.00220025       0.00269416
