9
Lattice="4.581586531994793 4.694309223959198e-08 2.645180324385752 1.527195581522482 4.319561131661628 2.6451802783146388 1.2655799179797823e-07 3.306464997041659e-08 5.290360429566638" Properties=species:S:1:pos:R:3:forces:R:3 energy=-64.78775024414062 free_energy=-64.78775024414062 stress="4.708231790573336e-05 -1.6133735414314287e-07 -9.594319294592424e-08 -1.6133735414314287e-07 4.690983405453153e-05 -3.061890074818052e-09 -9.594319294592424e-08 -3.061890074818052e-09 4.7246718168025836e-05" pbc="T T T"
Cr       1.52719443       1.07989143       2.64518029      -0.00001078       0.00001100       0.00000215
Cr       4.58158812       3.23967051       7.93554181       0.00001348      -0.00000380       0.00000892
Ta       0.00000003      -0.00000018       0.00000012       0.00000199       0.00000828       0.00000063
O        1.59353821       1.12680176       5.29036068      -0.00052440      -0.00036645       0.00000276
O        4.51524425       3.19275910       5.29035997       0.00052202       0.00036317      -0.00000464
O        3.78481745       1.12680192       4.02522498       0.00026983      -0.00037611      -0.00046045
O        2.32396422       3.19275957       6.55549576      -0.00027075       0.00036895       0.00045043
O        2.32396441       3.19275914       4.02522483      -0.00026682       0.00036877      -0.00045460
O        3.78481789       1.12680169       6.55549584       0.00026542      -0.00037390       0.00045252
