9
Lattice="5.841824236450374 1.0071910918893474e-07 3.3727787614157707 1.947274795366838 5.5077247400242895 3.372778839488782 8.233374497920145e-08 1.538383257215035e-07 6.745557380225296" Properties=species:S:1:pos:R:3:forces:R:3 energy=-49.32111358642578 free_energy=-49.32111358642578 stress="-3.547986125340685e-05 -6.107447880765449e-10 -4.514913953812538e-08 -6.107447880765449e-10 -3.5464010579744354e-05 5.2823946106173025e-08 -4.514913953812538e-08 5.2823946106173025e-08 -3.546896550687961e-05" pbc="T T T"
Cr       1.94727446       1.37693347       3.37277780      -0.00000357       0.00001631      -0.00000586
Cr       5.84182398       4.13079732      10.11833670      -0.00000211       0.00002610       0.00000224
Ta      -0.00000002       0.00000002      -0.00000034       0.00000178      -0.00000163       0.00000649
Se       2.04102923       1.44322376       6.74555759      -0.00119417      -0.00085701       0.00000307
Se       5.74807074       4.06449875       6.74555772       0.00120343       0.00084328      -0.00000039
Se       4.82130996       1.44322436       5.14036221       0.00060358      -0.00085996      -0.00103715
Se       2.96778898       4.06449911       8.35075372      -0.00060410       0.00084252       0.00104220
Se       2.96778924       4.06449891       5.14036096      -0.00060028       0.00084305      -0.00104309
Se       4.82130989       1.44322420       8.35075363       0.00059545      -0.00085287       0.00103257
