9
Lattice="4.655374612276896 -1.0358865592542191e-07 2.687781951679112 1.551791472343629 4.3891292623778835 2.6877818952448633 -5.223382759809563e-09 -7.281101626705347e-08 5.375563912405377" Properties=species:S:1:pos:R:3:forces:R:3 energy=-52.627010345458984 free_energy=-52.627010345458984 stress="-9.896643314277753e-05 -9.188830318862529e-08 2.2979704805692336e-09 -9.188830318862529e-08 -9.899095311993733e-05 -1.236191149445176e-08 2.2979704805692336e-09 -1.236191149445176e-08 -9.879859862849116e-05" pbc="T T T"
Cr       1.55179195       1.09728224       2.68778266       0.00000248       0.00000034       0.00000817
Cr       4.65537463       3.29184672       8.06334643       0.00000039       0.00000098       0.00000638
Te      -0.00000003       0.00000006      -0.00000009       0.00000429       0.00000470       0.00000106
O        1.55862516       1.10211399       5.37556354       0.00128454       0.00090635      -0.00000076
O        4.64854078       3.28701529       5.37556369      -0.00129265      -0.00090843      -0.00000405
O        3.87606202       1.10211433       4.03759090      -0.00063944       0.00090688       0.00110400
O        2.33110353       3.28701488       6.71353660       0.00063935      -0.00090820      -0.00111270
O        2.33110382       3.28701447       4.03759054       0.00064179      -0.00090939       0.00110704
O        3.87606238       1.10211439       6.71353696      -0.00064066       0.00090694      -0.00110883
