9
Lattice="4.5815743325059275 -4.8787652896152204e-08 2.64517325291359 1.527191409389902 4.319549670606474 2.6451732334822156 2.4852702685623036e-08 -6.224955107598224e-09 5.290346462781002" Properties=species:S:1:pos:R:3:forces:R:3 energy=-64.78775024414062 free_energy=-64.78775024414062 stress="3.773859498323873e-05 -1.7826988596425508e-07 9.830257852172508e-08 -1.7826988596425508e-07 3.794124859268777e-05 -1.281886596871118e-07 9.830257852172508e-08 -1.281886596871118e-07 3.7994908780092373e-05" pbc="T T T"
Cr       1.52719182       1.07988776       2.64517303       0.00000338       0.00000170      -0.00000147
Cr       4.58157535       3.23966263       7.93551988       0.00001108       0.00000410      -0.00000047
Ta      -0.00000014       0.00000002      -0.00000006       0.00000188      -0.00000176      -0.00000421
O        1.59353139       1.12679704       5.29034666      -0.00034916      -0.00024432      -0.00000051
O        4.51523459       3.19275252       5.29034662       0.00034261       0.00024247       0.00000253
O        3.78480849       1.12679680       4.02521203       0.00016922      -0.00024551      -0.00030154
O        2.32395671       3.19275253       6.55548072      -0.00017622       0.00024605       0.00030106
O        2.32395671       3.19275249       4.02521216      -0.00017861       0.00024813      -0.00030291
O        3.78480820       1.12679658       6.55548070       0.00017589      -0.00025159       0.00030601
