9
Lattice="6.301561402063812 -1.1374876695282496e-08 3.6382081718301795 2.100520460424083 5.941169066883382 3.638208165259103 1.1437356449578984e-08 3.9549571280385334e-11 7.276416323850249" Properties=species:S:1:pos:R:3:forces:R:3 energy=-45.92015075683594 free_energy=-45.92015075683594 stress="-2.631699499033857e-05 -3.2269291683206802e-09 1.3114858088414394e-09 -3.2269291683206802e-09 -2.6322166377212852e-05 -1.219163436871895e-09 1.3114858088414394e-09 -1.219163436871895e-09 -2.6299760065739974e-05" pbc="T T T"
Cr       2.10051997       1.48529195       3.63820801      -0.00000351      -0.00000084      -0.00000158
Cr       6.30156201       4.45587726      10.91462477       0.00000347       0.00000275       0.00000226
Ta      -0.00000001      -0.00000015       0.00000021       0.00000139       0.00000021       0.00000022
Te       2.20658685       1.56029243       7.27641626      -0.00039980      -0.00028367       0.00000001
Te       6.19549517       4.38087658       7.27641615       0.00039868       0.00028167      -0.00000135
Te       5.19826823       1.56029241       5.54916849       0.00019967      -0.00028181      -0.00034458
Te       3.20381366       4.38087665       9.00366418      -0.00020117       0.00028315       0.00034469
Te       3.20381364       4.38087687       5.54916842      -0.00019876       0.00028296      -0.00034466
Te       5.19826797       1.56029221       9.00366416       0.00020003      -0.00028443       0.00034486
