9
Lattice="4.415620870926831 -4.024795391872413e-08 2.5493598463026266 1.4718736071791054 4.163087009372049 2.549359809093048 3.368695254328645e-08 -2.175197609731781e-08 5.098719634257741" Properties=species:S:1:pos:R:3:forces:R:3 energy=-58.106903076171875 free_energy=-58.106903076171875 stress="-3.0096252885414287e-05 -2.416471911459439e-09 2.8074684799150873e-09 -2.416471911459439e-09 -3.0256289392127655e-05 9.576481119211167e-08 2.8074684799150873e-09 9.576481119211167e-08 -3.024647230631672e-05" pbc="T T T"
Cr       1.47187387       1.04077197       2.54935959      -0.00000182       0.00000268      -0.00000293
Cr       4.41562081       3.12231521       7.64808006       0.00000362      -0.00000053       0.00000483
V        0.00000008      -0.00000001      -0.00000010      -0.00000140       0.00000016      -0.00000061
O        1.52979116       1.08172576       5.09871951      -0.00488591      -0.00345409      -0.00000051
O        4.35770318       3.08136112       5.09871935       0.00488591       0.00345564      -0.00000276
O        3.65072546       1.08172583       3.87419818       0.00244510      -0.00345737      -0.00423658
O        2.23676923       3.08136107       6.32324135      -0.00244278       0.00345492       0.00423563
O        2.23676904       3.08136126       3.87419794      -0.00244349       0.00345290      -0.00423300
O        3.65072521       1.08172564       6.32324118       0.00244105      -0.00345534       0.00423455
