9
Lattice="5.765137862880103 -2.5586766989047587e-08 3.3285037683879364 1.9217126307791417 5.435424008790482 3.328503709597705 3.540684886867582e-08 -4.696657619982746e-08 6.6570074754494" Properties=species:S:1:pos:R:3:forces:R:3 energy=-46.56130599975586 free_energy=-46.56130599975586 stress="-9.948459774022922e-05 8.249555705219791e-09 2.6946278541828406e-09 8.249555705219791e-09 -9.950940147973597e-05 7.361367626579352e-10 2.6946278541828406e-09 7.361367626579352e-10 -9.950889943866059e-05" pbc="T T T"
Cr       1.92171217       1.35885736       3.32850355      -0.00000408       0.00000899      -0.00000001
Cr       5.76513703       4.07656923       9.98551237      -0.00000370       0.00000879       0.00000951
V       -0.00000025       0.00000005      -0.00000018       0.00000151      -0.00000013      -0.00000079
Se       1.94472468       1.37512721       6.65700734      -0.00172828      -0.00122724      -0.00000036
Se       5.74212663       4.06029584       6.65700705       0.00173053       0.00121765      -0.00000238
Se       4.79277585       1.37512736       5.01268433       0.00086604      -0.00122330      -0.00149652
Se       2.89407456       4.06029577       8.30133104      -0.00086674       0.00122003       0.00150022
Se       2.89407558       4.06029601       5.01268401      -0.00086118       0.00122164      -0.00150262
Se       4.79277588       1.37512692       8.30133030       0.00086591      -0.00122637       0.00149290
