9
Lattice="6.105646492918176 2.9534908107110774e-07 3.525096436792721 2.0352157819185095 5.756458542472009 3.5250964267098164 2.6175518049105e-08 6.159919245699976e-09 7.050192828248056" Properties=species:S:1:pos:R:3:forces:R:3 energy=-43.30852508544922 free_energy=-43.30852508544922 stress="-0.00011276842269580811 9.502167586106225e-08 -5.679769099486975e-09 9.502167586106225e-08 -0.00011284198262728751 -1.725157083853901e-08 -5.679769099486975e-09 -1.725157083853901e-08 -0.00011289308895356953" pbc="T T T"
Cr       2.03521493       1.43911513       3.52509707      -0.00000410       0.00000228       0.00000501
Cr       6.10564647       4.31734428      10.57528855      -0.00000093       0.00000034      -0.00000317
V       -0.00000011       0.00000011      -0.00000014      -0.00000089      -0.00000201       0.00000388
Te       2.11983819       1.49895199       7.05019244      -0.00048362      -0.00034241      -0.00000081
Te       6.02102421       4.25750657       7.05019321       0.00048779       0.00034194       0.00000184
Te       5.04572766       1.49895146       5.36092932       0.00023838      -0.00033815      -0.00041242
Te       3.09513461       4.25750769       8.73945646      -0.00023616       0.00033473       0.00041077
Te       3.09513469       4.25750680       5.36092936      -0.00023896       0.00033789      -0.00041531
Te       5.04572858       1.49895138       8.73945653       0.00023857      -0.00033452       0.00041019
