9
Lattice="5.513708418102097 -1.8718079015325785e-08 3.183341097507387 1.837902834536457 5.198373892366979 3.183341017573252 6.730469129258708e-08 -5.030731950319213e-08 6.36668207843964" Properties=species:S:1:pos:R:3:forces:R:3 energy=-50.29205322265625 free_energy=-50.29205322265625 stress="0.00016682148270774633 6.387955941988821e-09 2.9614300345315314e-08 6.387955941988821e-09 0.00016680872067809105 -4.8104361383138894e-08 2.9614300345315314e-08 -4.8104361383138894e-08 0.00016678188694640994" pbc="T T T"
Cr       1.83790291       1.29959355       3.18334120       0.00000246       0.00000094       0.00000043
Cr       5.51370845       3.89878058       9.55002270      -0.00000006       0.00000252      -0.00000031
V       -0.00000014       0.00000015      -0.00000020       0.00000281      -0.00000218       0.00000334
S        1.84111299       1.30186325       6.36668198      -0.00632772      -0.00447530      -0.00000010
S        5.51049832       3.89651066       6.36668228       0.00632706       0.00447273       0.00000021
S        4.59315199       1.30186295       4.77779133       0.00316270      -0.00447419      -0.00547701
S        2.75845934       3.89651094       7.95557290      -0.00316200       0.00447199       0.00547904
S        2.75845934       3.89651015       4.77779177      -0.00316638       0.00447682      -0.00548366
S        4.59315208       1.30186311       7.95557292       0.00316113      -0.00447318       0.00547841
