9
Lattice="5.620059478950088 -4.0045613058472404e-08 3.2447429056009502 1.8733530945150463 5.298643013328661 3.244742953023787 -1.1441381847106337e-08 4.999060415469814e-08 6.489485831018929" Properties=species:S:1:pos:R:3:forces:R:3 energy=-54.330101013183594 free_energy=-54.330101013183594 stress="0.00037040203460492194 -3.9146595298689135e-08 -1.3364889639433386e-08 -3.9146595298689135e-08 0.0003704287519212812 1.5545927212201605e-08 -1.3364889639433386e-08 1.5545927212201605e-08 0.00037044924101792276" pbc="T T T"
Cr       1.87335337       1.32466075       3.24474280       0.00000141      -0.00000072      -0.00000064
Cr       5.62005952       3.97398241       9.73422894       0.00000090       0.00000079       0.00000284
W       -0.00000015      -0.00000010       0.00000019       0.00000241      -0.00000020       0.00000379
S        1.88036398       1.32961790       6.48948569      -0.00505525      -0.00357486      -0.00000011
S        5.61304876       3.96902540       6.48948580       0.00505248       0.00357446      -0.00000040
S        4.67987752       1.32961849       4.87318614       0.00253116      -0.00357735      -0.00438201
S        2.81353479       3.96902438       8.10578563      -0.00253070       0.00357652       0.00438035
S        2.81353509       3.96902477       4.87318601      -0.00252997       0.00357768      -0.00438158
S        4.67987734       1.32961809       8.10578556       0.00252750      -0.00357623       0.00437798
