9
Lattice="6.202451249705875 -5.4502129489428765e-08 3.5809869664494167 2.0674837545900604 5.847727087624097 3.5809868693277216 1.2719326745250743e-07 -2.901005714882653e-08 7.1619737125936" Properties=species:S:1:pos:R:3:forces:R:3 energy=-46.13104248046875 free_energy=-46.13104248046875 stress="-3.899142029695213e-05 -1.3358040007460659e-08 1.3220982530981473e-08 -1.3358040007460659e-08 -3.900331648765132e-05 -1.111773428874585e-08 1.3220982530981473e-08 -1.111773428874585e-08 -3.8957601645961404e-05" pbc="T T T"
Cr       2.06748403       1.46193169       3.58098684       0.00000161       0.00000069       0.00000003
Cr       6.20245178       4.38579539      10.74296142       0.00000188       0.00000114       0.00000579
W       -0.00000060      -0.00000052      -0.00000212       0.00000847       0.00000596       0.00002356
Te       2.15706585       1.52527556       7.16197362      -0.00297138      -0.00210167       0.00000231
Te       6.11287012       4.32245176       7.16197368       0.00295968       0.00209181      -0.00000060
Te       5.12391817       1.52527589       5.44906063       0.00148863      -0.00210331      -0.00257625
Te       3.14601587       4.32245206       8.87488776      -0.00147816       0.00209082       0.00256013
Te       3.14601661       4.32245117       5.44906080      -0.00148801       0.00210641      -0.00257650
Te       5.12391869       1.52527501       8.87488753       0.00147726      -0.00209180       0.00256168
