9
Lattice="5.843049556382083 -3.077436358713449e-08 3.373486314182191 1.9476831913517187 5.5088800399922215 3.373486253724342 5.2706323768950164e-08 -3.677643569350318e-08 6.746972537074329" Properties=species:S:1:pos:R:3:forces:R:3 energy=-50.3443489074707 free_energy=-50.3443489074707 stress="3.193605948581535e-07 -1.1137356814572286e-08 1.6944140313057687e-08 -1.1137356814572286e-08 3.2213085887633497e-07 -2.481416494504174e-08 1.6944140313057687e-08 -2.481416494504174e-08 3.747057917280472e-07" pbc="T T T"
Cr       1.94768391       1.37721942       3.37348620       0.00000172      -0.00000213       0.00000040
Cr       5.84304970       4.13165948      10.12045981       0.00000015      -0.00000537       0.00000562
W        0.00000005       0.00000016       0.00000025      -0.00000059      -0.00000314      -0.00000216
Se       1.97544725       1.39685277       6.74697237      -0.00379012      -0.00267976      -0.00000087
Se       5.81528519       4.11202758       6.74697229       0.00379132       0.00268292      -0.00000346
Se       4.85532580       1.39685270       5.08427393       0.00189319      -0.00267891      -0.00328508
Se       2.93540667       4.11202735       8.40967049      -0.00189679       0.00268295       0.00328497
Se       2.93540718       4.11202776       5.08427433      -0.00189519       0.00268431      -0.00328417
Se       4.85532546       1.39685271       8.40967078       0.00189636      -0.00268082       0.00328480
