9
Lattice="4.6887904543781485 -5.7412736508693837e-08 2.707074547962826 1.562930122524547 4.420634058432026 2.707074504324823 1.1051744392820959e-08 -4.563065900809876e-08 5.414149076783415" Properties=species:S:1:pos:R:3:forces:R:3 energy=-58.988136291503906 free_energy=-58.988136291503906 stress="-3.171515709254891e-05 -6.131683161214596e-09 -3.3497766338541624e-08 -6.131683161214596e-09 -3.175713209202513e-05 2.4347931670831713e-08 -3.3497766338541624e-08 2.4347931670831713e-08 -3.168509647366591e-05" pbc="T T T"
Cr       1.56292782       1.10516000       2.70707377      -0.00002161       0.00001371      -0.00000625
Cr       4.68878908       3.31547500       8.12122479      -0.00001417      -0.00000440       0.00000631
W       -0.00000010      -0.00000015      -0.00000030       0.00000269       0.00000182       0.00000895
O        1.57219004       1.11170644       5.41414944       0.00088251       0.00062323       0.00000215
O        4.67953132       3.30892700       5.41414905      -0.00087535      -0.00063050       0.00000094
O        3.90269624       1.11170665       4.06863105      -0.00043148       0.00062668       0.00076258
O        2.34902573       3.30892744       6.75966728       0.00044781      -0.00063121      -0.00076497
O        2.34902599       3.30892767       4.06863070       0.00044823      -0.00062299       0.00076032
O        3.90269591       1.11170562       6.75966666      -0.00043863       0.00062323      -0.00077033
