9
Lattice="6.546570271554021 -1.8836346307587072e-07 3.7796641540363454 2.1821899204939634 6.172165634026406 3.7796641409303655 -2.6513835936737375e-08 -3.479958290948686e-08 7.5593283539960945" Properties=species:S:1:pos:R:3:forces:R:3 energy=-40.62432861328125 free_energy=-40.62432861328125 stress="5.780889296147507e-07 -4.921879792618711e-08 2.7762523391317018e-09 -4.921879792618711e-08 5.954319703960209e-07 1.567753216136225e-08 2.7762523391317018e-09 1.567753216136225e-08 6.511778565254644e-07" pbc="T T T"
Cr       2.18219044       1.54304172       3.77966378       0.00000155       0.00000241      -0.00000138
Cr       6.54656986       4.62912400      11.33899090      -0.00000123       0.00000133      -0.00000705
Y        0.00000012      -0.00000009       0.00000021       0.00000008      -0.00000029       0.00000115
Te       2.40984699       1.70401908       7.55932788       0.00263322       0.00186079      -0.00000142
Te       6.31891300       4.46814650       7.55932880      -0.00263321      -0.00186170       0.00000311
Te       5.34164650       1.70401903       5.86665384      -0.00131477       0.00185796       0.00227740
Te       3.38711407       4.46814600       9.25200380       0.00131537      -0.00185922      -0.00227516
Te       3.38711330       4.46814587       5.86665355       0.00131372      -0.00186094       0.00227831
Te       5.34164635       1.70401956       9.25200377      -0.00131479       0.00185957      -0.00227503
