9
Lattice="6.039354587162043 1.7019055969437954e-07 3.4868227624594574 2.0131183122102323 5.693957888936379 3.48682283861362 2.0445042167834366e-08 1.0772623891220976e-07 6.973645489507011" Properties=species:S:1:pos:R:3:forces:R:3 energy=-42.309776306152344 free_energy=-42.309776306152344 stress="6.240357470232993e-05 3.787772939745082e-08 -3.652639080087283e-08 3.787772939745082e-08 6.239246431505308e-05 1.3183520053416942e-08 -3.652639080087283e-08 1.3183520053416942e-08 6.238176138140261e-05" pbc="T T T"
Cr       2.01311784       1.42348975       3.48682360      -0.00000232       0.00000162       0.00000626
Cr       6.03935385       4.27046823      10.46046912      -0.00000531      -0.00000182       0.00000401
Y        0.00000053      -0.00000013      -0.00000058      -0.00000328       0.00000212       0.00000665
Se       2.22918512       1.57627223       6.97364491      -0.00085533      -0.00060353      -0.00000611
Se       5.82328766       4.11768594       6.97364556       0.00085664       0.00060339      -0.00000127
Se       4.92476181       1.57627215       5.41735392       0.00042748      -0.00060406      -0.00073993
Se       3.12771107       4.11768628       8.52993752      -0.00042310       0.00060128       0.00073600
Se       3.12771151       4.11768627       5.41735308      -0.00042184       0.00060239      -0.00074184
Se       4.92476228       1.57627193       8.52993738       0.00042732      -0.00060140       0.00073612
