9
Lattice="6.37640433524033 -7.415546233810914e-08 3.6814188030505743 2.1254680996572324 6.011731624663169 3.681418702894981 6.060237505031932e-08 -7.981274444545366e-08 7.3628375011347025" Properties=species:S:1:pos:R:3:forces:R:3 energy=-43.17866516113281 free_energy=-43.17866516113281 stress="4.946453918819316e-05 -2.728436143684121e-08 5.677096015510585e-10 -2.728436143684121e-08 4.948821879224852e-05 -1.4560023409160294e-08 5.677096015510585e-10 -1.4560023409160294e-08 4.951612208969891e-05" pbc="T T T"
Cr       2.12546827       1.50293306       3.68141913       0.00000114       0.00000184       0.00000105
Cr       6.37640435       4.50879867      11.04425633      -0.00000086       0.00000130      -0.00000071
Zr      -0.00000026      -0.00000037       0.00000050       0.00000646       0.00000476      -0.00001190
Te       2.27137408       1.60610368       7.36283762      -0.00801261      -0.00566664      -0.00000102
Te       6.23049909       4.40562788       7.36283759       0.00800399       0.00565859      -0.00000046
Te       5.24071747       1.60610321       5.64848589       0.00400247      -0.00566128      -0.00693443
Te       3.26115506       4.40562787       9.07718895      -0.00400709       0.00566943       0.00694029
Te       3.26115487       4.40562781       5.64848572      -0.00400261       0.00566125      -0.00693547
Te       5.24071703       1.60610402       9.07718832       0.00400910      -0.00566932       0.00694261
