9
Lattice="4.64857999088737 7.279008636693633e-08 2.683858937988002 1.5495267281289131 4.382723385714166 2.6838589451368065 4.378665219442212e-09 1.1851640087413893e-08 5.367717868391916" Properties=species:S:1:pos:R:3:forces:R:3 energy=-59.573604583740234 free_energy=-59.573604583740234 stress="0.0002732961147557944 -1.1752290163258294e-07 4.310474110980067e-08 -1.1752290163258294e-07 0.0002732176799327135 -5.863697438712734e-08 4.310474110980067e-08 -5.863697438712734e-08 0.0002734244626481086" pbc="T T T"
Cr       1.54952637       1.09568099       2.68385921      -0.00000266      -0.00000110       0.00000253
Cr       4.64858017       3.28704209       8.05157696      -0.00000091      -0.00000414       0.00000062
Zr       0.00000009      -0.00000007       0.00000003      -0.00000156       0.00000119       0.00000066
O        1.67226282       1.18246816       5.36771773       0.00097620       0.00069004       0.00000043
O        4.52584381       3.20025547       5.36771768      -0.00097460      -0.00068676       0.00000063
O        3.81244884       1.18246887       4.13208103      -0.00048262       0.00068879       0.00084043
O        2.38565794       3.20025493       6.60335462       0.00048563      -0.00068879      -0.00084257
O        2.38565803       3.20025477       4.13208098       0.00048280      -0.00068736       0.00083947
O        3.81244887       1.18246870       6.60335468      -0.00048199       0.00068867      -0.00084251
