9
Lattice="6.336204599804432 8.787309584168306e-07 3.6582081494567196 2.112067970003322 5.973833330169469 3.6582099826716314 -1.2928585889847074e-06 1.3310313461820706e-06 7.316418538210242" Properties=species:S:1:pos:R:3:forces:R:3 energy=-31.51470375061035 free_energy=-31.51470375061035 stress="9.828684414969757e-05 -3.1170031888905214e-08 -1.7177634958898125e-07 -3.1170031888905214e-08 9.831022180151194e-05 2.505865097646165e-07 -1.7177634958898125e-07 2.505865097646165e-07 9.83189238468185e-05" pbc="T T T"
Cs       2.11206810       1.49345808       3.65820975       0.00000053       0.00000251      -0.00000201
Cs       6.33620351       4.48037718      10.97462700      -0.00000126      -0.00000036       0.00000093
As       0.00000012      -0.00000216       0.00000106      -0.00000222       0.00002269      -0.00000517
S        1.96137390       1.38690402       7.31641811      -0.00345516      -0.00244153       0.00000063
S        6.48689630       4.58693214       7.31641871       0.00344193       0.00243515      -0.00000136
S        5.35551570       1.38690553       5.35681152       0.00173503      -0.00245231      -0.00300717
S        3.09275497       4.58693257       9.27602300      -0.00172937       0.00244617       0.00299573
S        3.09275459       4.58693220       5.35681004      -0.00171280       0.00242376      -0.00296736
S        5.35551788       1.38690296       9.27602627       0.00172323      -0.00243628       0.00298572
