9
Lattice="6.083477394232236 5.751902856298572e-08 3.512297285739745 2.0278255948239683 5.735557948807947 3.5122977317131636 -3.11106877298347e-07 3.2621796713374513e-07 7.024595110332271" Properties=species:S:1:pos:R:3:forces:R:3 energy=-30.105356216430664 free_energy=-30.105356216430664 stress="-5.397862423706101e-06 -3.998601982857508e-08 -3.5782871776746106e-08 -3.998601982857508e-08 -5.360515388019849e-06 2.9615106811320402e-08 -3.5782871776746106e-08 2.9615106811320402e-08 -5.37002188139013e-06" pbc="T T T"
Cs       2.02782507       1.43388921       3.51229711      -0.00000103      -0.00000029      -0.00000010
Cs       6.08347678       4.30166896      10.53689259       0.00000002      -0.00000042      -0.00000024
As       0.00000033      -0.00000023       0.00000046       0.00000033       0.00000048      -0.00000091
Se       2.14635305       1.51770188       7.02459427       0.00242630       0.00171530       0.00000063
Se       5.96495101       4.21785790       7.02459521      -0.00242612      -0.00171557       0.00000008
Se       5.01029954       1.51770198       5.37109420      -0.00121222       0.00171399       0.00209934
Se       3.10100234       4.21785616       8.67809582       0.00121179      -0.00171322      -0.00209889
Se       3.10100180       4.21785616       5.37109408       0.00121363      -0.00171521       0.00210032
Se       5.01030041       1.51770132       8.67809680      -0.00121260       0.00171500      -0.00210023
