9
Lattice="6.289488907044132 -9.005905775444696e-07 3.6312387764470384 2.0964958137373912 5.929787334064636 3.6312381520869668 6.457477765090972e-07 -3.0806876392930625e-07 7.262476434425714" Properties=species:S:1:pos:R:3:forces:R:3 energy=-29.947006225585938 free_energy=-29.947006225585938 stress="2.5805167751968838e-05 -1.9214441593362608e-08 -3.89060161865018e-08 -1.9214441593362608e-08 2.5731444111443125e-05 -2.8912827687577192e-08 -3.89060161865018e-08 -2.8912827687577192e-08 2.592487544461619e-05" pbc="T T T"
Cs       2.09649677       1.48244697       3.63123803      -0.00000133      -0.00000138       0.00000266
Cs       6.28948853       4.44733867      10.89371600      -0.00000098      -0.00000219       0.00000305
Bi      -0.00000103      -0.00000206       0.00000299      -0.00000273      -0.00000244       0.00000523
Se       2.48623698       1.75803307       7.26247788      -0.00287873      -0.00204125       0.00000439
Se       5.89975487       4.17175571       7.26247881       0.00290585       0.00205378       0.00000907
Se       5.04637195       1.75802768       5.78438022       0.00144961      -0.00206184      -0.00250706
Se       3.33961468       4.17175312       8.74057132      -0.00144485       0.00203712       0.00250387
Se       3.33960923       4.17175731       5.78437828      -0.00146256       0.00205874      -0.00251608
Se       5.04636972       1.75803402       8.74056997       0.00143582      -0.00204061       0.00249512
