9
Lattice="6.868451988467269 -4.240977603569637e-06 3.9655060458241613 2.289480303365149 6.47563815200562 3.965505516438929 8.786730727588216e-07 -2.7046416232669488e-08 7.931010569740918" Properties=species:S:1:pos:R:3:forces:R:3 energy=-30.485206604003906 free_energy=-30.485206604003906 stress="6.2714891100768e-05 -6.790719453420024e-07 1.667928870574542e-07 -6.790719453420024e-07 6.319029489532113e-05 -2.5713305262797803e-07 1.667928870574542e-07 -2.5713305262797803e-07 6.370375922415406e-05" pbc="T T T"
Cs       2.28948430       1.61890814       3.96550664      -0.00000010      -0.00000022      -0.00000012
Cs       6.86845259       4.85672748      11.89651598      -0.00000179      -0.00000067      -0.00000014
Bi      -0.00000519      -0.00000368      -0.00000456       0.00002827       0.00000070       0.00000005
S        1.96608920       1.39023785       7.93101517      -0.00114006      -0.00080696       0.00000095
S        7.19183481       5.08539153       7.93101778       0.00112742       0.00079685      -0.00000206
S        5.88540333       1.39023637       5.66819719       0.00059813      -0.00084394      -0.00103807
S        3.27253714       5.08539637      10.19382171      -0.00060838       0.00085410       0.00104839
S        3.27253279       5.08539839       5.66820175      -0.00062037       0.00087821      -0.00107926
S        5.88540268       1.39024331      10.19381820       0.00061712      -0.00087762       0.00107026
