9
Lattice="6.78485064294933 5.004568561395907e-07 3.9172357230831767 2.261617307666358 6.3968203155980135 3.9172358012887543 -2.2904753511122112e-07 -6.617917594792745e-08 7.834471842888255" Properties=species:S:1:pos:R:3:forces:R:3 energy=-28.230623245239258 free_energy=-28.230623245239258 stress="4.12120389228221e-05 -8.833686560016929e-10 -2.097651607968487e-09 -8.833686560016929e-10 4.1270017391070724e-05 8.71895089460395e-09 -2.097651607968487e-09 8.71895089460395e-09 4.124324186705053e-05" pbc="T T T"
Cs       2.26161679       1.59920518       3.91723574       0.00000135       0.00000007      -0.00000003
Cs       6.78485047       4.79761572      11.75170793       0.00000071       0.00000143       0.00000036
Bi      -0.00000011      -0.00000061       0.00000039       0.00000437       0.00000364       0.00000149
Te       2.57795929       1.82289408       7.83447194      -0.00082952      -0.00058804      -0.00000045
Te       6.46850607       4.57392489       7.83447196       0.00083271       0.00059003      -0.00000118
Te       5.49587132       1.82289595       6.14981635       0.00041287      -0.00059031      -0.00072011
Te       3.55059839       4.57392542       9.51912691      -0.00041832       0.00058737       0.00072081
Te       3.55059762       4.57392629       6.14981582      -0.00041734       0.00058660      -0.00072049
Te       5.49587095       1.82289608       9.51912649       0.00041318      -0.00059083       0.00071958
