9
Lattice="7.467726035891963 -3.453237944079796e-06 4.311490786439956 2.4892395674224965 7.040631417639428 4.311489381395637 2.995320251465802e-07 -1.5090198130657076e-06 8.622981054075003" Properties=species:S:1:pos:R:3:forces:R:3 energy=-25.312528610229492 free_energy=-25.312528610229492 stress="-1.2497873285610694e-05 1.6508599287590187e-07 -1.678449379483027e-08 1.6508599287590187e-07 -1.2038717613904737e-05 -1.9097010195423536e-08 -1.678449379483027e-08 -1.9097010195423536e-08 -1.1904906386916991e-05" pbc="T T T"
Cs       2.48923963       1.76015758       4.31148971      -0.00000389       0.00000075       0.00000142
Cs       7.46772602       5.28046973      12.93447307       0.00000394      -0.00000070      -0.00000090
Ga      -0.00000123      -0.00000140      -0.00000720       0.00000098      -0.00001004       0.00001618
Te       2.23185500       1.57814642       8.62298239      -0.00062543      -0.00046554       0.00000914
Te       7.72510848       5.46247960       8.62298059       0.00061765       0.00046340       0.00000715
Te       6.35179432       1.57815610       6.24432723       0.00031301      -0.00046039      -0.00057128
Te       3.60517478       5.46247057      11.00163417      -0.00028902       0.00043920       0.00055522
Te       3.60517501       5.46247236       6.24432859      -0.00030920       0.00046793      -0.00057283
Te       6.35179133       1.57815449      11.00163618       0.00029190      -0.00043461       0.00055575
