9
Lattice="5.7427797474247 2.4863062675217785e-08 3.3155954701791495 1.9142599377642353 5.4143443626375065 3.3155954727513812 6.700564606045671e-08 5.0530541436087065e-08 6.631190824301111" Properties=species:S:1:pos:R:3:forces:R:3 energy=-36.44720458984375 free_energy=-36.44720458984375 stress="-2.586955815786496e-06 1.3494214634590662e-08 -6.326180468363418e-09 1.3494214634590662e-08 -2.4873129405023064e-06 1.9911656323756688e-08 -6.326180468363418e-09 1.9911656323756688e-08 -2.5824388103501406e-06" pbc="T T T"
Cs       1.91425928       1.35358660       3.31559564       0.00000056      -0.00000062      -0.00000040
Cs       5.74277979       4.06075848       9.94678634       0.00000024      -0.00000023       0.00000017
Ga      -0.00000010       0.00000003       0.00000036      -0.00000261       0.00000317       0.00000375
O        1.57569592       1.11418453       6.63119099       0.00518167       0.00366151      -0.00000040
O        6.08134418       4.30015944       6.63119081      -0.00518197      -0.00366315      -0.00000085
O        4.95493173       1.11418482       4.68018847      -0.00259078       0.00366160       0.00448573
O        2.70210773       4.30015977       8.58219329       0.00259104      -0.00366253      -0.00448775
O        2.70210838       4.30015929       4.68018755       0.00259200      -0.00366271       0.00448793
O        4.95493241       1.11418463       8.58219369      -0.00259018       0.00366297      -0.00448781
