9
Lattice="6.257683799091272 3.230371921173079e-06 3.6128795445142057 2.0858977623838504 5.899795831452315 3.612879341757086 2.1437173121312605e-06 1.2675105499366738e-06 7.225755376002039" Properties=species:S:1:pos:R:3:forces:R:3 energy=-28.00729751586914 free_energy=-28.00729751586914 stress="-0.00019486751989461482 -5.481888933900336e-07 -3.431908339734946e-07 -5.481888933900336e-07 -0.00019375963893253356 -2.3820412309305539e-07 -3.431908339734946e-07 -2.3820412309305539e-07 -0.00019600571249611676" pbc="T T T"
Cs       2.08588977       1.47494434       3.61287815      -0.00000635      -0.00001692      -0.00000428
Cs       6.25769099       4.42485262      10.83863993      -0.00000276      -0.00000833      -0.00000338
Ga      -0.00000389      -0.00001367       0.00000016      -0.00001959      -0.00004304       0.00000128
Se       2.52080893       1.78247914       7.22575089       0.00536481       0.00379848      -0.00002192
Se       5.82281398       4.11733966       7.22576337      -0.00522177      -0.00373116       0.00002768
Se       4.99727488       1.78247806       5.79595036      -0.00271765       0.00379282       0.00458384
Se       3.34629347       4.11732105       8.65557816       0.00266317      -0.00379525      -0.00452191
Se       3.34628635       4.11731775       5.79593289       0.00262931      -0.00381315       0.00452247
Se       4.99728034       1.78248238       8.65556318      -0.00268912       0.00381660      -0.00458382
