9
Lattice="5.7617823986027945 1.7264252016325216e-06 3.326566110345091 1.9205955506830557 5.432261996154255 3.326566473856926 5.3754270553415176e-08 4.832195048780849e-07 6.653132127585239" Properties=species:S:1:pos:R:3:forces:R:3 energy=-39.35823059082031 free_energy=-39.35823059082031 stress="-7.79847105150111e-05 7.163567943280214e-07 -1.7209670488682605e-07 7.163567943280214e-07 -7.851603004382923e-05 2.285588465156252e-07 -1.7209670488682605e-07 2.285588465156252e-07 -7.908718544058502e-05" pbc="T T T"
Cs       1.92059416       1.35806441       3.32656943       0.00000020       0.00000037      -0.00000072
Cs       5.76178301       4.07419752       9.97970087       0.00000022       0.00000017      -0.00000049
N        0.00000169       0.00000582      -0.00002657      -0.00001882      -0.00008131       0.00038992
O        1.28795939       0.91072572       6.65312649       0.00680709       0.00482392      -0.00005647
O        6.39441371       4.52153622       6.65312816      -0.00680041      -0.00479865      -0.00006642
O        5.11779782       0.91073504       4.44197519      -0.00343108       0.00487471       0.00589359
O        2.56456856       4.52155025       8.86430084       0.00344145      -0.00485718      -0.00602424
O        2.56458074       4.52152838       4.44197770       0.00345969      -0.00486982       0.00592148
O        5.11781441       0.91071261       8.86430713      -0.00346053       0.00490665      -0.00605690
