9
Lattice="6.677883087253292 2.0914882899253924e-06 3.8554775451340846 2.225963045826236 6.295963109615984 3.8554774674182153 -2.2100472853023927e-07 -2.5145502554717387e-07 7.71095547305864" Properties=species:S:1:pos:R:3:forces:R:3 energy=-28.147653579711914 free_energy=-28.147653579711914 stress="-0.00022100868227425963 -2.6301956168595098e-08 1.5388953444883668e-09 -2.6301956168595098e-08 -0.0002207305806223303 -4.747323423259786e-09 1.5388953444883668e-09 -4.747323423259786e-09 -0.00022123122471384704" pbc="T T T"
Cs       2.22595948       1.57398748       3.85547717      -0.00000287      -0.00000615       0.00000036
Cs       6.67788682       4.72197823      11.56643257       0.00000375       0.00000641       0.00000099
Sb       0.00000190       0.00000128       0.00000068       0.00000088      -0.00000025      -0.00000024
Te       2.49657183       1.76534386       7.71095502      -0.00475380      -0.00335523       0.00000121
Te       6.40726939       4.53061891       7.71095452       0.00475037       0.00335278      -0.00000046
Te       5.42959873       1.76535374       6.01756745       0.00237174      -0.00335659      -0.00411180
Te       3.47424849       4.53061066       9.40434420      -0.00237061       0.00335824       0.00411028
Te       3.47424857       4.53061148       6.01756725      -0.00237168       0.00335883      -0.00411086
Te       5.42959811       1.76535446       9.40434341       0.00237221      -0.00335795       0.00411047
