9
Lattice="6.1802424942861975 -1.5478992274566178e-06 3.568164605366673 2.0600791101000704 5.826785075582414 3.5681650590886345 1.473603572402252e-07 6.598929304391904e-07 7.136328955497601" Properties=species:S:1:pos:R:3:forces:R:3 energy=-30.082918167114258 free_energy=-30.082918167114258 stress="-8.467661973554641e-05 1.2165475027359207e-07 -5.571770600454329e-08 1.2165475027359207e-07 -8.440989040536806e-05 -7.282820746468133e-08 -5.571770600454329e-08 -7.282820746468133e-08 -8.45807371661067e-05" pbc="T T T"
Cs       2.06008153       1.45669435       3.56816385       0.00000489      -0.00000039      -0.00000056
Cs       6.18024070       4.37009044      10.70449360       0.00000258      -0.00000185       0.00000208
Sb       0.00000112       0.00000088      -0.00000114       0.00000920      -0.00000141      -0.00000191
Se       2.42949242       1.71791250       7.13632757      -0.00294119      -0.00207002      -0.00000583
Se       5.81082497       4.10886578       7.13633071       0.00291799       0.00205158      -0.00000070
Se       4.96549640       1.71791267       5.67217055       0.00146598      -0.00205816      -0.00252984
Se       3.27482591       4.10887554       8.60049210      -0.00146830       0.00207748       0.00254311
Se       3.27482542       4.10887158       5.67216885      -0.00146550       0.00206630      -0.00253867
Se       4.96549857       1.71791292       8.60048817       0.00147424      -0.00206348       0.00253233
