9
Lattice="6.255063767053581 2.9702206485960987e-07 3.6113620177292485 2.0850209525592485 5.897331320195131 3.611363027793157 -1.0307449990222723e-06 5.082232411706674e-07 7.222725820760807" Properties=species:S:1:pos:R:3:forces:R:3 energy=-31.19207000732422 free_energy=-31.19207000732422 stress="-1.085285566659877e-05 1.0679123363388499e-07 -1.6837377359024686e-07 1.0679123363388499e-07 -1.0911046047112904e-05 2.3407682192555512e-07 -1.6837377359024686e-07 2.3407682192555512e-07 -1.0987860150635242e-05" pbc="T T T"
Cs       2.08502164       1.47433166       3.61136327      -0.00000157       0.00000350      -0.00000107
Cs       6.25506230       4.42299994      10.83408806       0.00000087      -0.00000243      -0.00000172
Sb       0.00000065      -0.00000045       0.00000056       0.00000035       0.00001604      -0.00001836
S        2.00012538       1.41430275       7.22272505       0.00102293       0.00072485       0.00000008
S        6.33995907       4.48302985       7.22272429      -0.00103259      -0.00073171      -0.00000004
S        5.25500039       1.41430224       5.34352159      -0.00051415       0.00072849       0.00089025
S        3.08508231       4.48302939       9.10192901       0.00051248      -0.00072443      -0.00088644
S        3.08508214       4.48303206       5.34351970       0.00053048      -0.00075191       0.00091904
S        5.25500112       1.41430055       9.10193077      -0.00051928       0.00073707      -0.00090134
