9
Lattice="5.847701976580384 7.918494522812691e-08 3.3761721100994286 1.9492339689360567 5.513266685717565 3.3761722796910094 -6.774755058487702e-08 1.598016193629977e-07 6.752344337541024" Properties=species:S:1:pos:R:3:forces:R:3 energy=-40.542503356933594 free_energy=-40.542503356933594 stress="8.400044862355571e-06 1.7068991553514934e-08 -1.4073834542216446e-08 1.7068991553514934e-08 8.491155313095078e-06 -9.005474765899635e-08 -1.4073834542216446e-08 -9.005474765899635e-08 8.382162377529312e-06" pbc="T T T"
Cs       1.94923391       1.37831698       3.37617243      -0.00000012       0.00000037      -0.00000085
Cs       5.84770192       4.13494983      10.12851643      -0.00000012       0.00000033      -0.00000016
Sb       0.00000001      -0.00000016      -0.00000037      -0.00000018       0.00001113       0.00000950
O        1.56297542       1.10519147       6.75234435      -0.00202751      -0.00143576      -0.00000059
O        6.23396025       4.40807580       6.75234444       0.00202376       0.00142932      -0.00000109
O        5.06621442       1.10519130       4.72974848       0.00101018      -0.00143385      -0.00175351
O        2.73072185       4.40807541       8.77494039      -0.00100848       0.00142866       0.00174588
O        2.73072190       4.40807563       4.72974867      -0.00101367       0.00143224      -0.00175536
O        5.06621412       1.10519156       8.77494000       0.00101581      -0.00143379       0.00175649
