9
Lattice="6.403840801454418 -1.7215496438467324e-05 3.6972858210926693 2.1346054578646974 6.037595877041167 3.697271811756012 9.282669371630212e-06 -1.059403239421234e-05 7.39455556412771" Properties=species:S:1:pos:R:3:forces:R:3 energy=-34.172607421875 free_energy=-34.172607421875 stress="-2.9433569579850882e-05 7.275572500020644e-08 1.366901329902248e-07 7.275572500020644e-08 -2.675743235158734e-05 -4.54993454468422e-07 1.366901329902248e-07 -4.54993454468422e-07 -2.892781594709959e-05" pbc="T T T"
Cs       2.13460879       1.50939323       3.69730205       0.00000340      -0.00002271       0.00001232
Cs       6.40384917       4.52818095      11.09181826      -0.00002786       0.00001577       0.00006826
Y       -0.00003981      -0.00000377       0.00014744      -0.00000432       0.00002049       0.00009515
Se       2.44611628       1.72971148       7.39458183      -0.00051252      -0.00036995       0.00014826
Se       6.09236987       4.30788272       7.39458005       0.00060878       0.00048562       0.00013836
Se       5.18079961       1.72960683       5.81558561       0.00047581      -0.00067250      -0.00065199
Se       3.35773835       4.30782592       8.97340165      -0.00021191       0.00018520       0.00034786
Se       3.35761642       4.30799666       5.81567373      -0.00046178       0.00056802      -0.00066606
Se       5.18076086       1.72967835       8.97336074       0.00013052      -0.00020996       0.00050783
