9
Lattice="6.8087548972496075 -6.369350624212981e-07 3.9310366702401343 2.26958446119906 6.419355531508499 3.931036504037063 3.26469713216864e-07 2.729272077260428e-08 7.862072775018016" Properties=species:S:1:pos:R:3:forces:R:3 energy=-33.37935256958008 free_energy=-33.37935256958008 stress="3.6429115425562486e-05 -3.416782945464547e-08 -9.419589240555748e-12 -3.416782945464547e-08 3.6469620681600645e-05 -3.514440960472598e-10 -9.419589240555748e-12 -3.514440960472598e-10 3.648005804279819e-05" pbc="T T T"
Cs       2.26958458       1.60483879       3.93103608       0.00000060       0.00000072       0.00000073
Cs       6.80875493       4.81451610      11.79310960      -0.00000024      -0.00000083      -0.00000020
Y       -0.00000123      -0.00000052       0.00000514       0.00000371       0.00000127      -0.00001366
Te       2.54945717       1.80273811       7.86207217       0.00013518       0.00009611       0.00000162
Te       6.52888326       4.61661622       7.86207229      -0.00013521      -0.00009424       0.00000365
Te       5.53402671       1.80273764       6.13893150      -0.00006877       0.00009275       0.00011650
Te       3.54431416       4.61661544       9.58521289       0.00006717      -0.00009345      -0.00011341
Te       3.54431335       4.61661769       6.13893142       0.00006488      -0.00009541       0.00011771
Te       5.53402583       1.80274014       9.58521257      -0.00006724       0.00009307      -0.00011279
