9
Lattice="5.865249223704237 -5.564378048688344e-07 3.38630330483527 1.955082595407819 5.529809898157942 3.3863032261060764 -1.1712576682543051e-07 -1.7924360572052327e-07 6.77260681253831" Properties=species:S:1:pos:R:3:forces:R:3 energy=-42.81169128417969 free_energy=-42.81169128417969 stress="-0.00018000922864302993 -4.302190959037944e-08 1.7293110943228385e-08 -4.302190959037944e-08 -0.0001798952289391309 -4.03232647272489e-09 1.7293110943228385e-08 -4.03232647272489e-09 -0.00017984487931244075" pbc="T T T"
Cs       1.95508239       1.38245191       3.38630332      -0.00000013      -0.00000007       0.00000017
Cs       5.86524936       4.14735702      10.15890971      -0.00000116      -0.00000124       0.00000043
Y       -0.00000122      -0.00000128       0.00000037       0.00001118       0.00000679      -0.00000070
O        1.80682450       1.27761749       6.77260684      -0.00169945      -0.00120038       0.00000059
O        6.01350745       4.25219142       6.77260671       0.00168693       0.00119221       0.00000081
O        4.96183637       1.27761870       4.95105994       0.00084996      -0.00119966      -0.00147074
O        2.85849550       4.25219166       8.59415278      -0.00084883       0.00120166       0.00146934
O        2.85849594       4.25219115       4.95106046      -0.00084764       0.00120062      -0.00147021
O        4.96183658       1.27761837       8.59415298       0.00084940      -0.00119993       0.00147024
