9
Lattice="5.556296073895047 -1.3521966815728052e-07 3.207929022781929 1.8520985568026775 5.2385259792216265 3.2079290349224014 -3.751994355098121e-08 -1.1661588830691857e-08 6.415858110550287" Properties=species:S:1:pos:R:3:forces:R:3 energy=-30.52132225036621 free_energy=-30.52132225036621 stress="-2.4088099962682463e-05 -1.2963968565316009e-08 1.0027618735364285e-09 -1.2963968565316009e-08 -2.4087443307507783e-05 -1.0671620920277292e-08 1.0027618735364285e-09 -1.0671620920277292e-08 -2.4083723474177532e-05" pbc="T T T"
Cu       1.85209756       1.30963006       3.20792894      -0.00000245      -0.00000285      -0.00000030
Cu       5.55629667       3.92889509       9.62378774       0.00000205       0.00000129       0.00000189
As       0.00000005       0.00000006       0.00000027       0.00000141       0.00000082      -0.00000427
Se       2.15444810       1.52342444       6.41585819      -0.00111224      -0.00078583      -0.00000175
Se       5.25394658       3.71510164       6.41585791       0.00110991       0.00078586      -0.00000078
Se       4.47907253       1.52342446       5.07373587       0.00055530      -0.00078405      -0.00096311
Se       2.92932240       3.71510106       7.75798030      -0.00055771       0.00078867       0.00096427
Se       2.92932233       3.71510165       5.07373566      -0.00055537       0.00078525      -0.00096211
Se       4.47907212       1.52342475       7.75797968       0.00055917      -0.00078925       0.00096618
