9
Lattice="5.54098163138027 9.76586730449581e-08 3.1990872683200737 1.8469938797994785 5.224087839553509 3.1990874231667443 -5.576119695450514e-08 1.50218513633609e-07 6.398174633221324" Properties=species:S:1:pos:R:3:forces:R:3 energy=-29.758346557617188 free_energy=-29.758346557617188 stress="-1.5678115232731216e-05 1.5259864483141428e-08 -2.8531580653634592e-08 1.5259864483141428e-08 -1.571091343066655e-05 3.449677166145193e-08 -2.8531580653634592e-08 3.449677166145193e-08 -1.5659979908377863e-05" pbc="T T T"
Cu       1.84699355       1.30602184       3.19908767      -0.00000075      -0.00000034       0.00000104
Cu       5.54098211       3.91806608       9.59726175       0.00000208      -0.00000043      -0.00000167
As      -0.00000055       0.00000029      -0.00000015       0.00000521      -0.00000175      -0.00000137
S        1.92349568       1.36011727       6.39817489      -0.00187069      -0.00132102       0.00000067
S        5.46447980       3.86397111       6.39817504       0.00186771       0.00131971       0.00000353
S        4.57923335       1.36011727       4.86488332       0.00093150      -0.00132000      -0.00161844
S        2.80874206       3.86397097       7.93146536      -0.00093460       0.00132382       0.00161839
S        2.80874144       3.86397093       4.86488396      -0.00093618       0.00132191      -0.00161803
S        4.57923424       1.36011657       7.93146561       0.00093579      -0.00132167       0.00161546
