9
Lattice="4.560534270437986 -5.4237307060183166e-08 2.633025958149327 1.5201780892725527 4.299712630948468 2.6330258710930377 1.9915686672636265e-07 3.420340269601194e-08 5.266051571348854" Properties=species:S:1:pos:R:3:forces:R:3 energy=-40.52592849731445 free_energy=-40.52592849731445 stress="-0.0002020376268774271 1.0425475949205065e-07 -1.0887193724329336e-07 1.0425475949205065e-07 -0.0002020804677158594 8.22340595618698e-08 -1.0887193724329336e-07 8.22340595618698e-08 -0.0002020855899900198" pbc="T T T"
Cu       1.52017805       1.07492797       2.63302559       0.00000140      -0.00000357      -0.00000089
Cu       4.56053398       3.22478319       7.89907708      -0.00000493      -0.00001083      -0.00000574
As       0.00000014       0.00000013       0.00000025      -0.00000366      -0.00000196      -0.00000488
O        1.48836470       1.05243219       5.26605152       0.00349152       0.00247276      -0.00000234
O        4.59234780       3.24728034       5.26605186      -0.00349057      -0.00246656       0.00000097
O        3.81635257       1.05243251       3.92198707      -0.00174361       0.00247490       0.00302577
O        2.26436064       3.24728032       6.61011663       0.00174797      -0.00246978      -0.00302160
O        2.26435973       3.24728054       3.92198713       0.00174809      -0.00247216       0.00303054
O        3.81635238       1.05243294       6.61011686      -0.00174683       0.00247717      -0.00302100
