9
Lattice="5.5409334283956335 1.5431869709386566e-07 3.1990595788099907 1.8469778789080047 5.224042761487942 3.199059710532931 -5.667416820450209e-08 1.212523564014994e-07 6.398119255782513" Properties=species:S:1:pos:R:3:forces:R:3 energy=-29.758342742919922 free_energy=-29.758342742919922 stress="-3.136446684948169e-05 -8.429802633713734e-09 1.2037909558060278e-09 -8.429802633713734e-09 -3.1512900022789836e-05 3.5481417803850945e-09 1.2037909558060278e-09 3.5481417803850945e-09 -3.1406612833961844e-05" pbc="T T T"
Cu       1.84697790       1.30601103       3.19905998       0.00000036       0.00000134       0.00000018
Cu       5.54093330       3.91803322       9.59717948      -0.00000063       0.00000235       0.00000193
As      -0.00000006       0.00000014      -0.00000018      -0.00000005      -0.00000021      -0.00000199
S        1.92345714       1.36008915       6.39811897      -0.00145435      -0.00103378      -0.00000232
S        5.46445477       3.86395317       6.39811895       0.00145906       0.00102913      -0.00000158
S        4.57920504       1.36008948       4.86482200       0.00072771      -0.00102854      -0.00126266
S        2.80870594       3.86395339       7.93141650      -0.00072983       0.00103199       0.00126451
S        2.80870629       3.86395324       4.86482188      -0.00072718       0.00103062      -0.00126201
S        4.57920469       1.36008920       7.93141641       0.00072536      -0.00103229       0.00126481
