9
Lattice="5.556335081766985 2.054778341504805e-08 3.207951513612143 1.8521117694304734 5.238562664142998 3.207951416382621 1.6579519416866745e-08 -1.0735781302045223e-07 6.415902998507665" Properties=species:S:1:pos:R:3:forces:R:3 energy=-30.521324157714844 free_energy=-30.521324157714844 stress="1.0977979400195181e-05 -4.404956843728769e-09 5.463085539503254e-09 -4.404956843728769e-09 1.0983891115756705e-05 -1.3802527121242747e-08 5.463085539503254e-09 -1.3802527121242747e-08 1.0962790838675573e-05" pbc="T T T"
Cu       1.85211121       1.30964072       3.20795176      -0.00000104       0.00000053       0.00000099
Cu       5.55633552       3.92892218       9.62385516       0.00000121       0.00000026       0.00000197
As       0.00000022      -0.00000003      -0.00000048      -0.00000083      -0.00000039       0.00000146
Se       2.15439665       1.52338826       6.41590371       0.00063892       0.00045209      -0.00000204
Se       5.25405012       3.71517430       6.41590288      -0.00063935      -0.00045301      -0.00000297
Se       4.47913696       1.52338804       5.07371335      -0.00032064       0.00045428       0.00055434
Se       2.92930999       3.71517443       7.75809189       0.00031943      -0.00045146      -0.00055432
Se       2.92930978       3.71517424       5.07371337       0.00032131      -0.00045349       0.00055379
Se       4.47913702       1.52338820       7.75809207      -0.00031890       0.00045121      -0.00055324
