9
Lattice="4.56051501973446 1.7710778174890902e-09 2.6330145997494583 1.5201716635516194 4.299695339881129 2.6330146194306656 -8.525164256586396e-09 1.8076283691962033e-08 5.266029214264957" Properties=species:S:1:pos:R:3:forces:R:3 energy=-40.52592468261719 free_energy=-40.52592468261719 stress="-0.0002397905773250386 -8.780811810993328e-08 2.980342728164942e-08 -8.780811810993328e-08 -0.00024022469006013125 -8.57296598155699e-08 2.980342728164942e-08 -8.57296598155699e-08 -0.000239754153881222" pbc="T T T"
Cu       1.52017159       1.07492399       2.63301508       0.00000022      -0.00000117       0.00000522
Cu       4.56051642       3.22477080       7.89904355       0.00001182      -0.00000466      -0.00000236
As       0.00000009      -0.00000008      -0.00000016       0.00000013       0.00000094       0.00000064
O        1.48833268       1.05241004       5.26602874       0.00451171       0.00319517      -0.00000355
O        4.59235363       3.24728573       5.26602957      -0.00451624      -0.00319147       0.00000305
O        3.81634850       1.05241046       3.92194868      -0.00225443       0.00319076       0.00390458
O        2.26433772       3.24728501       6.61010918       0.00225031      -0.00318992      -0.00390971
O        2.26433786       3.24728542       3.92194858       0.00225055      -0.00319171       0.00390995
O        3.81634844       1.05241023       6.61010985      -0.00225371       0.00319219      -0.00390768
