9
Lattice="6.506526943663077 4.630276996147154e-08 3.756545085401875 2.1688423542663515 6.1344124985693265 3.7565450922307417 1.1988775383514631e-08 1.684103997320216e-08 7.513090150038531" Properties=species:S:1:pos:R:3:forces:R:3 energy=-24.975784301757812 free_energy=-24.975784301757812 stress="4.807745062862523e-05 -4.940467146496985e-09 -1.509328839688351e-08 -4.940467146496985e-09 4.807459845324047e-05 -6.152194309549941e-10 -1.509328839688351e-08 -6.152194309549941e-10 4.806996003026143e-05" pbc="T T T"
Cu       2.16884268       1.53360326       3.75654521       0.00000139      -0.00000014       0.00000084
Cu       6.50652689       4.60080930      11.26963505      -0.00000022      -0.00000021      -0.00000053
Bi      -0.00000025      -0.00000005       0.00000009       0.00000093      -0.00000006      -0.00000016
Te       2.49262209       1.76255012       7.51309024      -0.00013533      -0.00009531      -0.00000054
Te       6.18274711       4.37186281       7.51309051       0.00013442       0.00009604       0.00000054
Te       5.26021591       1.76254991       5.91521896       0.00006681      -0.00009517      -0.00011727
Te       3.41515383       4.37186234       9.11096110      -0.00006770       0.00009592       0.00011738
Te       3.41515331       4.37186237       5.91521902      -0.00006740       0.00009426      -0.00011738
Te       5.26021567       1.76255018       9.11096117       0.00006704      -0.00009532       0.00011709
