9
Lattice="5.262003835936593 -4.249245399066437e-08 3.0380193992100946 1.754001244474397 4.961063939774152 3.038019389006361 -7.2053225010380604e-09 -1.7591906564549765e-08 6.076038810900109" Properties=species:S:1:pos:R:3:forces:R:3 energy=-33.448158264160156 free_energy=-33.448158264160156 stress="-0.00011380643991287798 4.088387939304994e-08 1.9908991788497588e-08 4.088387939304994e-08 -0.00011378033377695829 -9.638942088940894e-09 1.9908991788497588e-08 -9.638942088940894e-09 -0.00011383792298147455" pbc="T T T"
Cu       1.75400119       1.24026542       3.03801934      -0.00000003      -0.00000175       0.00000026
Cu       5.26200426       3.72079825       9.11405980       0.00000130       0.00000050       0.00000380
B        0.00000005       0.00000009      -0.00000056      -0.00000069      -0.00000124       0.00000415
S        1.63364074       1.15515831       6.07603954       0.00004858       0.00003338       0.00000364
S        5.38236424       3.80590544       6.07603891      -0.00004750      -0.00003564       0.00000168
S        4.44518346       1.15515865       4.45279302      -0.00002450       0.00003630       0.00003952
S        2.57082105       3.80590670       7.69928334       0.00002530      -0.00003356      -0.00004876
S        2.57082190       3.80590581       4.45279337       0.00002509      -0.00003344       0.00004113
S        4.44518330       1.15515712       7.69928345      -0.00002757       0.00003546      -0.00004578
