9
Lattice="5.640242134424989 -2.2921400584203733e-07 3.2563954865555305 1.880080549692114 5.317671005665443 3.256395392466817 1.456783104425378e-07 -1.2224554475530957e-08 6.512790720788876" Properties=species:S:1:pos:R:3:forces:R:3 energy=-28.434524536132812 free_energy=-28.434524536132812 stress="7.479756459360942e-05 2.3529982406955696e-09 7.17243064940476e-09 2.3529982406955696e-09 7.485459354938939e-05 -4.286226040761676e-09 7.17243064940476e-09 -4.286226040761676e-09 7.481799548259005e-05" pbc="T T T"
Cu       1.88008030       1.32941763       3.25639486      -0.00000179       0.00000048      -0.00000207
Cu       5.64024242       3.98825311       9.76918579       0.00000121       0.00000019      -0.00000062
Bi      -0.00000016       0.00000001       0.00000017      -0.00000136       0.00000098       0.00000126
S        2.01403685       1.42413880       6.51279056      -0.00353008      -0.00249626      -0.00000016
S        5.50628608       3.89353207       6.51279104       0.00353000       0.00249657       0.00000016
S        4.63322435       1.42413881       5.00060282       0.00176829      -0.00249739      -0.00305520
S        2.88709887       3.89353175       8.02497942      -0.00176565       0.00249511       0.00305555
S        2.88709901       3.89353192       5.00060243      -0.00176537       0.00249621      -0.00305624
S        4.63322366       1.42413892       8.02497935       0.00176475      -0.00249600       0.00305732
