9
Lattice="5.887458263254335 1.7546338310140933e-07 3.399125423807218 1.9624862205078644 5.550748983599652 3.3991254803968562 -4.450916701362248e-09 6.616057654332389e-08 6.798250855323597" Properties=species:S:1:pos:R:3:forces:R:3 energy=-29.033599853515625 free_energy=-29.033599853515625 stress="2.2375343178282492e-05 -2.306674318219848e-08 -2.4104584994688594e-09 -2.306674318219848e-08 2.2400281523005106e-05 -3.4913809621173186e-09 -2.4104584994688594e-09 -3.4913809621173186e-09 2.2398771761800162e-05" pbc="T T T"
Cu       1.96248601       1.38768790       3.39912518      -0.00000035       0.00000007      -0.00000108
Cu       5.88745872       4.16306236      10.19737654       0.00000049       0.00000154       0.00000024
Bi       0.00000028       0.00000013       0.00000005      -0.00000295      -0.00000125       0.00000083
Se       2.36323930       1.67106260       6.79825088      -0.00015038      -0.00010698      -0.00000081
Se       5.48670518       3.87968666       6.79825077       0.00015080       0.00010644      -0.00000071
Se       4.70583847       1.67106221       5.44575115       0.00007659      -0.00010790      -0.00012974
Se       3.14410557       3.87968640       8.15075064      -0.00007427       0.00010628       0.00013106
Se       3.14410602       3.87968603       5.44575106      -0.00007530       0.00010888      -0.00013222
Se       4.70583838       1.67106260       8.15075078       0.00007533      -0.00010706       0.00013235
