9
Lattice="4.275283393792594 -1.7828837516911007e-07 2.4683358646490934 1.4250943898480142 4.0307751545345125 2.468335702975371 1.9261655127283714e-08 -1.8438903125125745e-07 4.936671695936026" Properties=species:S:1:pos:R:3:forces:R:3 energy=-42.618934631347656 free_energy=-42.618934631347656 stress="0.0008838895591907203 -5.020982030146115e-08 3.9146716090954214e-08 -5.020982030146115e-08 0.0008839437505230308 2.494557627130689e-08 3.9146716090954214e-08 2.494557627130689e-08 0.0008841492235660553" pbc="T T T"
Cu       1.42509355       1.00769353       2.46833596      -0.00001099      -0.00000374       0.00000052
Cu       4.27528279       3.02308082       7.40500792      -0.00000617      -0.00000170       0.00000524
B       -0.00000027      -0.00000029       0.00000013       0.00000170       0.00000340      -0.00000387
O        1.29688476       0.91703537       4.93667185       0.00569272       0.00402576      -0.00000225
O        4.40349350       3.11373916       4.93667137      -0.00569254      -0.00402564      -0.00000162
O        3.62684140       0.91703574       3.59147070      -0.00284195       0.00402772       0.00492495
O        2.07353689       3.11373937       6.28187243       0.00284743      -0.00402385      -0.00492692
O        2.07353729       3.11373979       3.59147060       0.00284752      -0.00402260       0.00492680
O        3.62684148       0.91703573       6.28187202      -0.00283667       0.00402027      -0.00492346
