9
Lattice="5.887420543129317 1.5981473871896245e-07 3.3991040534702823 1.962473624991868 5.550713496230737 3.39910412285503 1.7132228905339282e-07 2.0612181771091252e-07 6.798207810201608" Properties=species:S:1:pos:R:3:forces:R:3 energy=-29.03360366821289 free_energy=-29.03360366821289 stress="1.0494100024516229e-05 1.0622657420356063e-08 1.5191393032409906e-08 1.0622657420356063e-08 1.0497480616322719e-05 -5.2761212288032766e-08 1.5191393032409906e-08 -5.2761212288032766e-08 1.0475195267645177e-05" pbc="T T T"
Cu       1.96247330       1.38767841       3.39910400       0.00000051      -0.00000044       0.00000008
Cu       5.88742081       4.16303551      10.19731206      -0.00000011      -0.00000060       0.00000035
Bi       0.00000003       0.00000027      -0.00000032      -0.00000074      -0.00000235       0.00000255
Se       2.36322856       1.67105517       6.79820764      -0.00048408      -0.00034219       0.00000003
Se       5.48666479       3.87965831       6.79820829       0.00048950       0.00034547      -0.00000035
Se       4.70580638       1.67105483       5.44571952       0.00024146      -0.00034340      -0.00041921
Se       3.14408840       3.87965923       8.15069598      -0.00024346       0.00034316       0.00042014
Se       3.14408841       3.87965841       5.44572055      -0.00024430       0.00034361      -0.00042215
Se       4.70580665       1.67105538       8.15069615       0.00024126      -0.00034328       0.00041865
