9
Lattice="4.476529798760297 -2.8114047493857583e-07 2.584525860949435 1.4921763587076151 4.220512896823117 2.584525819063885 -6.316039724742048e-08 -9.596025608211909e-08 5.169051831295896" Properties=species:S:1:pos:R:3:forces:R:3 energy=-37.18170928955078 free_energy=-37.18170928955078 stress="-7.855018338887021e-05 6.268032848311123e-08 2.662935116859444e-08 6.268032848311123e-08 -7.848325185477734e-05 2.817684574552004e-08 2.662935116859444e-08 2.817684574552004e-08 -7.846699736546725e-05" pbc="T T T"
Cu       1.49217698       1.05512752       2.58452622       0.00000558      -0.00000596       0.00000144
Cu       4.47652852       3.16538323       7.75357764      -0.00001038      -0.00001152       0.00000174
Ga       0.00000003      -0.00000012      -0.00000032       0.00000037      -0.00000211       0.00001379
O        1.52029404       1.07501073       5.16905166      -0.00085640      -0.00060125      -0.00000265
O        4.44841159       3.14550213       5.16905168       0.00085154       0.00060463       0.00000064
O        3.71638222       1.07501103       3.90113912       0.00042869      -0.00060276      -0.00074571
O        2.25232445       3.14550243       6.43696391      -0.00041962       0.00060507       0.00073721
O        2.25232447       3.14550253       3.90113958      -0.00042380       0.00061048      -0.00074349
O        3.71638213       1.07501060       6.43696446       0.00042381      -0.00059659       0.00073715
