9
Lattice="6.167229542514382 -1.527427883584981e-07 3.560651798705183 2.0557430769459066 5.814519395605386 3.5606517292238204 1.9515735350601345e-07 5.29001821678864e-08 7.121303259387852" Properties=species:S:1:pos:R:3:forces:R:3 energy=-24.786670684814453 free_energy=-24.786670684814453 stress="-1.7758352441887837e-06 3.741174925409041e-09 -1.1687185441644488e-08 3.741174925409041e-09 -1.7939030385605292e-06 4.749038051699017e-09 -1.1687185441644488e-08 4.749038051699017e-09 -1.7467576753915637e-06" pbc="T T T"
Cu       2.05574341       1.45362950       3.56065112      -0.00000002      -0.00000473      -0.00000163
Cu       6.16722966       4.36089099      10.68195478      -0.00000062       0.00000548      -0.00000074
Ga      -0.00000088      -0.00000020       0.00000137       0.00000235      -0.00000009      -0.00000342
Te       2.26564396       1.60205128       7.12130293      -0.00037619      -0.00026941      -0.00000076
Te       5.95732919       4.21246798       7.12130287       0.00037558       0.00026789      -0.00000011
Te       5.03440823       1.60205069       5.52275721       0.00018919      -0.00026782      -0.00032373
Te       3.18856558       4.21246746       8.71984960      -0.00018780       0.00026830       0.00032887
Te       3.18856473       4.21246810       5.52275750      -0.00018977       0.00027005      -0.00032634
Te       5.03440735       1.60205136       8.71984978       0.00018734      -0.00026961       0.00032779
