9
Lattice="5.548255623738004 -6.024904276632453e-08 3.2032868990754713 1.8494185310805775 5.230945175863589 3.203286818296226 1.7252265599655206e-07 2.3057958570952167e-08 6.406573499333007" Properties=species:S:1:pos:R:3:forces:R:3 energy=-28.34366798400879 free_energy=-28.34366798400879 stress="-4.0383365558227524e-05 -2.851366254219556e-08 -1.7943056818126024e-08 -2.851366254219556e-08 -4.0367365727433935e-05 2.7316447770431296e-08 -1.7943056818126024e-08 2.7316447770431296e-08 -4.036968311993405e-05" pbc="T T T"
Cu       1.84941880       1.30773642       3.20328675       0.00000007       0.00000038       0.00000015
Cu       5.54825431       3.92320855       9.60986107      -0.00000262      -0.00000077       0.00000224
Ga       0.00000034      -0.00000009       0.00000071      -0.00000080      -0.00000137      -0.00000041
Se       2.10773374       1.49039345       6.40657332      -0.00015227      -0.00010664       0.00000244
Se       5.28993929       3.74055267       6.40657301       0.00015420       0.00011039       0.00000070
Se       4.49438831       1.49039343       5.02863815       0.00007815      -0.00011237      -0.00013243
Se       2.90328632       3.74055181       7.78450879      -0.00007577       0.00010598       0.00013471
Se       2.90328682       3.74055156       5.02863782      -0.00007681       0.00011006      -0.00013673
Se       4.49438940       1.49039285       7.78450933       0.00007584      -0.00010559       0.00012934
