9
Lattice="4.476582369217576 -3.91215906194554e-08 2.584556073253735 1.4921940696571847 4.220562476794727 2.584556101886532 6.201009996038235e-09 3.945263176933595e-08 5.1691121357669925" Properties=species:S:1:pos:R:3:forces:R:3 energy=-37.18171691894531 free_energy=-37.18171691894531 stress="-6.201082578627393e-05 3.195988540483086e-08 -1.7597555412862675e-08 3.195988540483086e-08 -6.19453567196615e-05 3.472050735808807e-08 -1.7597555412862675e-08 3.472050735808807e-08 -6.204736564541236e-05" pbc="T T T"
Cu       1.49219595       1.05514102       2.58455621       0.00001755       0.00000234       0.00000047
Cu       4.47658429       3.16542200       7.75366666       0.00001928      -0.00000027      -0.00001345
Ga       0.00000022       0.00000000      -0.00000011      -0.00000400      -0.00000642       0.00000009
O        1.52030067       1.07501562       5.16911210      -0.00080058      -0.00056104       0.00000035
O        4.44847499       3.14554726       5.16911349       0.00080232       0.00057249       0.00000905
O        3.71643101       1.07501504       3.90117506       0.00039165      -0.00056890      -0.00069284
O        2.25234365       3.14554703       6.43704851      -0.00040842       0.00056316       0.00069284
O        2.25234365       3.14554698       3.90117605      -0.00041008       0.00056392      -0.00069039
O        3.71643130       1.07501503       6.43704926       0.00039225      -0.00056532       0.00069396
