9
Lattice="6.167264862320239 -5.48873273113404e-08 3.560671474390619 2.0557548248170048 5.814552478853035 3.56067160869635 1.9815287755212218e-08 1.7850184892480192e-07 7.121342914460134" Properties=species:S:1:pos:R:3:forces:R:3 energy=-24.786670684814453 free_energy=-24.786670684814453 stress="1.9149540548824007e-06 4.474837211887461e-08 -2.442891933185365e-08 4.474837211887461e-08 1.9714670997927897e-06 -3.776944978994834e-08 -2.442891933185365e-08 -3.776944978994834e-08 1.9393246475374326e-06" pbc="T T T"
Cu       2.05575380       1.45363864       3.56067233      -0.00000432       0.00000112       0.00000371
Cu       6.16726568       4.36091422      10.68201319       0.00000538       0.00000006      -0.00000461
Ga       0.00000082       0.00000025      -0.00000114      -0.00000227      -0.00000102       0.00000464
Te       2.26565784       1.60206264       7.12134256      -0.00039314      -0.00027542      -0.00000069
Te       5.95736104       4.21248972       7.12134466       0.00039577       0.00027695       0.00000561
Te       5.03443558       1.60206215       5.52278902       0.00019792      -0.00027991      -0.00034024
Te       3.18858332       4.21249166       8.71989717      -0.00019721       0.00027752       0.00033617
Te       3.18858338       4.21248951       5.52278924      -0.00020083       0.00027692      -0.00034056
Te       5.03443731       1.60206167       8.71989697       0.00019881      -0.00027620       0.00033601
