9
Lattice="5.36996738855374 1.6441311337567287e-09 3.100352388058342 1.7899891291748113 5.06285398621773 3.1003523913374904 8.213895510408123e-08 6.209711657408664e-08 6.200704633847899" Properties=species:S:1:pos:R:3:forces:R:3 energy=-28.423423767089844 free_energy=-28.423423767089844 stress="-0.0002937601529993117 2.8188972933662626e-08 1.5212736625969114e-09 2.8188972933662626e-08 -0.00029377834289334714 -5.848774353722774e-09 1.5212736625969114e-09 -5.848774353722774e-09 -0.0002938444376923144" pbc="T T T"
Cu       1.78998835       1.26571345       3.10035255      -0.00000083      -0.00000029       0.00000023
Cu       5.36996768       3.79714130       9.30105651       0.00000011       0.00000057      -0.00000106
Ga      -0.00000013       0.00000001       0.00000004       0.00000051       0.00000127       0.00000295
S        1.89165420       1.33760075       6.20070458      -0.00416005      -0.00294392      -0.00000023
S        5.26830287       3.72525267       6.20070508       0.00415909       0.00294060       0.00000119
S        4.42414062       1.33760067       4.73857247       0.00208041      -0.00294363      -0.00360362
S        2.73581621       3.72525364       7.66283705      -0.00207783       0.00294239       0.00359960
S        2.73581540       3.72525300       4.73857304      -0.00208347       0.00294426      -0.00360090
S        4.42414122       1.33760078       7.66283637       0.00208198      -0.00294115       0.00360196
