9
Lattice="4.828149789455953 1.108548595147872e-07 2.7875335768673875 1.6093833308073104 4.552023263479899 2.787533640710215 1.5004378085336996e-07 1.8428810392566838e-07 5.575066893851284" Properties=species:S:1:pos:R:3:forces:R:3 energy=-43.673377990722656 free_energy=-43.673377990722656 stress="0.00041408310062251985 -6.730608248517456e-08 -4.401189457325927e-08 -6.730608248517456e-08 0.0004141545214224607 -6.745551672793226e-08 -4.401189457325927e-08 -6.745551672793226e-08 0.00041419980698265135" pbc="T T T"
Cu       1.60938267       1.13800595       2.78753348      -0.00000451       0.00000070       0.00000094
Cu       4.82814943       3.41401815       8.36259973      -0.00000365       0.00000304      -0.00000730
Ir      -0.00000003       0.00000004       0.00000029       0.00000064      -0.00000830      -0.00000774
O        1.52614233       1.07914570       5.57506676      -0.00204623      -0.00144890       0.00000111
O        4.91139069       3.47287832       5.57506731       0.00205326       0.00145152       0.00000019
O        4.06507888       1.07914524       4.10921238       0.00102717      -0.00145170      -0.00177291
O        2.37245518       3.47287738       7.04092253      -0.00102937       0.00145361       0.00178555
O        2.37245499       3.47287734       4.10921172      -0.00102708       0.00145459      -0.00178114
O        4.06507906       1.07914615       7.04092235       0.00102925      -0.00145477       0.00178111
