9
Lattice="5.517639621287598 -1.4596622573079555e-08 3.1856110326484153 1.8392131957017632 5.202080692854329 3.1856110285473687 2.798585434633938e-08 1.4766287355718253e-08 6.371222016823965" Properties=species:S:1:pos:R:3:forces:R:3 energy=-34.48988723754883 free_energy=-34.48988723754883 stress="0.00015411571075674146 -4.370359008021296e-08 -6.911406114085139e-09 -4.370359008021296e-08 0.00015414196241181344 1.2523379666617984e-08 -6.911406114085139e-09 1.2523379666617984e-08 0.0001541738456580788" pbc="T T T"
Cu       1.83921277       1.30052049       3.18561088      -0.00000068       0.00000082      -0.00000086
Cu       5.51763952       3.90155985       9.55683330      -0.00000005      -0.00000191       0.00000057
Ir       0.00000018      -0.00000081      -0.00000023      -0.00000101       0.00000219      -0.00000074
Se       2.04221343       1.44406314       6.37122185      -0.00002639      -0.00001842       0.00000019
Se       5.31464011       3.75801775       6.37122162       0.00002613       0.00001817      -0.00000036
Se       4.49653244       1.44406389       4.95422061       0.00001413      -0.00002032      -0.00002538
Se       2.86031983       3.75801785       7.78822451      -0.00001262       0.00001911       0.00002567
Se       2.86032013       3.75801761       4.95422012      -0.00001353       0.00001987      -0.00002363
Se       4.49653300       1.44406297       7.78822374       0.00001404      -0.00001945       0.00002455
