9
Lattice="5.322355288860757 -9.914241380800628e-08 3.072863139106124 1.774118403471604 5.017964233969545 3.0728630224980185 7.918353059517968e-08 -8.682393262559262e-08 6.145726141062366" Properties=species:S:1:pos:R:3:forces:R:3 energy=-36.528892517089844 free_energy=-36.528892517089844 stress="1.0912266589002684e-05 -4.69811611836235e-09 -2.0999693095546945e-09 -4.69811611836235e-09 1.096546202461468e-05 1.2223509315845149e-08 -2.0999693095546945e-09 1.2223509315845149e-08 1.0934311831078958e-05" pbc="T T T"
Cu       1.77411766       1.25449089       3.07286382      -0.00000127      -0.00000131       0.00000420
Cu       5.32235594       3.76347291       9.21858925       0.00000219      -0.00000145       0.00000147
Ir       0.00000091      -0.00000094       0.00000275       0.00000588      -0.00000801       0.00002192
S        1.86885737       1.32148153       6.14572607      -0.00036085      -0.00025421      -0.00000186
S        5.22761657       3.69648233       6.14572665       0.00036007       0.00025588       0.00000083
S        4.38792691       1.32148210       4.69134033       0.00018153      -0.00025332      -0.00031924
S        2.70854677       3.69648302       7.60011033      -0.00018102       0.00025791       0.00030595
S        2.70854634       3.69648299       4.69133985      -0.00018403       0.00025719      -0.00031918
S        4.38792669       1.32148138       7.60011014       0.00017783      -0.00025302       0.00030619
