9
Lattice="4.595478958913366 2.8390035663538563e-07 2.6532008198432755 1.5318265640611102 4.33265916410522 2.653200860096997 2.772081331243193e-07 2.453162603723272e-07 5.306401159548003" Properties=species:S:1:pos:R:3:forces:R:3 energy=-44.66757583618164 free_energy=-44.66757583618164 stress="5.4379208449972793e-05 4.4384329100921605e-08 1.4486940358438005e-07 4.4384329100921605e-08 5.435106868389994e-05 -8.840994070169472e-08 1.4486940358438005e-07 -8.840994070169472e-08 5.443029658636078e-05" pbc="T T T"
Cu       1.53182658       1.08316262       2.65320163       0.00000486      -0.00001604       0.00000738
Cu       4.59547899       3.24949573       7.95960290      -0.00000235       0.00000216       0.00000574
Mo       0.00000074      -0.00000078      -0.00000035      -0.00000218       0.00000216       0.00000336
O        1.56948115       1.10979100       5.30640069      -0.00712264      -0.00504172      -0.00000213
O        4.55782447       3.22286985       5.30640149       0.00712204       0.00503981       0.00000462
O        3.81073828       1.10979146       4.01241018       0.00356036      -0.00503677      -0.00616693
O        2.31656658       3.22287026       6.60039141      -0.00355744       0.00504035       0.00615859
O        2.31656804       3.22286849       4.01241099      -0.00356191       0.00504613      -0.00617719
O        3.81073861       1.10979056       6.60039304       0.00355870      -0.00503594       0.00616527
