9
Lattice="5.756437115506175 1.9630556218447884e-07 3.3234803434046074 1.9188125226270751 5.4272208881498045 3.323480402791232 -4.476196958422352e-08 4.10821217742924e-08 6.646960764339168" Properties=species:S:1:pos:R:3:forces:R:3 energy=-36.91939163208008 free_energy=-36.91939163208008 stress="-4.49504004791379e-05 1.7445421462980448e-07 -2.7193006957304533e-08 1.7445421462980448e-07 -4.503389209276065e-05 4.873336933997052e-08 -2.7193006957304533e-08 4.873336933997052e-08 -4.514517786446959e-05" pbc="T T T"
Cu       1.91881225       1.35680546       3.32348036       0.00000010      -0.00000037      -0.00000068
Cu       5.75643703       4.07041540       9.97044090      -0.00000193      -0.00000095      -0.00000069
Mo       0.00000038      -0.00000020      -0.00000028      -0.00000938       0.00000437       0.00000884
Se       1.96871240       1.39208982       6.64696074       0.00088347       0.00062564      -0.00000006
Se       5.70653705       4.03513117       6.64696081      -0.00087848      -0.00062112       0.00000117
Se       4.77208126       1.39208970       5.02843461      -0.00044268       0.00062661       0.00076762
Se       2.90316836       4.03513185       8.26548721       0.00044962      -0.00063561      -0.00077776
Se       2.90316841       4.03513188       5.02843448       0.00044780      -0.00063316       0.00077698
Se       4.77208128       1.39208937       8.26548723      -0.00044844       0.00063457      -0.00077550
