9
Lattice="4.335895919598077 1.5506527463397068e-07 2.50333043353572 1.4452987076680412 4.087921957910076 2.503330569319741 -5.5046083610733465e-08 1.2737727281199416e-07 5.00666096241413" Properties=species:S:1:pos:R:3:forces:R:3 energy=-36.67724609375 free_energy=-36.67724609375 stress="-2.0784509615623392e-05 9.997059891020399e-08 2.7398083801699613e-08 9.997059891020399e-08 -2.1014619051129557e-05 -4.876616443993953e-08 2.7398083801699613e-08 -4.876616443993953e-08 -2.0983499780413695e-05" pbc="T T T"
Cu       1.44526355       1.02197768       2.50341126      -0.00026660      -0.00002190       0.00061666
Cu       4.33586177       3.06594119       7.51007063      -0.00026544      -0.00001157       0.00060866
N        0.00001294      -0.00000085      -0.00002907      -0.00012648       0.00000078       0.00028812
O        1.29687250       0.91701929       5.00663114       0.00012493       0.00002789      -0.00022193
O        4.48433401       3.17089578       5.00663320       0.00011849       0.00002348      -0.00021408
O        3.68746858       0.91703409       3.62643535       0.00014234      -0.00004768      -0.00026643
O        2.09373542       3.17091195       6.38685583       0.00012565      -0.00004411      -0.00030267
O        2.09375051       3.17089208       3.62642707       0.00007999       0.00003076      -0.00025749
O        3.68747901       0.91701786       6.38685291       0.00006688       0.00003958      -0.00024998
