9
Lattice="4.335879382720821 -1.9609752615715305e-07 2.5033214555250103 1.4452930118810061 4.087905708096277 2.5033213356845625 -6.568930404736798e-08 -1.9322333823791543e-07 5.0066430248272376" Properties=species:S:1:pos:R:3:forces:R:3 energy=-36.677242279052734 free_energy=-36.677242279052734 stress="-3.3381573302904144e-05 3.185132158023407e-08 2.3164896845173644e-07 3.185132158023407e-08 -3.29711583617609e-05 1.4388692193278985e-07 2.3164896845173644e-07 1.4388692193278985e-07 -3.352565909153782e-05" pbc="T T T"
Cu       1.44530247       1.02201103       2.50326006       0.00006912       0.00026402      -0.00046441
Cu       4.33588885       3.06595824       7.50990674       0.00006966       0.00023301      -0.00044214
N       -0.00000518      -0.00001037       0.00002343       0.00004610       0.00010494      -0.00022346
O        1.29686772       0.91701272       5.00666372       0.00004101      -0.00006270       0.00015023
O        4.48430982       3.17087798       5.00666521      -0.00014973      -0.00015903       0.00016601
O        3.68744977       0.91700593       3.62645540      -0.00007415       0.00000501       0.00027287
O        2.09372281       3.17086576       6.38686217      -0.00001681      -0.00012112       0.00011897
O        2.09371555       3.17088022       3.62644833       0.00004935      -0.00019717       0.00028288
O        3.68743767       0.91701921       6.38685794      -0.00003433      -0.00006652       0.00013709
