9
Lattice="5.502420409628351 3.853823953171919e-09 3.1768236968921197 1.8341400872064337 5.187731846821608 3.1768237886384747 -7.958501777586083e-08 5.60907531044744e-08 6.353647531629538" Properties=species:S:1:pos:R:3:forces:R:3 energy=-32.275150299072266 free_energy=-32.275150299072266 stress="-2.211340870417189e-05 -5.6777306411959216e-08 -6.228258797591479e-09 -5.6777306411959216e-08 -2.2110656573204324e-05 2.3085268807676584e-08 -6.228258797591479e-09 2.3085268807676584e-08 -2.2066406017984264e-05" pbc="T T T"
Cu       1.83413995       1.29693336       3.17682386      -0.00000086       0.00000197      -0.00000019
Cu       5.50242037       3.89079882       9.53047083       0.00000053      -0.00000018      -0.00000162
P        0.00000000       0.00000009      -0.00000022       0.00000124       0.00000047      -0.00000757
S        1.76667072       1.24922515       6.35364760       0.00005460       0.00004029      -0.00000029
S        5.56988934       3.93850682       6.35364774      -0.00005627      -0.00004059       0.00000153
S        4.61908522       1.24922503       4.70680567      -0.00002581       0.00003815       0.00004685
S        2.71747563       3.93850665       8.00048964       0.00002462      -0.00003356      -0.00004172
S        2.71747541       3.93850659       4.70680537       0.00002766      -0.00004250       0.00004768
S        4.61908502       1.24922519       8.00048936      -0.00002599       0.00003564      -0.00004506
