9
Lattice="4.427397141299925 3.425116622104667e-08 2.5561588217767772 1.4757992067028836 4.1741892750168015 2.5561586012683453 2.630133237770609e-07 -8.408806969913192e-08 5.112317188001126" Properties=species:S:1:pos:R:3:forces:R:3 energy=-45.48223876953125 free_energy=-45.48223876953125 stress="-8.548462938051671e-05 3.930436065502363e-08 3.462412578869589e-08 3.930436065502363e-08 -8.562958828406408e-05 -6.212901837443496e-08 3.462412578869589e-08 -6.212901837443496e-08 -8.565677853766829e-05" pbc="T T T"
Cu       1.47579940       1.04354764       2.55615840       0.00000292       0.00000396      -0.00000435
Cu       4.42739682       3.13064143       7.66847675      -0.00000810      -0.00000503       0.00000694
P        0.00000005       0.00000034       0.00000019      -0.00000059      -0.00000028       0.00000445
O        1.37705141       0.97372275       5.11231741      -0.00023127      -0.00015914      -0.00000032
O        4.52614545       3.20046677       5.11231705       0.00022840       0.00016057      -0.00000063
O        3.73887140       0.97372268       3.74871992       0.00011611      -0.00016177      -0.00019908
O        2.16432553       3.20046690       6.47591482      -0.00010943       0.00016081       0.00019407
O        2.16432538       3.20046693       3.74871966      -0.00011551       0.00016618      -0.00020015
O        3.73887166       0.97372215       6.47591440       0.00011671      -0.00016487       0.00020015
