9
Lattice="5.546175897323902 -5.962933423447207e-08 3.202086070656339 1.848725246074943 5.228985052782671 3.2020860651379346 -6.612518377557764e-08 -5.35161664258241e-08 6.404172255844846" Properties=species:S:1:pos:R:3:forces:R:3 energy=-30.685935974121094 free_energy=-30.685935974121094 stress="-4.069349597557448e-05 -5.701960015258578e-10 4.312468160350136e-09 -5.701960015258578e-10 -4.065312896273099e-05 5.675084846501477e-09 4.312468160350136e-09 5.675084846501477e-09 -4.06699109589681e-05" pbc="T T T"
Cu       1.84872520       1.30724613       3.20208621      -0.00000005      -0.00000010       0.00000025
Cu       5.54617569       3.92173867       9.60625827      -0.00000066       0.00000017      -0.00000003
P        0.00000024       0.00000030      -0.00000021      -0.00000167       0.00000010      -0.00000077
Se       1.87056453       1.32268883       6.40417195      -0.00289080      -0.00204432      -0.00000144
Se       5.52433669       3.90629632       6.40417211       0.00289303       0.00204572      -0.00000020
Se       4.61089363       1.32268877       4.82204269       0.00144626      -0.00204515      -0.00250584
Se       2.78400736       3.90629584       7.98630215      -0.00144635       0.00204477       0.00250679
Se       2.78400746       3.90629630       4.82204229      -0.00144590       0.00204512      -0.00250486
Se       4.61089355       1.32268865       7.98630213       0.00144625      -0.00204626       0.00250605
