9
Lattice="4.651583843031644 1.7768599239470226e-07 2.6855932961378994 1.5505280779203043 4.385555737148949 2.6855933607101887 2.4621286099003048e-08 9.649456884040675e-08 5.3711865496304085" Properties=species:S:1:pos:R:3:forces:R:3 energy=-45.070594787597656 free_energy=-45.070594787597656 stress="-8.994270319817588e-05 4.297104894135373e-08 1.2350051292742137e-07 4.297104894135373e-08 -8.990657806862146e-05 -1.0492554736174498e-07 1.2350051292742137e-07 -1.0492554736174498e-07 -9.003098239190876e-05" pbc="T T T"
Cu       1.55052838       1.09638784       2.68559296       0.00000083      -0.00000133      -0.00000399
Cu       4.65158590       3.28916944       8.05677728       0.00001389       0.00001311      -0.00001924
Ru       0.00000005      -0.00000003      -0.00000130       0.00000021       0.00000883       0.00003026
O        1.50942665       1.06732578       5.37118753       0.00457674       0.00323036       0.00001060
O        4.69268599       3.31822931       5.37118809      -0.00458288      -0.00323671       0.00001466
O        3.89687031       1.06732542       3.99279572      -0.00228518       0.00321823       0.00396216
O        2.30524035       3.31823129       6.74957835       0.00230137      -0.00325006      -0.00398713
O        2.30524034       3.31822879       3.99279541       0.00227401      -0.00322396       0.00395882
O        3.89687029       1.06732607       6.74957858      -0.00229850       0.00324130      -0.00396615
