9
Lattice="5.270641174775962 1.3241881064514995e-08 3.04300604176708 1.7568803333520646 4.969208675837006 3.0430061642653747 -1.1650145139029484e-07 6.765020927103309e-08 6.086012285320544" Properties=species:S:1:pos:R:3:forces:R:3 energy=-37.12299346923828 free_energy=-37.12299346923828 stress="-5.616100679617375e-05 9.427159497477078e-09 7.132388901709419e-09 9.427159497477078e-09 -5.619487274088897e-05 -3.55677398644616e-09 7.132388901709419e-09 -3.55677398644616e-09 -5.616931593976915e-05" pbc="T T T"
Cu       1.75688058       1.24230207       3.04300634       0.00000168      -0.00000095       0.00000062
Cu       5.27064144       3.72690701       9.12901929       0.00000119      -0.00000013       0.00000272
Ru       0.00000263      -0.00000178       0.00000098       0.00001664      -0.00001085       0.00000760
S        1.86243231       1.31693880       6.08601238      -0.00278264      -0.00196245       0.00000068
S        5.16508805       3.65226993       6.08601190       0.00277358       0.00196645      -0.00000054
S        4.33942410       1.31693932       4.65592013       0.00138670      -0.00196269      -0.00240970
S        2.68809595       3.65227053       7.51610431      -0.00139150       0.00196713       0.00240242
S        2.68809640       3.65227033       4.65591911      -0.00139180       0.00196639      -0.00240779
S        4.33942395       1.31693889       7.51610331       0.00138596      -0.00196308       0.00240386
