9
Lattice="5.479916748922571 1.6763705028520193e-07 3.1638313609221584 1.8266391334724823 5.1665150140550065 3.1638312585314994 6.462732075626107e-08 -7.970383744800978e-08 6.32766260990646" Properties=species:S:1:pos:R:3:forces:R:3 energy=-33.55087661743164 free_energy=-33.55087661743164 stress="-0.000114336064143572 3.6974565631453515e-08 7.073647445565712e-09 3.6974565631453515e-08 -0.00011437903594924137 -2.5857728402911562e-08 7.073647445565712e-09 -2.5857728402911562e-08 -0.00011440045636845753" pbc="T T T"
Cu       1.82663898       1.29162815       3.16383152      -0.00000040      -0.00000164       0.00000058
Cu       5.47991721       3.87488782       9.49149389       0.00000061       0.00000389       0.00000021
Rh       0.00000059       0.00000035      -0.00000105      -0.00000191      -0.00000184       0.00000433
Se       2.03034538       1.43566994       6.32766262      -0.00868855      -0.00614601       0.00000132
Se       5.27621001       3.73084417       6.32766278       0.00869041       0.00614671       0.00000068
Se       4.46474391       1.43567064       4.92216166       0.00434429      -0.00614390      -0.00752473
Se       2.84181098       3.73084519       7.73316389      -0.00434381       0.00614131       0.00752081
Se       2.84181182       3.73084399       4.92216170      -0.00434479       0.00614430      -0.00752585
Se       4.46474494       1.43567005       7.73316390       0.00434416      -0.00614278       0.00752263
