9
Lattice="4.750716647489965 -1.0237901628330207e-07 2.742827519873694 1.583572165726648 4.479018136100161 2.7428274394709575 -7.381544074204242e-08 -1.5066822856087043e-07 5.485655167599553" Properties=species:S:1:pos:R:3:forces:R:3 energy=-40.10163879394531 free_energy=-40.10163879394531 stress="0.00021207121608313173 2.3789718639477542e-08 -6.5101151136559565e-09 2.3789718639477542e-08 0.00021212986030150205 8.430367515188664e-09 -6.5101151136559565e-09 8.430367515188664e-09 0.0002120864810422063" pbc="T T T"
Cu       1.58357172       1.11975413       2.74282912      -0.00000315       0.00000031       0.00001034
Cu       4.75071756       3.35926193       8.22848172       0.00000759      -0.00000968      -0.00000974
Rh      -0.00000017       0.00000025      -0.00000016       0.00000369      -0.00000471      -0.00000005
O        1.55960295       1.10280702       5.48565522      -0.00160182      -0.00112501      -0.00000125
O        4.77468588       3.37621103       5.48565707       0.00160015       0.00112712       0.00001006
O        3.97091458       1.10280576       4.09348347       0.00079522      -0.00112838      -0.00138080
O        2.36337259       3.37621357       6.87782504      -0.00080320       0.00113654       0.00137603
O        2.36337456       3.37621149       4.09348253      -0.00079712       0.00112787      -0.00138724
O        3.97091528       1.10280627       6.87782705       0.00079900      -0.00112388       0.00138295
