9
Lattice="5.483534723808882 9.81921043153257e-08 3.165920211711268 1.8278450065423808 5.169925447466907 3.1659202012676855 5.131175288401387e-08 2.349211026332684e-08 6.3318403345480325" Properties=species:S:1:pos:R:3:forces:R:3 energy=-35.230796813964844 free_energy=-35.230796813964844 stress="1.1767179785238113e-05 -2.8034628840600817e-08 -8.769045045653456e-09 -2.8034628840600817e-08 1.1927417290280573e-05 -1.1715450831673024e-08 -8.769045045653456e-09 -1.1715450831673024e-08 1.1789418749685865e-05" pbc="T T T"
Cu       1.82784548       1.29248268       3.16591974       0.00000164       0.00000285      -0.00000129
Cu       5.48353410       3.87744293       9.49776009      -0.00000074      -0.00000305      -0.00000178
Ru       0.00000029       0.00000017      -0.00000067      -0.00000060       0.00000007       0.00000070
Se       2.00280144       1.41619524       6.33184001       0.00081287       0.00057772      -0.00000138
Se       5.30857824       3.75373028       6.33184020      -0.00081308      -0.00057661      -0.00000129
Se       4.48213403       1.41619500       4.90039757      -0.00040617       0.00057499       0.00070433
Se       2.82924654       3.75373006       7.76328438       0.00040802      -0.00057670      -0.00070260
Se       2.82924576       3.75373054       4.90039769       0.00040582      -0.00057487       0.00070561
Se       4.48213327       1.41619542       7.76328393      -0.00040776       0.00057556      -0.00070229
