9
Lattice="5.735049699554399 5.1647551614810506e-08 3.3111325289525864 1.9116832531936572 5.407056845271557 3.3111325786363404 3.418056488791948e-08 8.501921217618296e-08 6.6222649987027085" Properties=species:S:1:pos:R:3:forces:R:3 energy=-29.507911682128906 free_energy=-29.507911682128906 stress="-4.219950642436743e-05 -5.52482193327819e-09 -1.4870321862758829e-08 -5.52482193327819e-09 -4.218554386170581e-05 5.309597650438036e-09 -1.4870321862758829e-08 5.309597650438036e-09 -4.215478475089185e-05" pbc="T T T"
Cu       1.91168458       1.35176500       3.31113221       0.00000287       0.00000161      -0.00000048
Cu       5.73504880       4.05529179       9.93339797      -0.00000194      -0.00000203       0.00000146
Sb      -0.00000030      -0.00000030       0.00000018       0.00000208       0.00000262      -0.00000018
Se       2.26076249       1.59860085       6.62226504       0.00152504       0.00107786       0.00000027
Se       5.38597021       3.80845591       6.62226500      -0.00152366      -0.00107770      -0.00000049
Se       4.60466838       1.59860126       5.26901030      -0.00076292       0.00107726       0.00131989
Se       3.04206486       3.80845622       7.97551958       0.00076120      -0.00107866      -0.00131930
Se       3.04206486       3.80845610       5.26900996       0.00076155      -0.00107878       0.00131884
Se       4.60466804       1.59860119       7.97552022      -0.00076421       0.00107779      -0.00132002
