9
Lattice="4.65070129686112 1.9520441747456536e-07 2.685083487163832 1.550233902016226 4.384723445136901 2.685083569686685 8.748132782650315e-08 1.6292809819075447e-07 5.370166822805563" Properties=species:S:1:pos:R:3:forces:R:3 energy=-39.96551513671875 free_energy=-39.96551513671875 stress="-3.796811506617814e-05 -6.517694828289677e-08 -5.77621541708595e-08 -6.517694828289677e-08 -3.8000373024260625e-05 4.760016025784353e-08 -5.77621541708595e-08 4.760016025784353e-08 -3.802583523793146e-05" pbc="T T T"
Cu       1.55023366       1.09618205       2.68508337      -0.00000121       0.00000741      -0.00000042
Cu       4.65070138       3.28854161       8.05525196      -0.00000048      -0.00000947       0.00001510
Sb      -0.00000014       0.00000006       0.00000023      -0.00000181      -0.00000160       0.00000429
O        1.62479180       1.14890181       5.37016681      -0.00224388      -0.00158226       0.00000062
O        4.57614343       3.23582174       5.37016593       0.00224650       0.00158668      -0.00000642
O        3.83830548       1.14890292       4.09219490       0.00112897      -0.00158828      -0.00195253
O        2.36262977       3.23582161       6.64813875      -0.00112641       0.00158668       0.00194442
O        2.36263041       3.23582181       4.09219469      -0.00112200       0.00158662      -0.00194681
O        3.83830549       1.14890189       6.64813924       0.00111979      -0.00158525       0.00194192
