9
Lattice="6.385974378718752 -9.665209716580034e-08 3.6869440291637816 2.1286580299799196 6.020754425737532 3.6869440380582748 -7.983192964147567e-08 -4.5556222134082774e-08 7.373888196600511" Properties=species:S:1:pos:R:3:forces:R:3 energy=-25.266324996948242 free_energy=-25.266324996948242 stress="5.25062489487027e-07 5.630374833032192e-09 1.0270080785801383e-08 5.630374833032192e-09 5.311691779752437e-07 4.7957451343449975e-09 1.0270080785801383e-08 4.7957451343449975e-09 5.212737050896976e-07" pbc="T T T"
Cu       2.12865824       1.50518854       3.68694402       0.00000105      -0.00000023      -0.00000021
Cu       6.38597457       4.51556535      11.06083272      -0.00000006      -0.00000121       0.00000251
Sb      -0.00000043      -0.00000002      -0.00000066       0.00000089       0.00000067       0.00000193
Te       2.38215424       1.68443773       7.37388813       0.00011556       0.00008287      -0.00000001
Te       6.13247805       4.33631701       7.37388769      -0.00011680      -0.00008246      -0.00000212
Te       5.19489706       1.68443803       5.74995033      -0.00005744       0.00008296       0.00009997
Te       3.31973474       4.33631708       8.99782625       0.00005759      -0.00008305      -0.00010099
Te       3.31973549       4.33631636       5.74995036       0.00005841      -0.00008192       0.00009990
Te       5.19489737       1.68443708       8.99782623      -0.00005912       0.00008231      -0.00010106
