9
Lattice="5.627305969813675 -1.0270839645060033e-07 3.248926720433427 1.875768584529134 5.305474857860845 3.248926677549715 5.4862787980867774e-08 -1.3727776723435637e-08 6.497853345841752" Properties=species:S:1:pos:R:3:forces:R:3 energy=-28.920791625976562 free_energy=-28.920791625976562 stress="6.128115728643024e-06 -6.984839018286948e-08 -5.330043606477375e-08 -6.984839018286948e-08 6.2433759921987075e-06 1.8395585499320077e-08 -5.330043606477375e-08 1.8395585499320077e-08 6.170712822495261e-06" pbc="T T T"
Cu       1.87576918       1.32636868       3.24892636       0.00000254      -0.00000081       0.00000053
Cu       5.62730594       3.97910598       9.74677955      -0.00000010      -0.00000029      -0.00000244
Sb      -0.00000010      -0.00000003      -0.00000008       0.00000500       0.00000066      -0.00000331
S        1.99166900       1.40832247       6.49785298      -0.00237909      -0.00168371      -0.00000333
S        5.51140587       3.89715225       6.49785364       0.00237769       0.00167799       0.00000122
S        4.63147115       1.40832228       4.97376247       0.00118768      -0.00168276      -0.00206134
S        2.87160364       3.89715223       8.02194443      -0.00118878       0.00168377       0.00206313
S        2.87160274       3.89715213       4.97376280      -0.00119187       0.00168347      -0.00205919
S        4.63147104       1.40832293       8.02194489       0.00118719      -0.00167841       0.00206494
