9
Lattice="6.385954199182201 3.0291358342990946e-09 3.6869323008923467 2.1286514351177748 6.020735148305646 3.6869322445409933 8.159694899807267e-09 -6.324624278369765e-08 7.373864587651636" Properties=species:S:1:pos:R:3:forces:R:3 energy=-25.266324996948242 free_energy=-25.266324996948242 stress="-1.859292751760222e-06 6.911099248441133e-09 -1.2741335098098716e-08 6.911099248441133e-09 -1.8340914493819582e-06 4.962295463428745e-09 -1.2741335098098716e-08 4.962295463428745e-09 -1.8599909026306705e-06" pbc="T T T"
Cu       2.12865155       1.50518419       3.68693216       0.00000134       0.00000222      -0.00000048
Cu       6.38595423       4.51555139      11.06079661       0.00000011      -0.00000029      -0.00000138
Sb      -0.00000007      -0.00000010       0.00000025       0.00000009       0.00000037      -0.00000025
Te       2.38209571       1.68439613       7.37386474       0.00048490       0.00034359       0.00000004
Te       6.13251026       4.33633910       7.37386489      -0.00048620      -0.00034465       0.00000093
Te       5.19490639       1.68439577       5.74988752      -0.00024286       0.00034326       0.00042072
Te       3.31969924       4.33633875       8.99784153       0.00024257      -0.00034419      -0.00042039
Te       3.31969893       4.33633903       5.74988733       0.00024302      -0.00034425       0.00042134
Te       5.19490632       1.68439610       8.99784150      -0.00024300       0.00034393      -0.00042047
