9
Lattice="5.735128169244112 4.686926034427651e-08 3.3111775962646943 1.9117094637644978 5.40713038507 3.311177544601482 -1.7794214967920508e-09 -6.453246366208096e-08 6.622355195611402" Properties=species:S:1:pos:R:3:forces:R:3 energy=-29.507911682128906 free_energy=-29.507911682128906 stress="-2.6468056603334844e-05 -1.650015235554747e-08 -9.183653837396832e-09 -1.650015235554747e-08 -2.641732498886995e-05 2.3343661226249424e-08 -9.183653837396832e-09 2.3343661226249424e-08 -2.640906132000964e-05" pbc="T T T"
Cu       1.91170923       1.35178220       3.31117857       0.00000040      -0.00000107       0.00000182
Cu       5.73512729       4.05534800       9.93353337      -0.00000213       0.00000049       0.00000173
Sb       0.00000020      -0.00000006      -0.00000030      -0.00000054       0.00000091       0.00000255
Se       2.26080615       1.59863124       6.62235518       0.00163125       0.00115304      -0.00000039
Se       5.38603223       3.80849973       6.62235484      -0.00163400      -0.00115551      -0.00000071
Se       4.60472504       1.59863127       5.26909233      -0.00081424       0.00115431       0.00141157
Se       3.04211270       3.80849938       7.97561743       0.00081783      -0.00115390      -0.00141384
Se       3.04211236       3.80849899       5.26909259       0.00081709      -0.00115395       0.00141329
Se       4.60472533       1.59863069       7.97561731      -0.00081570       0.00115572      -0.00141600
