9
Lattice="4.650778655371657 2.775680714423593e-07 2.685128091604216 1.5502597594303364 4.384796788535159 2.6851281852283355 -3.1786030543790004e-08 9.218952343400234e-08 5.370256238263464" Properties=species:S:1:pos:R:3:forces:R:3 energy=-39.965511322021484 free_energy=-39.965511322021484 stress="-3.6055816963198595e-06 6.76423184131636e-08 -8.854243560563191e-09 6.76423184131636e-08 -3.6283047393226298e-06 1.5416523169164975e-08 -8.854243560563191e-09 1.5416523169164975e-08 -3.747702749024029e-06" pbc="T T T"
Cu       1.55025878       1.09619835       2.68512829      -0.00000489      -0.00000710       0.00000063
Cu       4.65077861       3.28859831       8.05538328      -0.00000264       0.00000389      -0.00000666
Sb       0.00000014      -0.00000025      -0.00000012      -0.00000283       0.00001222      -0.00000308
O        1.62480926       1.14891337       5.37025634      -0.00257146      -0.00181973       0.00000008
O        4.57622943       3.23588358       5.37025657       0.00257111       0.00181782       0.00000115
O        3.83837405       1.14891316       4.09225366       0.00128525      -0.00182140      -0.00222206
O        2.36266473       3.23588405       6.64825900      -0.00128061       0.00181735       0.00222039
O        2.36266414       3.23588405       4.09225388      -0.00128120       0.00181454      -0.00221574
O        3.83837453       1.14891413       6.64825911       0.00128806      -0.00181812       0.00222576
