9
Lattice="5.386487436402478 -3.3490981627986855e-08 3.1098899538158666 1.7954958250211752 5.078428684630212 3.1098898768043153 -4.447103064857571e-08 -1.25765276881711e-07 6.219779984657791" Properties=species:S:1:pos:R:3:forces:R:3 energy=-41.8729133605957 free_energy=-41.8729133605957 stress="7.352942702709697e-06 3.771870282776035e-08 -3.902550815837458e-08 3.771870282776035e-08 7.33018259779783e-06 5.2791097715498836e-08 -3.902550815837458e-08 5.2791097715498836e-08 7.28630175217404e-06" pbc="T T T"
Cu       1.79549601       1.26960695       3.10989024       0.00000052      -0.00000005      -0.00000007
Cu       5.38648752       3.80882133       9.32966995       0.00000036      -0.00000023       0.00000011
Ta      -0.00000011       0.00000002      -0.00000002      -0.00000040      -0.00000055      -0.00000007
S        1.93429120       1.36775038       6.21978016      -0.00126928      -0.00089641       0.00000070
S        5.24769211       3.71067846       6.21978013       0.00126719       0.00089650       0.00000004
S        4.41934177       1.36775018       4.78503491       0.00063433      -0.00089596      -0.00109780
S        2.76264116       3.71067867       7.65452437      -0.00063306       0.00089599       0.00109661
S        2.76264121       3.71067832       4.78503481      -0.00063176       0.00089401      -0.00109476
S        4.41934210       1.36774980       7.65452468       0.00063212      -0.00089346       0.00109529
