9
Lattice="5.628371213993371 -8.406435839466873e-08 3.2495415055494905 1.8761237223461318 5.306479020038701 3.2495413953823897 -2.6861285507898584e-08 -1.5392042352552327e-07 6.499083057624032" Properties=species:S:1:pos:R:3:forces:R:3 energy=-38.51136016845703 free_energy=-38.51136016845703 stress="-9.167863026959822e-05 1.221681067420377e-08 8.009583218893113e-09 1.221681067420377e-08 -9.165403753286228e-05 3.841518392277976e-08 8.009583218893113e-09 3.841518392277976e-08 -9.165621304418892e-05" pbc="T T T"
Cu       1.87612333       1.32662018       3.24954121      -0.00000145       0.00000121      -0.00000082
Cu       5.62837136       3.97985860       9.74862574       0.00000062      -0.00000089       0.00000284
Ta       0.00000004       0.00000051      -0.00000001       0.00000140      -0.00000578      -0.00000240
Se       2.04176262       1.44374399       6.49908302      -0.00169531      -0.00119915       0.00000101
Se       5.46273227       3.86273441       6.49908205       0.00169827       0.00119971      -0.00000146
Se       4.60749041       1.44374450       5.01775951       0.00084826      -0.00119731      -0.00146917
Se       2.89700457       3.86273446       7.98040601      -0.00084999       0.00119975       0.00146968
Se       2.89700519       3.86273486       5.01775988      -0.00084875       0.00120111      -0.00146900
Se       4.60748985       1.44374358       7.98040634       0.00084700      -0.00119862       0.00146930
