9
Lattice="6.586853574736727 -3.3907615312572927e-08 3.8029215371713807 2.195617838063215 6.210145054848507 3.8029215167573294 -1.7679920927236506e-08 -3.750362451332082e-08 7.605843104965298" Properties=species:S:1:pos:R:3:forces:R:3 energy=-29.537912368774414 free_energy=-29.537912368774414 stress="-4.155331043875776e-05 -1.1587653059308423e-09 7.0214221103981345e-09 -1.1587653059308423e-09 -4.154659472987987e-05 -5.684796189342478e-09 7.0214221103981345e-09 -5.684796189342478e-09 -4.155294664087705e-05" pbc="T T T"
Cu       2.19561745       1.55253735       3.80292164      -0.00000202       0.00000271       0.00000007
Cu       6.58685380       4.65760818      11.40876512       0.00000210      -0.00000193       0.00000007
Y       -0.00000004      -0.00000043      -0.00000036      -0.00000048       0.00000208       0.00000046
Te       2.46613620       1.74382228       7.60584322      -0.00077760      -0.00054823      -0.00000039
Te       6.31633492       4.46632309       7.60584293       0.00077865       0.00054779      -0.00000042
Te       5.35378580       1.74382211       5.93865825       0.00038944      -0.00054828      -0.00067201
Te       3.42868617       4.46632285       9.27302756      -0.00038935       0.00054803       0.00067358
Te       3.42868595       4.46632289       5.93865848      -0.00038949       0.00054787      -0.00067367
Te       5.35378533       1.74382163       9.27302774       0.00038869      -0.00055001       0.00067221
