9
Lattice="5.931241172065824 -7.539110415634153e-07 3.4244041251063084 1.9770797178301271 5.592027985294352 3.424404059399839 -2.403091832672327e-08 -9.746609381284262e-08 6.848808291835399" Properties=species:S:1:pos:R:3:forces:R:3 energy=-31.249794006347656 free_energy=-31.249794006347656 stress="1.7427524653612636e-05 1.4554115068676765e-07 6.414255793174561e-10 1.4554115068676765e-07 1.7409673091606237e-05 4.622899396622415e-08 6.414255793174561e-10 4.622899396622415e-08 1.744145447446499e-05" pbc="T T T"
Cu       1.97707969       1.39800714       3.42440432      -0.00000400       0.00000257       0.00000269
Cu       5.93124079       4.19402038      10.27321240       0.00000003       0.00000106       0.00000386
Y        0.00000097      -0.00000050      -0.00000131       0.00000437      -0.00000424      -0.00000829
Se       2.27986931       1.61210855       6.84880437       0.00091766       0.00063413      -0.00002415
Se       5.62845074       3.97991195       6.84880415      -0.00092269      -0.00067647      -0.00002655
Se       4.79130370       1.61211705       5.39883571      -0.00047589       0.00069153       0.00083773
Se       3.11701013       3.97992362       8.29879415       0.00043111      -0.00060426      -0.00075510
Se       3.11701748       3.97991401       5.39882649       0.00048032      -0.00066811       0.00078201
Se       4.79131064       1.61210637       8.29878565      -0.00043108       0.00062373      -0.00081223
