9
Lattice="5.741731054103466 -3.551406993186384e-08 3.3149900506150085 1.91391028607686 5.413356023209324 3.3149901057080426 -4.850912389743531e-08 3.317379731249157e-08 6.629980185250224" Properties=species:S:1:pos:R:3:forces:R:3 energy=-33.009864807128906 free_energy=-33.009864807128906 stress="-0.00016532521112821996 -2.0774304942960953e-08 -7.139740354489277e-09 -2.0774304942960953e-08 -0.00016533434973098338 1.89217725932167e-08 -7.139740354489277e-09 1.89217725932167e-08 -0.00016535398026462644" pbc="T T T"
Cu       1.91391041       1.35333907       3.31499006       0.00000075       0.00000039       0.00000130
Cu       5.74173100       4.06001680       9.94497071      -0.00000017      -0.00000204       0.00000350
Y       -0.00000079       0.00000018       0.00000053       0.00000799      -0.00000154      -0.00000767
S        2.12718628       1.50414833       6.62998021      -0.00393662      -0.00278208      -0.00000052
S        5.52845531       3.90920821       6.62997991       0.00393061       0.00277895      -0.00000139
S        4.67813828       1.50414772       5.15718717       0.00196566      -0.00277764      -0.00340368
S        2.97750343       3.90920762       8.10277268      -0.00196940       0.00278437       0.00340889
S        2.97750325       3.90920824       5.15718727      -0.00196512       0.00278050      -0.00340626
S        4.67813800       1.50414795       8.10277285       0.00196632      -0.00278090       0.00340597
