9
Lattice="4.7936435731693905 1.0004710004235345e-07 2.7676113330877343 1.5978812698891764 4.519490571393843 2.767611359921647 1.9652983027850607e-08 4.676148610551824e-08 5.535222632135476" Properties=species:S:1:pos:R:3:forces:R:3 energy=-42.53009796142578 free_energy=-42.53009796142578 stress="0.00010886904055951163 6.341052483094245e-08 -3.7065228664090455e-09 6.341052483094245e-08 0.0001090131263481453 6.950743314249053e-10 -3.7065228664090455e-09 6.950743314249053e-10 0.0001088913923013024" pbc="T T T"
Cu       1.59788175       1.12987294       2.76761113       0.00000393       0.00000287      -0.00000227
Cu       4.79364345       3.38961789       8.30283447      -0.00000006      -0.00000084       0.00000285
Y       -0.00000002       0.00000013      -0.00000021       0.00000004      -0.00000071       0.00000092
O        1.79392101       1.26849384       5.53522297      -0.00014985      -0.00010487       0.00000097
O        4.59760415       3.25099685       5.53522260       0.00014821       0.00010376      -0.00000218
O        3.89668284       1.26849379       4.32119208       0.00007340      -0.00010447      -0.00012925
O        2.49484181       3.25099670       6.74925282      -0.00007534       0.00010532       0.00012898
O        2.49484191       3.25099693       4.32119235      -0.00007318       0.00010449      -0.00012928
O        3.89668259       1.26849384       6.74925303       0.00007281      -0.00010560       0.00012925
