9
Lattice="5.469888237529152 -3.7527613371052294e-08 3.1580413257045024 1.823296008054582 5.157060107405632 3.1580413876087867 -1.1351179116612611e-07 -4.448016077717502e-09 6.316082848017238" Properties=species:S:1:pos:R:3:forces:R:3 energy=-37.41221618652344 free_energy=-37.41221618652344 stress="0.00014461933460552245 2.4793438413439617e-08 -1.4734705011676397e-08 2.4793438413439617e-08 0.0001447168760932982 4.240011719502945e-08 -1.4734705011676397e-08 4.240011719502945e-08 0.00014456758799497038" pbc="T T T"
Fe       1.82329618       1.28926553       3.15804103      -0.00000283       0.00000757      -0.00000284
Fe       5.46988851       3.86779398       9.47412274       0.00000606      -0.00001165      -0.00001095
As      -0.00000015       0.00000012      -0.00000001       0.00000242      -0.00000146      -0.00000292
S        1.91471590       1.35391007       6.31608386      -0.00373983      -0.00263113       0.00000978
S        5.37846753       3.80315087       6.31608409       0.00373173       0.00264090       0.00001193
S        4.51252976       1.35390938       4.81623457       0.00186527      -0.00263864      -0.00323349
S        2.78065375       3.80315053       7.81593128      -0.00187081       0.00263643       0.00323552
S        2.78065397       3.80315015       4.81623422      -0.00186890       0.00263238      -0.00323564
S        4.51253114       1.35390954       7.81593037       0.00187677      -0.00263441       0.00322860
