9
Lattice="5.468128648618224 -3.882813071065192e-08 3.1570254757253458 1.8227094466664302 5.155401147085155 3.1570255905004427 -2.356973307912596e-09 1.3890358579470387e-07 6.314050955533118" Properties=species:S:1:pos:R:3:forces:R:3 energy=-37.412208557128906 free_energy=-37.412208557128906 stress="-0.00014270130486693233 -1.0289260110596388e-08 -5.546507964027114e-08 -1.0289260110596388e-08 -0.0001426991366315633 1.4931665626161106e-10 -5.546507964027114e-08 1.4931665626161106e-10 -0.00014254222332965583" pbc="T T T"
Fe       1.82270645       1.28884776       3.15702708      -0.00003199      -0.00002318       0.00001401
Fe       5.46813290       3.86655221       9.47107595       0.00004162       0.00001173      -0.00000455
As      -0.00000008      -0.00000008       0.00000026       0.00000380      -0.00000062      -0.00000640
S        1.91427595       1.35359788       6.31405115      -0.00056648      -0.00039601       0.00000013
S        5.37656207       3.80180402       6.31405240       0.00056052       0.00039768       0.00001298
S        4.51099090       1.35359701       4.81483830       0.00028569      -0.00040442      -0.00047672
S        2.77984581       3.80180557       7.81326163      -0.00030100       0.00042051       0.00046504
S        2.77984610       3.80180385       4.81483851      -0.00029314       0.00040346      -0.00047433
S        4.51099233       1.35359696       7.81326309       0.00030112      -0.00040925       0.00047010
