9
Lattice="5.577198092474574 -4.022728617663289e-08 3.2199968600960847 1.8590659772161298 5.258232843407703 3.219996887258251 -6.866507096562725e-09 2.8411368645864383e-08 6.439993732085271" Properties=species:S:1:pos:R:3:forces:R:3 energy=-37.6451416015625 free_energy=-37.6451416015625 stress="0.00010479360207682475 -1.2486800038402635e-08 -1.5763712113425754e-08 -1.2486800038402635e-08 0.00010479274351382628 9.74538560960525e-10 -1.5763712113425754e-08 9.74538560960525e-10 0.0001047964469762519" pbc="T T T"
Fe       1.85906604       1.31455863       3.21999651      -0.00000058       0.00000176      -0.00000049
Fe       5.57719766       3.94367512       9.65999115      -0.00000129       0.00000160       0.00000181
As      -0.00000003      -0.00000026       0.00000018       0.00000091       0.00000162      -0.00000076
Se       2.17651265       1.53902683       6.43999376      -0.00298208      -0.00210947      -0.00000024
Se       5.25975162       3.71920587       6.43999361       0.00297940       0.00210467      -0.00000058
Se       4.48894157       1.53902666       5.10491237       0.00149021      -0.00210658      -0.00258186
Se       2.94732242       3.71920565       7.77507501      -0.00148991       0.00210825       0.00258243
Se       2.94732265       3.71920602       5.10491214      -0.00148860       0.00210640      -0.00258201
Se       4.48894169       1.53902688       7.77507510       0.00149190      -0.00210851       0.00258172
