9
Lattice="4.158278303964484 -4.4939058092429474e-08 2.4007831180673898 1.3860927677869799 3.9204624478278807 2.400783045030685 4.131196495676624e-09 -8.65301356380327e-08 4.801566228979345" Properties=species:S:1:pos:R:3:forces:R:3 energy=-54.2182502746582 free_energy=-54.2182502746582 stress="-5.513343421625905e-05 -5.814500525502808e-08 -1.1625643026036414e-07 -5.814500525502808e-08 -5.5176144087454304e-05 3.947323534703173e-08 -1.1625643026036414e-07 3.947323534703173e-08 -5.520538616110571e-05" pbc="T T T"
Fe       1.38609275       0.98011539       2.40078341       0.00000060      -0.00000470       0.00000306
Fe       4.15827896       2.94034670       7.20234948       0.00000739       0.00000233       0.00000162
As       0.00000008      -0.00000011      -0.00000041      -0.00000004       0.00000156       0.00001064
N        1.53396876       1.08467939       4.80156637       0.00033475       0.00023365       0.00000186
N        4.01040245       2.83578290       4.80156679      -0.00033280      -0.00023559       0.00000188
N        3.39129338       1.08467970       3.72923875      -0.00016981       0.00023346       0.00028266
N        2.15307664       2.83578340       5.87389285       0.00016312      -0.00023009      -0.00029737
N        2.15307697       2.83578276       3.72923888       0.00016385      -0.00023372       0.00028825
N        3.39129432       1.08467915       5.87389350      -0.00016695       0.00023310      -0.00029257
