9
Lattice="4.445554136134165 2.667179138192287e-07 2.566641993137476 1.481851672622388 4.191308811093581 2.5666419196173598 2.693831153255298e-07 1.0043921548111136e-07 5.133283519689724" Properties=species:S:1:pos:R:3:forces:R:3 energy=-49.65602111816406 free_energy=-49.65602111816406 stress="0.0003942758194170892 3.9990187161720314e-08 8.498501102849332e-08 3.9990187161720314e-08 0.00039406877476722 -1.7932721618763026e-07 8.498501102849332e-08 -1.7932721618763026e-07 0.00039408516022376716" pbc="T T T"
Fe       1.48185131       1.04782797       2.56664146      -0.00000179       0.00001014      -0.00000127
Fe       4.44555412       3.14348237       7.69992595      -0.00000141      -0.00000131       0.00000027
As       0.00000003      -0.00000012      -0.00000002       0.00000654       0.00000893       0.00000638
O        1.45745012       1.03057256       5.13328320       0.00145388       0.00101817      -0.00000164
O        4.46995740       3.16073574       5.13328432      -0.00146627      -0.00103366       0.00000031
O        3.71682994       1.03057322       3.82883000      -0.00072557       0.00103176       0.00126278
O        2.21057629       3.16073588       6.43773809       0.00073498      -0.00103414      -0.00126946
O        2.21057604       3.16073579       3.82883024       0.00072968      -0.00102174       0.00126398
O        3.71682947       1.03057284       6.43773732      -0.00073075       0.00102282      -0.00126183
