9
Lattice="5.5764664238185215 1.6711013463139408e-07 3.2195745352409624 1.8588222861560293 5.2575428987601684 3.2195745571855916 1.296418494231788e-07 1.1854726977741259e-07 6.43914884593555" Properties=species:S:1:pos:R:3:forces:R:3 energy=-37.64514923095703 free_energy=-37.64514923095703 stress="-2.377907730988227e-05 -3.923938507455205e-09 2.2989654624439027e-08 -3.923938507455205e-09 -2.3830760255805217e-05 7.097060272798217e-09 2.2989654624439027e-08 7.097060272798217e-09 -2.3793696527718566e-05" pbc="T T T"
Fe       1.85882124       1.31438830       3.21957571      -0.00000241       0.00000688       0.00000270
Fe       5.57646650       3.94315503       9.65872144      -0.00000094      -0.00000633      -0.00000654
As       0.00000040       0.00000001       0.00000021      -0.00000385       0.00000000      -0.00000073
Se       2.17598984       1.53865793       6.43914864       0.00002748       0.00002009       0.00000024
Se       5.25929892       3.71888496       6.43914966      -0.00002080      -0.00001603       0.00000100
Se       4.48847192       1.53865748       5.10403717      -0.00001225       0.00001776       0.00002211
Se       2.94681747       3.71888589       7.77426099       0.00001287      -0.00001982      -0.00002235
Se       2.94681714       3.71888501       5.10403682       0.00001296      -0.00001925       0.00002220
Se       4.48847199       1.53865804       7.77426111      -0.00001287       0.00001657      -0.00001898
