9
Lattice="5.8717832893284125 -1.8991741725501863e-08 3.390075641363067 1.957261037528873 5.5359705618719675 3.3900757123915666 -9.31752631466701e-09 8.040330425267737e-08 6.7801512988645705" Properties=species:S:1:pos:R:3:forces:R:3 energy=-36.18922424316406 free_energy=-36.18922424316406 stress="9.710016456665471e-05 1.2329817167255896e-08 2.0934884936707476e-09 1.2329817167255896e-08 9.709475853014737e-05 -1.0838483888164774e-08 2.0934884936707476e-09 -1.0838483888164774e-08 9.709932783152908e-05" pbc="T T T"
Fe       1.95726071       1.38399279       3.39007589      -0.00000028       0.00000027       0.00000057
Fe       5.87178272       4.15197810      10.17022566      -0.00000115       0.00000024      -0.00000245
Bi       0.00000022       0.00000005       0.00000038       0.00000004      -0.00000066      -0.00000168
Se       2.35817475       1.66748134       6.78015140      -0.00502574      -0.00355375       0.00000050
Se       5.47086967       3.86848939       6.78015207       0.00502673       0.00355330       0.00000073
Se       4.69269612       1.66748105       5.43231473       0.00251254      -0.00355357      -0.00435138
Se       3.13634881       3.86848941       8.12798777      -0.00251260       0.00355345       0.00435346
Se       3.13634813       3.86848912       5.43231485      -0.00251278       0.00355321      -0.00435230
Se       4.69269609       1.66748128       8.12798785       0.00251330      -0.00355268       0.00435254
