9
Lattice="5.255960733000237 -1.2928300099156606e-08 3.034530199422785 1.7519869849018932 4.955366822863977 3.0345300503093164 -2.9869462745314735e-08 -2.0374684924742802e-07 6.069060450581062" Properties=species:S:1:pos:R:3:forces:R:3 energy=-40.915061950683594 free_energy=-40.915061950683594 stress="-0.0002678248565644026 1.8450899119670794e-07 -1.1765952656617173e-09 1.8450899119670794e-07 -0.0002678566088434309 4.508274642489596e-08 -1.1765952656617173e-09 4.508274642489596e-08 -0.00026803254149854183" pbc="T T T"
Fe       1.75198665       1.23884087       3.03452988      -0.00000287      -0.00000650      -0.00000181
Fe       5.25596084       3.71652525       9.10359042       0.00000029       0.00000408      -0.00000364
B       -0.00000035       0.00000080      -0.00000037       0.00000912      -0.00000720       0.00000828
S        1.61713670       1.14348783       6.06906018       0.00700861       0.00495446       0.00000020
S        5.39081179       3.81187913       6.06906056      -0.00701529      -0.00495937       0.00000043
S        4.44739318       1.14348673       4.43501023      -0.00350937       0.00496832       0.00608605
S        2.56055497       3.81187955       7.70311018       0.00351650      -0.00496221      -0.00608253
S        2.56055433       3.81187970       4.43501054       0.00350994      -0.00496411       0.00608307
S        4.44739277       1.14348630       7.70311075      -0.00351730       0.00497240      -0.00608987
