9
Lattice="5.432212451396179 1.9032751454571383e-07 3.136289251059312 1.8107377041070323 5.121538602105913 3.136289180277612 1.1845648905978558e-07 -2.9280452060113582e-09 6.272578296945855" Properties=species:S:1:pos:R:3:forces:R:3 energy=-37.924808502197266 free_energy=-37.924808502197266 stress="-4.971109228790738e-05 9.294247860225369e-08 3.259305003666668e-08 9.294247860225369e-08 -4.986709973309189e-05 -9.097220043940979e-08 3.259305003666668e-08 -9.097220043940979e-08 -4.988830187357962e-05" pbc="T T T"
Fe       1.81073935       1.28038666       3.13628681       0.00001114       0.00001457      -0.00002152
Fe       5.43221257       3.84115412       9.40886698       0.00000136      -0.00000003      -0.00000904
B       -0.00000032      -0.00000016      -0.00000149       0.00000541       0.00000762      -0.00000394
Se       1.66875451       1.17998708       6.27257721      -0.00003073      -0.00002722      -0.00000145
Se       5.57419734       3.94155037       6.27257724       0.00003064       0.00001150      -0.00000431
Se       4.59783628       1.17998462       4.58147291       0.00001164      -0.00002746      -0.00001013
Se       2.64511379       3.94154871       7.96368678      -0.00000968      -0.00001095       0.00002709
Se       2.64511370       3.94155472       4.58147387      -0.00001841       0.00003399      -0.00001195
Se       4.59783390       1.17998907       7.96368679      -0.00000133      -0.00000215       0.00003552
