9
Lattice="5.622548645662669 -1.0301102311731127e-07 3.2461800934226184 1.8741828067156936 5.300989606823547 3.246180055407779 4.8093905838037107e-08 -1.2550954402843355e-08 6.492360103544099" Properties=species:S:1:pos:R:3:forces:R:3 energy=-36.071529388427734 free_energy=-36.071529388427734 stress="1.851329034252558e-05 -1.721037357071964e-08 1.6449648754246482e-08 -1.721037357071964e-08 1.8561468095867895e-05 -2.1453716581021354e-09 1.6449648754246482e-08 -2.1453716581021354e-09 1.856094786489848e-05" pbc="T T T"
Fe       1.87418382       1.32524750       3.24617952       0.00000279       0.00000163      -0.00000300
Fe       5.62254919       3.97574125       9.73854218       0.00000429      -0.00000514       0.00001321
Bi      -0.00000008      -0.00000000       0.00000002       0.00000605       0.00000081      -0.00000956
S        2.00762526       1.41960631       6.49236007      -0.00117582      -0.00082631      -0.00000059
S        5.48910559       3.88138423       6.49235951       0.00116771       0.00082905      -0.00000403
S        4.61873668       1.41960639       4.98483465       0.00058898      -0.00082060      -0.00101495
S        2.87799489       3.88138367       7.99988526      -0.00059101       0.00082918       0.00101765
S        2.87799559       3.88138376       4.98483462      -0.00058520       0.00082604      -0.00101691
S        4.61873506       1.41960480       7.99988519       0.00058252      -0.00083470       0.00101808
