9
Lattice="6.50463258284157 -1.7356423397213062e-08 3.7554511631275442 2.1682108004890925 6.132626252916461 3.755451239501164 1.0344317048584553e-07 1.66683573093095e-07 7.510902147086275" Properties=species:S:1:pos:R:3:forces:R:3 energy=-31.61450958251953 free_energy=-31.61450958251953 stress="-2.2416441424866207e-05 1.2131559756767274e-08 -4.812036547008347e-09 1.2131559756767274e-08 -2.243144808744546e-05 -1.1588144666063727e-08 -4.812036547008347e-09 -1.1588144666063727e-08 -2.2385758711607195e-05" pbc="T T T"
Fe       2.16821005       1.53315634       3.75545100      -0.00000327      -0.00000064      -0.00000035
Fe       6.50463326       4.59947023      11.26635323       0.00000260       0.00000106      -0.00000046
Bi       0.00000000      -0.00000013       0.00000022       0.00000089       0.00000085       0.00000074
Te       2.52648289       1.78649343       7.51090198       0.00008176       0.00005823      -0.00000075
Te       6.14636035       4.34613308       7.51090271      -0.00008182      -0.00005827      -0.00000006
Te       5.24139164       1.78649262       5.94345016      -0.00004015       0.00005690       0.00007351
Te       3.43145227       4.34613363       9.07835466       0.00004067      -0.00005750      -0.00007264
Te       3.43145186       4.34613346       5.94344987       0.00003985      -0.00005766       0.00007258
Te       5.24139164       1.78649297       9.07835437      -0.00004052       0.00005702      -0.00007255
