9
Lattice="5.559303667303113 9.685240190926761e-07 3.2096664303697406 1.8531019576114856 5.241362616864209 3.209666738598586 3.848595081889297e-07 6.49638504546949e-07 6.419332194143227" Properties=species:S:1:pos:R:3:forces:R:3 energy=-34.955020904541016 free_energy=-34.955020904541016 stress="-2.9105414796504192e-05 -1.0401134176163396e-07 -8.410908947098505e-08 -1.0401134176163396e-07 -2.9195924071245827e-05 -1.236072080246231e-07 -8.410908947098505e-08 -1.236072080246231e-07 -2.930049413407687e-05" pbc="T T T"
Fe       1.85310555       1.31034048       3.20966692       0.00001624      -0.00000355       0.00000154
Fe       5.55930388       3.93102138       9.62899504      -0.00000320      -0.00000839      -0.00001682
Ga      -0.00000072       0.00000002      -0.00000001       0.00000234       0.00000036       0.00000182
Se       2.12788497       1.50464103       6.41933223      -0.00768584      -0.00544022       0.00000133
Se       5.28452258       3.73672053       6.41933454       0.00769150       0.00542970       0.00000473
Se       4.49535873       1.50464309       5.05246680       0.00383426      -0.00543208      -0.00666207
Se       2.91704574       3.73672434       7.78619712      -0.00384031       0.00544415       0.00665554
Se       2.91704318       3.73672108       5.05246906      -0.00384982       0.00543790      -0.00665307
Se       4.49536015       1.50464512       7.78619971       0.00383502      -0.00542785       0.00666696
