9
Lattice="5.2796793010702086 1.267034738035935e-07 3.04822448145661 1.7598932390882907 4.977729323693281 3.048224448072445 9.058054637341284e-08 2.3163033578824214e-08 6.096448806023171" Properties=species:S:1:pos:R:3:forces:R:3 energy=-36.20825958251953 free_energy=-36.20825958251953 stress="-1.8905298929894343e-05 2.2594941029296933e-08 6.571405464228519e-08 2.2594941029296933e-08 -1.895084096759092e-05 -2.0285204627157327e-08 6.571405464228519e-08 -2.0285204627157327e-08 -1.9109897039015777e-05" pbc="T T T"
Fe       1.75989149       1.24443356       3.04822426      -0.00001164       0.00000950      -0.00000301
Fe       5.27968168       3.73329881       9.14467249       0.00001493       0.00001397      -0.00000514
Ga      -0.00000005      -0.00000011       0.00000011      -0.00000095      -0.00000091      -0.00000076
S        1.85336477       1.31052749       6.09644828      -0.00073194      -0.00051063      -0.00000437
S        5.18620696       3.66720246       6.09644899       0.00072549       0.00051682      -0.00000028
S        4.35299673       1.31052536       4.65328695       0.00036057      -0.00052815      -0.00061844
S        2.68657416       3.66720027       7.53961255      -0.00037621       0.00049683       0.00063502
S        2.68657608       3.66720304       4.65328630      -0.00036040       0.00051857      -0.00062535
S        4.35299867       1.31052699       7.53961099       0.00038014      -0.00051599       0.00062238
