9
Lattice="6.217900477487604 -4.680867587444457e-07 3.589906069108027 2.072633095834791 5.86229273759178 3.589905991762751 -2.254749678548712e-08 -1.1067167042172879e-07 7.179812177269503" Properties=species:S:1:pos:R:3:forces:R:3 energy=-31.155654907226562 free_energy=-31.155654907226562 stress="-2.161693737434689e-05 4.027924305205488e-08 1.7284422781926878e-08 4.027924305205488e-08 -2.15666696021799e-05 -2.5610842335765938e-09 1.7284422781926878e-08 -2.5610842335765938e-09 -2.1514628315344453e-05" pbc="T T T"
Fe       2.07263085       1.46557326       3.58990505      -0.00001148       0.00000188      -0.00000354
Fe       6.21790071       4.39671805      10.76971805       0.00000354      -0.00000506       0.00000224
Ga       0.00000086      -0.00000030       0.00000274      -0.00000247       0.00000141      -0.00000754
Te       2.30633598       1.63082648       7.17981175       0.00460268       0.00325828       0.00000009
Te       5.98419830       4.23146528       7.17981098      -0.00460083      -0.00325764      -0.00000359
Te       5.06473400       1.63082554       5.58725261      -0.00229448       0.00325584       0.00399115
Te       3.22580091       4.23146567       8.77237241       0.00229976      -0.00325557      -0.00398684
Te       3.22580029       4.23146744       5.58725186       0.00230097      -0.00325465       0.00399259
Te       5.06473231       1.63082721       8.77237164      -0.00229767       0.00325549      -0.00398459
