9
Lattice="4.43639380888369 9.740267014503698e-08 2.5613530988581537 1.4787979596321486 4.182672092698888 2.561353217494168 2.2780652124624906e-08 1.614071956854542e-07 5.122706158259027" Properties=species:S:1:pos:R:3:forces:R:3 energy=-44.200645446777344 free_energy=-44.200645446777344 stress="9.829868213273585e-05 1.9402305895255267e-07 -1.39843578494947e-07 1.9402305895255267e-07 9.846633474808186e-05 -2.7519522660668372e-08 -1.39843578494947e-07 -2.7519522660668372e-08 9.835881792241707e-05" pbc="T T T"
Fe       1.47879847       1.04566731       2.56135311       0.00000338      -0.00000689      -0.00000109
Fe       4.43639324       3.13700411       7.68406054      -0.00000618      -0.00000317       0.00001082
Ga      -0.00000021      -0.00000008      -0.00000037       0.00000452       0.00000283       0.00001123
O        1.52596280       1.07901912       5.12270657      -0.00371647      -0.00262693       0.00000113
O        4.38922861       3.10365390       5.12270611       0.00370812       0.00262672      -0.00000065
O        3.67341253       1.07901923       3.88287509       0.00185761      -0.00262186      -0.00322002
O        2.24177931       3.10365385       6.36253702      -0.00185165       0.00262234       0.00320822
O        2.24178007       3.10365384       3.88287496      -0.00185171       0.00262719      -0.00321764
O        3.67341222       1.07901827       6.36253712       0.00185201      -0.00262031       0.00320721
