9
Lattice="4.563495362964238 -3.618781570616702e-08 2.634735095174766 1.5211650340236815 4.302504796703642 2.63473518670709 -1.6857936804519223e-07 -7.099864941306261e-09 5.26947048233764" Properties=species:S:1:pos:R:3:forces:R:3 energy=-51.29002380371094 free_energy=-51.29002380371094 stress="-0.00013753936218563467 -2.225613542350402e-07 2.9244787924653792e-08 -2.225613542350402e-07 -0.0001373462291667238 -4.934330277706067e-08 2.9244787924653792e-08 -4.934330277706067e-08 -0.0001371702237520367" pbc="T T T"
Fe       1.52116626       1.07562588       2.63473605       0.00000577      -0.00000331       0.00000811
Fe       4.56349517       3.22687915       7.90420607       0.00000266       0.00000585       0.00000504
Ir      -0.00000005      -0.00000009      -0.00000002      -0.00000013       0.00000204      -0.00001240
O        1.52036417       1.07505986       5.26947027       0.00029350       0.00020765      -0.00000237
O        4.56429573       3.22744511       5.26947011      -0.00029678      -0.00020630      -0.00000201
O        3.80331230       1.07505995       3.95140961      -0.00014774       0.00020097       0.00024026
O        2.28134718       3.22744461       6.58753045       0.00013819      -0.00019676      -0.00023960
O        2.28134769       3.22744460       3.95140990       0.00014242      -0.00019917       0.00023948
O        3.80331261       1.07506000       6.58753029      -0.00013758       0.00018908      -0.00023575
