9
Lattice="4.551175666372949 1.3767989151507775e-07 2.6276224309778247 1.517058619616202 4.2908899479145175 2.627622544682303 -6.89801336220962e-08 9.048264299802652e-08 5.255244981432721" Properties=species:S:1:pos:R:3:forces:R:3 energy=-52.924888610839844 free_energy=-52.924888610839844 stress="-0.0004502884403336793 -2.487028716302575e-08 -1.3131534082333474e-08 -2.487028716302575e-08 -0.0004502222582232207 3.016446470383016e-08 -1.3131534082333474e-08 3.016446470383016e-08 -0.000450100313173607" pbc="T T T"
Fe       1.51705888       1.07272263       2.62762231      -0.00000023      -0.00000209      -0.00000119
Fe       4.55117535       3.21816775       7.88286724      -0.00000116       0.00000269      -0.00000218
Mo      -0.00000012      -0.00000027       0.00000008      -0.00000004       0.00000429      -0.00000314
O        1.54754178       1.09427782       5.25524506      -0.00102365      -0.00072211       0.00000009
O        4.52069232       3.19661227       5.25524503       0.00102413       0.00072044       0.00000102
O        3.77740457       1.09427733       3.96783319       0.00050926      -0.00072312      -0.00088525
O        2.29082986       3.19661286       6.54265695      -0.00050801       0.00072438       0.00088733
O        2.29082978       3.19661277       3.96783325      -0.00050682       0.00071990      -0.00088471
O        3.77740426       1.09427751       6.54265693       0.00050771      -0.00072438       0.00088823
