9
Lattice="5.458489967297077 3.729778216368862e-07 3.151461003997697 1.8194970217869333 5.146314460497713 3.151460979100295 3.533212549644323e-07 2.1934281665231725e-07 6.302921396025029" Properties=species:S:1:pos:R:3:forces:R:3 energy=-43.28392028808594 free_energy=-43.28392028808594 stress="-9.164749644696712e-05 -1.5822998022940737e-07 -2.3941288418427575e-07 -1.5822998022940737e-07 -9.186560055240989e-05 -4.912601880846523e-08 -2.3941288418427575e-07 -4.912601880846523e-08 -9.173039870802313e-05" pbc="T T T"
Fe       1.81951006       1.28657137       3.15146695       0.00006442      -0.00003153       0.00001075
Fe       5.45848545       3.85974287       9.45435918      -0.00001440       0.00002729      -0.00011640
Mo      -0.00000117       0.00000019       0.00000373       0.00000071       0.00000041      -0.00000671
Se       2.03078758       1.43598444       6.30292303      -0.00054926      -0.00038424       0.00001707
Se       5.24719938       3.71032915       6.30293002       0.00054091       0.00037366       0.00003938
Se       4.44308709       1.43598254       4.91017550       0.00023478      -0.00039178      -0.00046718
Se       2.83489767       3.71033496       7.69566807      -0.00025874       0.00041535       0.00048950
Se       2.83489053       3.71033025       4.91017675      -0.00027490       0.00038242      -0.00045511
Se       4.44309280       1.43598436       7.69567027       0.00025639      -0.00039175       0.00048900
