9
Lattice="5.296829844439654 -6.032418692072426e-08 3.058126178237699 1.7656099132541596 4.993899164864872 3.0581261401640094 -1.0243910238320912e-07 -1.1906583546757006e-07 6.11625253390512" Properties=species:S:1:pos:R:3:forces:R:3 energy=-46.889732360839844 free_energy=-46.889732360839844 stress="-5.4602318414254114e-05 1.055675440397863e-07 3.7230410754318655e-08 1.055675440397863e-07 -5.472459815791808e-05 4.026487143704571e-09 3.7230410754318655e-08 4.026487143704571e-09 -5.4721789638279006e-05" pbc="T T T"
Fe       1.76560991       1.24847432       3.05812632      -0.00000392      -0.00000283      -0.00000035
Fe       5.29682857       3.74542326       9.17437944      -0.00000570      -0.00000667       0.00000535
Mo       0.00000024       0.00000066       0.00000010      -0.00000047      -0.00000334       0.00000016
S        1.87892750       1.32860224       6.11625240       0.00226873       0.00160310      -0.00000245
S        5.18351217       3.66529630       6.11625125      -0.00225937      -0.00160021      -0.00000511
S        4.35736649       1.32860221       4.68532457      -0.00113401       0.00160635       0.00196493
S        2.70507375       3.66529710       7.54718006       0.00113678      -0.00160316      -0.00196296
S        2.70507363       3.66529759       4.68532512       0.00113314      -0.00160038       0.00196415
S        4.35736628       1.32860231       7.54718018      -0.00113538       0.00160712      -0.00196397
