9
Lattice="3.864860916944747 -5.133018181738355e-07 2.2313785904933523 1.288286542001217 3.6438270315065293 2.2313784976002795 -1.8373706563066163e-07 -2.4369207605282414e-07 4.462757499228636" Properties=species:S:1:pos:R:3:forces:R:3 energy=-50.25714111328125 free_energy=-50.25714111328125 stress="1.6129230573369568e-07 2.1000171557261638e-07 -4.525670931343484e-07 2.1000171557261638e-07 2.0605168060683354e-07 4.098303350019705e-07 -4.525670931343484e-07 4.098303350019705e-07 -5.043116857450514e-07" pbc="T T T"
Fe       1.28828925       0.91095821       2.23137688       0.00000448      -0.00000822       0.00000290
Fe       3.86486486       2.73286515       6.69413642       0.00000234       0.00000590      -0.00000399
N        0.00000270       0.00000088      -0.00000584       0.00006241      -0.00001070      -0.00010199
O        1.30569180       0.92326523       4.46275874      -0.00111268      -0.00078486      -0.00001765
O        3.84745054       2.72056016       4.46275692       0.00104055       0.00074260      -0.00000849
O        3.21201105       0.92326875       3.36214585       0.00051141      -0.00071853      -0.00089183
O        1.94113128       2.72056333       5.56337389      -0.00056283       0.00081217       0.00096910
O        1.94113430       2.72055822       3.36214606      -0.00051189       0.00074285      -0.00090358
O        3.21201276       0.92326588       5.56337082       0.00056568      -0.00078152       0.00095534
