9
Lattice="3.8648669232609234 -2.7411575788383292e-08 2.231381967249104 1.288288983414813 3.6438314284290483 2.2313819069072434 6.299286395017129e-08 -2.9360692032216344e-08 4.462763825391368" Properties=species:S:1:pos:R:3:forces:R:3 energy=-50.257137298583984 free_energy=-50.257137298583984 stress="2.3028082068776712e-05 -3.984509788779178e-08 -1.2029396145862847e-07 -3.984509788779178e-08 2.2597812858293764e-05 -2.427883885047777e-07 -1.2029396145862847e-07 -2.427883885047777e-07 2.266585943289101e-05" pbc="T T T"
Fe       1.28828942       0.91095790       2.23138206       0.00000044      -0.00000116      -0.00000320
Fe       3.86486660       2.73287333       6.69414468       0.00000081       0.00000058      -0.00000158
N       -0.00000034       0.00000005       0.00000046      -0.00000723       0.00000881       0.00001346
O        1.30559466       0.92319481       4.46276401       0.00645249       0.00455950       0.00000273
O        3.84756159       2.72063696       4.46276432      -0.00644554      -0.00455926      -0.00000144
O        3.21206975       0.92319427       3.36205959      -0.00322091       0.00455840       0.00558302
O        1.94108636       2.72063675       5.56346787       0.00322255      -0.00456460      -0.00558783
O        1.94108615       2.72063674       3.36205988       0.00322361      -0.00455940       0.00558360
O        3.21206974       0.92319470       5.56346801      -0.00322679       0.00455764      -0.00558862
