9
Lattice="5.472144184420479 -1.3518606500423787e-08 3.159343405919027 1.8240480572107396 5.15918710211827 3.1593433912265145 2.383333837312562e-08 -1.1419082262026853e-09 6.3186867705575" Properties=species:S:1:pos:R:3:forces:R:3 energy=-38.28472900390625 free_energy=-38.28472900390625 stress="0.00046762177953496575 2.1862980759124184e-08 2.0455958704701516e-08 2.1862980759124184e-08 0.00046759843826293945 2.4718429969539102e-08 2.0455958704701516e-08 2.4718429969539102e-08 0.0004676975659094751" pbc="T T T"
Fe       1.82404785       1.28979590       3.15934407      -0.00000101      -0.00000417       0.00000141
Fe       5.47214189       3.86938769       9.47802710      -0.00000998      -0.00001176      -0.00001048
P        0.00000012      -0.00000008       0.00000046       0.00000080       0.00000010      -0.00000222
Se       2.10864902       1.49103993       6.31868707      -0.00782081      -0.00552768       0.00000392
Se       5.18754387       3.66814749       6.31868750       0.00782543       0.00553587       0.00000244
Se       4.41781967       1.49104002       4.98548635       0.00391303      -0.00553223      -0.00677285
Se       2.87837300       3.66814824       7.65188731      -0.00391050       0.00553373       0.00677350
Se       2.87837301       3.66814718       4.98548612      -0.00391017       0.00553414      -0.00677320
Se       4.41782057       1.49104204       7.65188816       0.00391324      -0.00552800       0.00677752
