9
Lattice="2.5336511582106613 -0.7272127205307171 2.73449984007457 0.4926673618313724 0.5424358402114668 3.0777790985236146 -1.265671332879758 -1.2687617289328836 3.5132014313844198" Properties=species:S:1:pos:R:3:forces:R:3 energy=-10047152128.0 free_energy=-10047152128.0 stress="6194054144.0 182935600.0 -609478720.0 182935600.0 6323751936.0 22923674.0 -609478720.0 22923674.0 4257334272.0" pbc="T T T"
Fe      -0.39564977       0.55580706       2.10715780 12700403712.00000000 14901778432.00000000 -2520498688.00000000
Fe       1.24360675      -0.87974174       8.33110407 -18090147840.00000000 -3647939584.00000000 4489531904.00000000
P        1.60809804      -0.18095192       2.04753456 17865545728.00000000 3419746048.00000000 -8048411648.00000000
O       -0.62044549      -2.02096001       7.93358554 -834429376.00000000 -3076138496.00000000 892723712.00000000
O        1.25438809       0.17552576       5.09219036 9015181312.00000000 5107485184.00000000 -1840731392.00000000
O        0.87943447      -0.83917127       5.49254831 -12585568256.00000000 -20502446080.00000000 -7413588992.00000000
O       -0.57380561      -0.66706595       8.22306844 -6874404352.00000000 -3427113984.00000000 11762632704.00000000
O        0.33848078       0.40730874       5.16407898 3129259520.00000000 9574554624.00000000 -4191182336.00000000
O        1.25437094      -0.47682602       8.58024670 -4325830656.00000000 -2349922304.00000000 6869525504.00000000
