9
Lattice="5.445512159043104 -1.1513547857073999e-07 3.1439680267495054 1.8151706528747404 5.134077761749663 3.1439679544459005 -3.983958084535768e-08 -1.1672429248420049e-07 6.287936122503154" Properties=species:S:1:pos:R:3:forces:R:3 energy=-39.91912078857422 free_energy=-39.91912078857422 stress="-0.000341092876624316 1.5706409506321961e-09 6.353575798812017e-08 1.5706409506321961e-09 -0.00034110332489944994 -4.646065221436402e-08 6.353575798812017e-08 -4.646065221436402e-08 -0.0003410757053643465" pbc="T T T"
Fe       1.81516959       1.28352045       3.14396865      -0.00000935       0.00001061       0.00000553
Fe       5.44551261       3.85055633       9.43190369       0.00000489      -0.00001647      -0.00000292
P       -0.00000002      -0.00000001      -0.00000005      -0.00000442       0.00000296       0.00000130
S        1.76135481       1.24546684       6.28793699       0.00530875       0.00376499       0.00000694
S        5.49932807       3.88861059       6.28793731      -0.00530589      -0.00376356       0.00000949
S        4.56483466       1.24546697       4.66934583      -0.00265515       0.00376600       0.00459373
S        2.69584805       3.88861221       7.90652506       0.00265533      -0.00375515      -0.00461030
S        2.69584818       3.88861052       4.66934570       0.00265360      -0.00376463       0.00459528
S        4.56483509       1.24546625       7.90652529      -0.00264758       0.00375527      -0.00460064
