9
Lattice="5.204472680121663 1.8972190902807737e-07 3.0048040937480955 1.7348243049987397 4.90682458811479 3.004804267957777 -6.753094329866574e-08 1.6561083440531418e-07 6.009608304463227" Properties=species:S:1:pos:R:3:forces:R:3 energy=-44.95832061767578 free_energy=-44.95832061767578 stress="-9.825657798501197e-06 -4.025439181987167e-08 -3.057187569766029e-08 -4.025439181987167e-08 -9.929506632033736e-06 -2.0998545124939483e-09 -3.057187569766029e-08 -2.0998545124939483e-09 -9.967201549443416e-06" pbc="T T T"
Fe       1.73482393       1.22670601       3.00480455      -0.00000145      -0.00000377       0.00000277
Fe       5.20447288       3.68011756       9.01441265       0.00000017      -0.00000864       0.00000269
Ru      -0.00000084      -0.00000162      -0.00000020      -0.00000182      -0.00000523       0.00000035
S        1.84657071       1.30572313       6.00960796      -0.00060683      -0.00042379      -0.00000487
S        5.09272716       3.60110328       6.00960785       0.00059843       0.00042880      -0.00000532
S        4.28118767       1.30572259       4.60398143       0.00030538      -0.00042588      -0.00052357
S        2.65810964       3.60110266       7.41523586      -0.00029895       0.00042951       0.00052232
S        2.65810965       3.60110316       4.60398113      -0.00029784       0.00043148      -0.00051886
S        4.28118694       1.30572314       7.41523531       0.00030309      -0.00042278       0.00052482
