9
Lattice="5.266413224158524 -1.8809984514452487e-08 3.0405655902453277 1.7554710669354558 4.965222360667504 3.0405655730109986 -2.2624285868840958e-10 -2.1267569503391665e-08 6.081131180882572" Properties=species:S:1:pos:R:3:forces:R:3 energy=-43.42362976074219 free_energy=-43.42362976074219 stress="0.00014990860654506832 -4.071437231800701e-08 -3.010656612900675e-08 -4.071437231800701e-08 0.00014983474102336913 5.160231797418646e-09 -3.010656612900675e-08 5.160231797418646e-09 0.00014981786080170423" pbc="T T T"
Fe       1.75546984       1.24130631       3.04056431      -0.00000659       0.00000372      -0.00000800
Fe       5.26641225       3.72391657       9.12169567      -0.00000639       0.00000058      -0.00000875
Rh      -0.00000000       0.00000005       0.00000013      -0.00000054      -0.00000019       0.00000076
S        1.86201087       1.31664033       6.08113095       0.00289029       0.00204366      -0.00000148
S        5.15987408       3.64858189       6.08113105      -0.00288790      -0.00204343      -0.00000430
S        4.33540847       1.31664001       4.65311512      -0.00143829       0.00204092       0.00250518
S        2.68647781       3.64858138       7.50914891       0.00144958      -0.00204355      -0.00249314
S        2.68647605       3.64858222       4.65311514       0.00144330      -0.00204283       0.00250661
S        4.33540783       1.31664064       7.50914840      -0.00144362       0.00204068      -0.00249702
