9
Lattice="5.455110998032103 -8.713532082015744e-08 3.1495098969899447 1.8183702752275208 5.143127446075437 3.149509854204806 2.7701956459303356e-08 -3.2812796484951084e-08 6.299019745998816" Properties=species:S:1:pos:R:3:forces:R:3 energy=-40.853633880615234 free_energy=-40.853633880615234 stress="-0.00018375900981482118 -4.4411549993128574e-08 1.9547812257769692e-08 -4.4411549993128574e-08 -0.0001836842711782083 3.5194773762015075e-09 1.9547812257769692e-08 3.5194773762015075e-09 -0.00018370167526882142" pbc="T T T"
Fe       1.81836981       1.28578194       3.14950963      -0.00000226       0.00000160      -0.00000032
Fe       5.45511113       3.85734607       9.44853044      -0.00000027       0.00000263       0.00000260
Rh      -0.00000032      -0.00000024       0.00000005       0.00000263       0.00000143      -0.00000147
Se       2.04106430       1.44325087       6.29901942      -0.00315735      -0.00223061      -0.00000051
Se       5.23241690       3.69987681       6.29901905       0.00315472       0.00223058      -0.00000072
Se       4.43457890       1.44325017       4.91712443       0.00158000      -0.00223596      -0.00273407
Se       2.83890297       3.69987662       7.68091577      -0.00157723       0.00223133       0.00273515
Se       2.83890324       3.69987666       4.91712377      -0.00157911       0.00223340      -0.00273652
Se       4.43457823       1.44325035       7.68091551       0.00157885      -0.00223446       0.00273587
