9
Lattice="5.419598830401153 -3.667153261904564e-07 3.129007103702701 1.8065326361253438 5.109647372938339 3.1290070371905854 1.5294877460037857e-07 2.6690789110145216e-08 6.258013942490386" Properties=species:S:1:pos:R:3:forces:R:3 energy=-41.97138595581055 free_energy=-41.97138595581055 stress="3.291935627203202e-06 -1.7213665159943048e-08 -1.8396830725464497e-08 -1.7213665159943048e-08 3.2144841952685965e-06 -3.5502236706008716e-09 -1.8396830725464497e-08 -3.5502236706008716e-09 3.3993637771345675e-06" pbc="T T T"
Fe       1.80653219       1.27740881       3.12900814      -0.00000354      -0.00001379       0.00000497
Fe       5.41959865       3.83223526       9.38702078      -0.00000085      -0.00000170       0.00000115
Ru      -0.00000016       0.00000034      -0.00000023       0.00000246       0.00000110      -0.00000059
Se       2.00953709       1.42095698       6.25801424      -0.00411914      -0.00291441       0.00000073
Se       5.21659473       3.68869085       6.25801440       0.00412039       0.00291729      -0.00000015
Se       4.41483039       1.42095719       4.86931699       0.00206079      -0.00291486      -0.00357270
Se       2.81130146       3.68869093       7.64670995      -0.00206304       0.00292128       0.00357045
Se       2.81130106       3.68869035       4.86931753      -0.00206280       0.00291888      -0.00357342
Se       4.41483109       1.42095741       7.64671057       0.00206568      -0.00291392       0.00356950
