9
Lattice="5.732258337422061 -6.466708615448024e-08 3.3095208674285796 1.9107527206685124 5.404425046728231 3.3095208631043485 -3.231058419256906e-08 -2.8143047075451883e-08 6.619041790820691" Properties=species:S:1:pos:R:3:forces:R:3 energy=-36.830997467041016 free_energy=-36.830997467041016 stress="-6.647831469308585e-05 -1.6850487227770827e-08 1.3799772879963257e-08 -1.6850487227770827e-08 -6.648794806096703e-05 1.193457777048934e-08 1.3799772879963257e-08 1.193457777048934e-08 -6.647460395470262e-05" pbc="T T T"
Fe       1.91075136       1.35110707       3.30952070      -0.00000308       0.00000270      -0.00000109
Fe       5.73225872       4.05331991       9.92855989       0.00000064       0.00000238      -0.00000605
Sb       0.00000008      -0.00000031       0.00000026       0.00000027       0.00000048      -0.00000256
Se       2.26885939       1.60432476       6.61904191      -0.00458732      -0.00324681       0.00000065
Se       5.37415287       3.80009808       6.61904283       0.00459176       0.00324321       0.00000191
Se       4.59782868       1.60432523       5.27441058       0.00229417      -0.00324619      -0.00397414
Se       3.04518231       3.80009977       7.96367308      -0.00229566       0.00324601       0.00397551
Se       3.04518170       3.80009943       5.27441115      -0.00229530       0.00324488      -0.00397226
Se       4.59782893       1.60432582       7.96367371       0.00229478      -0.00324681       0.00397804
