9
Lattice="5.554284619024366 1.222915770387582e-07 3.2067679773050815 1.8514282955542505 5.236629845663693 3.206768022485179 2.5231634763723883e-07 2.3374876467668266e-07 6.413535517585346" Properties=species:S:1:pos:R:3:forces:R:3 energy=-36.65503692626953 free_energy=-36.65503692626953 stress="-0.00013890404079575092 -1.8232507059678937e-08 -1.0036487907427727e-07 -1.8232507059678937e-08 -0.0001388604287058115 -8.30603354984305e-08 -1.0036487907427727e-07 -8.30603354984305e-08 -0.00013890927948523313" pbc="T T T"
Fe       1.85142681       1.30915648       3.20676850      -0.00000981      -0.00000528       0.00000633
Fe       5.55428606       3.92747045       9.62029731       0.00000864      -0.00001695      -0.00004541
Sb       0.00000013      -0.00000010       0.00000009      -0.00000200      -0.00000285      -0.00000338
S        2.00398111       1.41703072       6.41353512       0.00429291       0.00305003      -0.00000357
S        5.40173097       3.81960125       6.41353929      -0.00429928      -0.00303751       0.00002727
S        4.55229331       1.41702849       4.94226810      -0.00215137       0.00303337       0.00372884
S        2.85342035       3.81960166       7.88480469       0.00215781      -0.00303540      -0.00372157
S        2.85341765       3.81960025       4.94226793       0.00213632      -0.00304094       0.00372887
S        4.55229629       1.41703147       7.88480504      -0.00213313       0.00305533      -0.00371695
