9
Lattice="5.62581504520015 6.760594694213915e-08 3.248065631550055 1.875271682034409 5.304069462725576 3.2480657414286864 -3.097637044607983e-08 1.1266974867887223e-07 6.496131316752715" Properties=species:S:1:pos:R:3:forces:R:3 energy=-45.029701232910156 free_energy=-45.029701232910156 stress="1.8478692709322786e-07 1.1234468644261142e-07 2.3298730056353634e-08 1.1234468644261142e-07 1.2090593770608393e-07 -3.645009272190691e-08 2.3298730056353634e-08 -3.645009272190691e-08 1.350408496136879e-07" pbc="T T T"
Fe       1.87527239       1.32601633       3.24806514       0.00000573      -0.00000425      -0.00000520
Fe       5.62581568       3.97805220       9.74419518       0.00000491       0.00000106      -0.00001173
Ta       0.00000017       0.00000041      -0.00000024      -0.00000308      -0.00000631       0.00000883
Se       2.04924111       1.44903250       6.49613147       0.00172988       0.00122418       0.00000134
Se       5.45184523       3.85503750       6.49613208      -0.00172901      -0.00122246       0.00000262
Se       4.60119411       1.44903186       5.02276041      -0.00086863       0.00122628       0.00150375
Se       2.89989195       3.85503767       7.96950251       0.00086610      -0.00122622      -0.00149894
Se       2.89989174       3.85503770       5.02276122       0.00086269      -0.00122008       0.00150008
Se       4.60119438       1.44903242       7.96950301      -0.00086841       0.00122777      -0.00150059
