9
Lattice="4.590279997135652 8.685460447081011e-08 2.6501995231532876 1.5300933411767965 4.327757884778956 2.650199649747202 -4.4757071151217895e-08 1.2339722648785517e-07 5.300399123828121" Properties=species:S:1:pos:R:3:forces:R:3 energy=-59.79198455810547 free_energy=-59.79198455810547 stress="-5.9333538956707343e-05 6.834264709709714e-09 -1.0889779389344767e-07 6.834264709709714e-09 -5.915264046052471e-05 5.3030234425932576e-08 -1.0889779389344767e-07 5.3030234425932576e-08 -5.949318438069895e-05" pbc="T T T"
Fe       1.53009293       1.08193953       2.65019956      -0.00000110       0.00000108       0.00000156
Fe       4.59028025       3.24581913       7.95059901      -0.00000126       0.00000259       0.00000154
Ta      -0.00000012       0.00000009       0.00000011       0.00000125       0.00000519       0.00000052
O        1.59084299       1.12489567       5.30039928      -0.00071341      -0.00050586      -0.00000176
O        4.52953031       3.20286208       5.30039894       0.00071311       0.00050229      -0.00000207
O        3.79485873       1.12489574       4.02791003       0.00035754      -0.00050640      -0.00061971
O        2.32551489       3.20286211       6.57288841      -0.00035906       0.00050712       0.00061756
O        2.32551450       3.20286224       4.02790995      -0.00035471       0.00049841      -0.00061339
O        3.79485852       1.12489584       6.57288830       0.00035733      -0.00050420       0.00061619
