9
Lattice="5.379693435629756 -5.2674480977492995e-08 3.1059674700037356 1.7932310688309483 5.072023763379873 3.105967516278902 -5.232069950691336e-08 1.967895727304747e-08 6.21193503062958" Properties=species:S:1:pos:R:3:forces:R:3 energy=-49.85775375366211 free_energy=-49.85775375366211 stress="4.0069724491331726e-05 -5.7814578013903883e-08 -4.1418058316367024e-08 -5.7814578013903883e-08 4.0124588849721476e-05 -5.525997881505873e-09 -4.1418058316367024e-08 -5.525997881505873e-09 4.022280700155534e-05" pbc="T T T"
Fe       1.79323090       1.26800598       3.10596709      -0.00000164       0.00000067      -0.00000242
Fe       5.37969307       3.80401738       9.31790275      -0.00000139      -0.00000254      -0.00000052
Ta       0.00000004       0.00000011       0.00000022      -0.00000331      -0.00000247      -0.00000292
S        1.93092192       1.36536806       6.21193502      -0.00121751      -0.00086001       0.00000058
S        5.24200242       3.70665582       6.21193489       0.00122175       0.00086397      -0.00000066
S        4.41423281       1.36536805       4.77819514       0.00061372      -0.00086379      -0.00105798
S        2.75869214       3.70665541       7.64567492      -0.00061317       0.00086543       0.00106004
S        2.75869206       3.70665574       4.77819519      -0.00061153       0.00086394      -0.00105739
S        4.41423243       1.36536836       7.64567483       0.00061306      -0.00086507       0.00106126
