9
Lattice="5.638511851000954 5.161136211815703e-08 3.2553963246713846 1.8795039370733582 5.316040215595233 3.2553964319198445 -9.574591913734171e-08 6.364947448315028e-08 6.510792815179537" Properties=species:S:1:pos:R:3:forces:R:3 energy=-31.25455093383789 free_energy=-31.25455093383789 stress="0.00015961412282194942 -1.1585621351173359e-08 -1.842629160364595e-08 -1.1585621351173359e-08 0.00015961486496962607 7.113730937646778e-09 -1.842629160364595e-08 7.113730937646778e-09 0.00015964466729201376" pbc="T T T"
Ga       1.87950389       1.32900997       3.25539645      -0.00000038      -0.00000009      -0.00000029
Ga       5.63851181       3.98703019       9.76618970      -0.00000020       0.00000001       0.00000004
As       0.00000029       0.00000025       0.00000009      -0.00000170      -0.00000135      -0.00000165
Se       2.20115357       1.55645090       6.51079282      -0.00323051      -0.00228462      -0.00000074
Se       5.31686245       3.75958978       6.51079288       0.00322968       0.00228387      -0.00000040
Se       4.53793526       1.55645030       5.16165091       0.00161505      -0.00228283      -0.00279719
Se       2.98008059       3.75958928       7.85993405      -0.00161503       0.00228608       0.00279897
Se       2.98008040       3.75958989       5.16165108      -0.00161350       0.00228357      -0.00279710
Se       4.53793455       1.55645085       7.85993424       0.00161667      -0.00228456       0.00279847
