9
Lattice="4.388890925924064 4.887895980248346e-07 2.533926972819986 1.4629641092463619 4.137888170307764 2.533926961671773 -3.1859485893008223e-06 -2.2664595506789188e-06 5.067859463864349" Properties=species:S:1:pos:R:3:forces:R:3 energy=-45.47002029418945 free_energy=-45.47002029418945 stress="3.740372631000355e-05 -4.651677500078222e-06 8.658738806843758e-06 -4.651677500078222e-06 3.3246386010432616e-05 6.1782134253007825e-06 8.658738806843758e-06 6.1782134253007825e-06 2.7487825718708336e-05" pbc="T T T"
Ga       1.46296933       1.03447180       2.53392281       0.00008230       0.00001344      -0.00010637
Ga       4.38887656       3.10341244       7.60180643      -0.00020282      -0.00001345       0.00032631
As      -0.00002311       0.00000367       0.00003403      -0.00034590       0.00005464       0.00053229
N        1.74349034       1.23282666       5.06791708      -0.00128409      -0.00109705       0.00081264
N        4.10839556       2.90510190       5.06782936       0.00171195       0.00156076      -0.00052719
N        3.51717605       1.23280933       4.04376832       0.00110577      -0.00114430      -0.00205424
N        2.33471077       2.90499805       6.09186984      -0.00065535       0.00024909       0.00116688
N        2.33472257       2.90509069       4.04380125      -0.00031741       0.00143662      -0.00169078
N        3.51708940       1.23283097       6.09190435      -0.00009443      -0.00105971       0.00154020
