9
Lattice="5.76803953953905 2.675115225558653e-07 3.3301792668011685 1.9226799973047075 5.438160164198103 3.330179442466706 -1.349641061313243e-07 1.19711431798806e-07 6.660358767367015" Properties=species:S:1:pos:R:3:forces:R:3 energy=-31.404701232910156 free_energy=-31.404701232910156 stress="-8.094037912087515e-05 -2.9700188974857156e-09 2.796471676447254e-08 -2.9700188974857156e-09 -8.09819030109793e-05 7.604557872298301e-09 2.796471676447254e-08 7.604557872298301e-09 -8.099376282189041e-05" pbc="T T T"
Ga       1.92267984       1.35954045       3.33018037       0.00000096      -0.00000225       0.00000597
Ga       5.76803972       4.07862067       9.99053885       0.00000028       0.00000019       0.00000467
As       0.00000002      -0.00000002       0.00000054       0.00000505      -0.00000709       0.00001192
S        1.93085871       1.36532522       6.66035758      -0.00106776      -0.00075120      -0.00000340
S        5.75985899       4.07283767       6.66035766       0.00106406       0.00075692      -0.00000193
S        4.80260939       1.36532407       5.00235260       0.00053155      -0.00075412      -0.00092298
S        2.88810929       4.07283730       8.31836545      -0.00053102       0.00075275       0.00092244
S        2.88811127       4.07283482       5.00235336      -0.00053376       0.00075769      -0.00093108
S        4.80261027       1.36532244       8.31836387       0.00053024      -0.00075263       0.00091439
