9
Lattice="4.36208887095906 3.190936971370548e-08 2.518453147728622 1.4540296658370615 4.112616842283757 2.518453126771495 4.820987421254762e-08 8.42241206464116e-09 5.036906211955312" Properties=species:S:1:pos:R:3:forces:R:3 energy=-44.06079864501953 free_energy=-44.06079864501953 stress="0.0004311400989536196 -6.64737764832779e-10 -1.4230718647922913e-07 -6.64737764832779e-10 0.00043155861203558743 -2.3810298177551203e-10 -1.4230718647922913e-07 -2.3810298177551203e-10 0.00043133701547048986" pbc="T T T"
Ga       1.45402928       1.02815416       2.51845314      -0.00000484       0.00000220      -0.00000004
Ga       4.36208952       3.08446277       7.55536172       0.00001008      -0.00000096       0.00003441
As       0.00000001      -0.00000005       0.00000006       0.00000203      -0.00000356      -0.00000012
O        1.47476548       1.04281771       5.03690611      -0.00213444      -0.00149870       0.00000126
O        4.34135308       3.06979895       5.03690508       0.00213575       0.00149804      -0.00001655
O        3.62470559       1.04281713       3.79563739       0.00106210      -0.00150526      -0.00184608
O        2.19141301       3.06980028       6.27817432      -0.00106555       0.00150877       0.00184035
O        2.19141289       3.06980022       3.79563788      -0.00106257       0.00151461      -0.00184810
O        3.62470541       1.04281642       6.27817425       0.00105762      -0.00151515       0.00183535
