9
Lattice="4.143449952034778 -3.153909869839119e-07 2.392221857484511 1.3811497851324512 3.9064817217571517 2.392221686921913 -1.5120133225423765e-07 -3.1581113598823605e-07 4.7844439768573634" Properties=species:S:1:pos:R:3:forces:R:3 energy=-46.081180572509766 free_energy=-46.081180572509766 stress="-0.0001022957731038332 -2.7534345914403957e-09 -5.5773668350411754e-08 -2.7534345914403957e-09 -0.00010260258568450809 -2.925059163771948e-07 -5.5773668350411754e-08 -2.925059163771948e-07 -0.00010236044909106568" pbc="T T T"
Ga       1.38115297       0.97661862       2.39222778       0.00004228      -0.00000588       0.00008746
Ga       4.14345266       2.92986579       7.17667010       0.00004454       0.00005399       0.00006641
B       -0.00000039       0.00000008       0.00000003       0.00000808       0.00000269       0.00000328
O        1.24365543       0.87939369       4.78444257       0.00477993       0.00333649      -0.00002304
O        4.28094278       3.02708714       4.78444216      -0.00480694      -0.00334924      -0.00003074
O        3.52162175       0.87939699       3.46925583      -0.00240430       0.00337702       0.00411391
O        2.00297413       3.02708464       6.09962779       0.00236556      -0.00338715      -0.00416714
O        2.00297430       3.02708293       3.46925669       0.00235742      -0.00338835       0.00411934
O        3.52162439       0.87939487       6.09962685      -0.00238523       0.00336117      -0.00416869
