9
Lattice="5.052114035891091 -4.108490869865521 0.8773271598961598 5.663282130191084 2.266771870451577 1.1757498225731435 1.5582877338071797 -3.3242688961291247 5.005927047284982" Properties=species:S:1:pos:R:3:forces:R:3 energy=-29149924.0 free_energy=-29149924.0 stress="373556.90625 9872.8818359375 49871.98828125 9872.8818359375 139440.296875 -31891.73046875 49871.98828125 -31891.73046875 -30239.390625" pbc="T T T"
Ga      -0.48511889      -3.83920882       5.68686536 -2074202.25000000 -248723.31250000 1908233.25000000
Ga       6.79401061      -3.55272683       1.31579377 17291208.00000000 8634647.00000000 -5348019.00000000
Be      -3.35691974      -1.11898734      -0.35489406 -89593472.00000000 -46471516.00000000 -85796936.00000000
Se       1.31908187      -2.26648751       3.92450043  863002.12500000 -266408.25000000  418574.21875000
Se       6.61791435      -2.83540383       1.76607449 51980080.00000000 -5567430.00000000 8046840.00000000
Se       2.67069674      -2.39478413       1.27833411 -1016602.56250000 1127939.00000000   96441.37500000
Se       3.78190992      -1.64280510       5.42868957 5503600.00000000 -7847184.00000000 3797608.00000000
Se       3.75388434      -2.17224786       1.02807834  293937.43750000  422603.96875000 -211218.39062500
Se       3.17710381      -8.60456507       5.63135321 16752464.00000000 50216080.00000000 77088480.00000000
