9
Lattice="4.690361492410534 -2.39474972679826e-07 2.7079798723173596 1.56345375503592 4.4221102503397836 2.7079796124894586 -1.8436008846257177e-06 -1.6218464685995757e-06 5.415962937842811" Properties=species:S:1:pos:R:3:forces:R:3 energy=-31.182422637939453 free_energy=-31.182422637939453 stress="-9.355043584946543e-05 1.1574695690796943e-07 2.3821982608751568e-07 1.1574695690796943e-07 -9.374445653520525e-05 -4.112573606107617e-07 2.3821982608751568e-07 -4.112573606107617e-07 -9.41528269322589e-05" pbc="T T T"
Ga       1.56344055       1.10552685       2.70798042       0.00002716       0.00001851      -0.00001213
Ga       4.69036485       3.31658856       8.12393708       0.00000022      -0.00002361      -0.00001237
Be       0.00000673      -0.00000779       0.00000887      -0.00002564       0.00003827      -0.00007148
S        1.61426362       1.14145031       5.41595782      -0.00044417      -0.00033608       0.00001225
S        4.63955261       3.28065702       5.41594858       0.00046659       0.00028479       0.00001891
S        3.88322344       1.14145295       4.10596380       0.00021133      -0.00031248      -0.00034255
S        2.37058092       3.28065065       6.72595333      -0.00021881       0.00027835       0.00041604
S        2.37059122       3.28065523       4.10597607      -0.00023592       0.00033402      -0.00040030
S        3.88322990       1.14145935       6.72596369       0.00021923      -0.00028202       0.00039160
