9
Lattice="5.57150706097966 3.783659954940892e-08 3.2167111094463037 1.8571690375099061 5.2528670918274925 3.2167111414707135 -2.1818041913948997e-08 2.37940942419719e-08 6.433422256682531" Properties=species:S:1:pos:R:3:forces:R:3 energy=-31.996376037597656 free_energy=-31.996376037597656 stress="-3.149543044855818e-05 -4.645239304323923e-09 3.988648078490087e-09 -4.645239304323923e-09 -3.148852556478232e-05 9.800957379013653e-09 3.988648078490087e-09 9.800957379013653e-09 -3.1522420613327995e-05" pbc="T T T"
Ga       1.85716874       1.31321664       3.21671140       0.00000002      -0.00000071       0.00000045
Ga       5.57150744       3.93965027       9.65013341       0.00000061       0.00000013      -0.00000066
B        0.00000022      -0.00000033      -0.00000011       0.00000061      -0.00000111      -0.00000057
Se       1.71358087       1.21168499       6.43342221       0.00668700       0.00472902      -0.00000040
Se       5.71509463       4.04118279       6.43342242      -0.00668874      -0.00472735       0.00000062
Se       4.71471656       1.21168451       4.70071596      -0.00334375       0.00472753       0.00579107
Se       2.71395958       4.04118230       8.16612789       0.00334369      -0.00472701      -0.00579093
Se       2.71395931       4.04118271       4.70071624       0.00334354      -0.00472823       0.00579163
Se       4.71471692       1.21168476       8.16612853      -0.00334290       0.00472784      -0.00579113
