9
Lattice="5.542123662100998 9.327663707588528e-07 3.199746343676054 1.8473753655989975 5.225162356941016 3.199746461204306 2.995779185649808e-07 3.5577606964150057e-07 6.3994921684676775" Properties=species:S:1:pos:R:3:forces:R:3 energy=-33.62694549560547 free_energy=-33.62694549560547 stress="-4.249291669111699e-05 6.463575630277774e-08 -6.491596593605209e-08 6.463575630277774e-08 -4.2433341150172055e-05 5.8858056206645415e-08 -6.491596593605209e-08 5.8858056206645415e-08 -4.2530322389211506e-05" pbc="T T T"
Ga       1.84736788       1.30629355       3.19974738      -0.00002164       0.00000517       0.00000256
Ga       5.54212150       3.91887323       9.59923822      -0.00001163       0.00000059      -0.00000147
B        0.00000191      -0.00000102      -0.00000000      -0.00000443      -0.00000540       0.00000863
S        1.63196116       1.15397008       6.39949423       0.00048935       0.00033760       0.00000546
S        5.75753776       4.07119348       6.39949430      -0.00046146      -0.00033343       0.00000533
S        4.72614461       1.15397049       4.61306430      -0.00023732       0.00033838       0.00042087
S        2.66335710       4.07119345       8.18591890       0.00024211      -0.00034273      -0.00041205
S        2.66335723       4.07119226       4.61306527       0.00024262      -0.00034547       0.00040990
S        4.72614946       1.15396897       8.18591944      -0.00023681       0.00034565      -0.00043905
