9
Lattice="4.28898374079015 8.519131452954024e-08 2.476245784398617 1.42966137477059 4.043692341030385 2.476245702089093 2.3121605791322406e-07 6.268634154364547e-08 4.9524911683192245" Properties=species:S:1:pos:R:3:forces:R:3 energy=-41.518768310546875 free_energy=-41.518768310546875 stress="0.0004886093083769083 4.664827812916883e-08 6.564276588960638e-08 4.664827812916883e-08 0.0004884197260253131 5.3204864514100336e-08 6.564276588960638e-08 5.3204864514100336e-08 0.0004884894005954266" pbc="T T T"
Ga       1.42966626       1.01092510       2.47624641       0.00007955       0.00003583       0.00001695
Ga       4.28898270       3.03277157       7.42874924      -0.00001375       0.00003638       0.00020204
Be       0.00000046       0.00000017       0.00000038      -0.00000386       0.00000230       0.00000982
O        1.35241363       0.95629716       4.95249117      -0.00399554      -0.00286990      -0.00000564
O        4.36623252       3.08739330       4.95248584       0.00400394       0.00285238      -0.00008780
O        3.61277711       0.95630187       3.64746570       0.00199160      -0.00281268      -0.00352067
O        2.10586340       3.08739152       6.25751297      -0.00205070       0.00280884       0.00344783
O        2.10586844       3.08739167       3.64746572      -0.00198162       0.00281292      -0.00351411
O        3.61277724       0.95629754       6.25751382       0.00197095      -0.00286618       0.00345027
