9
Lattice="6.219546397162805 9.039487785680996e-09 3.5908566031511664 2.0731820912179253 5.863844516125144 3.590856689220735 -8.147501374046018e-08 4.780179933967459e-08 7.181713347421128" Properties=species:S:1:pos:R:3:forces:R:3 energy=-29.102930068969727 free_energy=-29.102930068969727 stress="9.828668407863006e-05 4.8792925255725095e-09 -1.2237206803433764e-08 4.8792925255725095e-09 9.830398630583659e-05 -6.113906048099693e-10 -1.2237206803433764e-08 -6.113906048099693e-10 9.829561895458028e-05" pbc="T T T"
Ga       2.07318191       1.46596103       3.59085677      -0.00000009       0.00000006       0.00000015
Ga       6.21954667       4.39788320      10.77257052       0.00000021      -0.00000008       0.00000038
B        0.00000020       0.00000082      -0.00000057       0.00000157      -0.00001254       0.00000271
Te       1.88172115       1.33057792       7.18171356      -0.00170054      -0.00120343       0.00000067
Te       6.41100636       4.53326651       7.18171321       0.00170761       0.00120690       0.00000046
Te       5.27868568       1.33057811       5.22047445       0.00085029      -0.00120364      -0.00147358
Te       3.01404291       4.53326632       9.14295114      -0.00085341       0.00120663       0.00147843
Te       3.01404302       4.53326671       5.22047534      -0.00085420       0.00120760      -0.00147978
Te       5.27868574       1.33057764       9.14295215       0.00084858      -0.00120147       0.00147062
