9
Lattice="6.150414212441903 -1.943997526937128e-07 3.5509428689673355 2.0501380186367024 5.798665322197402 3.5509426418876218 -7.860586140979709e-08 -3.336974171968767e-07 7.101885874083987" Properties=species:S:1:pos:R:3:forces:R:3 energy=-27.66299819946289 free_energy=-27.66299819946289 stress="-0.0002714403672143817 3.233410339475995e-08 1.1881130745905466e-08 3.233410339475995e-08 -0.0002713297144509852 -2.9028232262362508e-08 1.1881130745905466e-08 -2.9028232262362508e-08 -0.0002714357397053391" pbc="T T T"
Ga       2.05013734       1.44966437       3.55094289      -0.00000056      -0.00000303       0.00000020
Ga       6.15041441       4.34899935      10.65282865      -0.00000015       0.00000126      -0.00000020
Be       0.00000112       0.00000110      -0.00000113      -0.00001600      -0.00001530       0.00001364
Te       1.90157081       1.34461230       7.10188619       0.00659588       0.00466006       0.00000038
Te       6.29897951       4.45405234       7.10188597      -0.00657842      -0.00464557       0.00000142
Te       5.19962853       1.34461237       5.19775136      -0.00329372       0.00465341       0.00570330
Te       3.00092419       4.45405280       9.00602014       0.00329798      -0.00465751      -0.00570911
Te       3.00092396       4.45405241       5.19775159       0.00329134      -0.00465164       0.00570017
Te       5.19962877       1.34461219       9.00602000      -0.00329629       0.00465848      -0.00570971
