9
Lattice="6.055878844863828 -1.861263736656007e-07 3.4963637073840057 2.0186261522742295 5.709537327283071 3.496363627476561 2.403415245480349e-07 7.208085449894596e-08 6.992726998484274" Properties=species:S:1:pos:R:3:forces:R:3 energy=-31.976913452148438 free_energy=-31.976913452148438 stress="-3.0346638595801778e-05 -1.4267077297347441e-08 -5.0306243615239055e-09 -1.4267077297347441e-08 -3.034360270248726e-05 5.488165921718746e-09 -5.0306243615239055e-09 5.488165921718746e-09 -3.0344794140546583e-05" pbc="T T T"
Ga       2.01862635       1.42738438       3.49636360      -0.00000011       0.00000024       0.00000073
Ga       6.05587895       4.28215285      10.48909090      -0.00000006      -0.00000063       0.00000038
Co      -0.00000073      -0.00000045       0.00000126       0.00000834       0.00000341      -0.00000811
Te       2.00178122       1.41547323       6.99272655       0.00000784       0.00000716       0.00000007
Te       6.07272450       4.29406431       6.99272688      -0.00001413      -0.00001077       0.00000029
Te       5.05498813       1.41547299       5.22995679      -0.00000738       0.00000988       0.00001138
Te       3.01951726       4.29406424       8.75549743       0.00000374      -0.00000612      -0.00000753
Te       3.01951670       4.29406402       5.22995677       0.00000647      -0.00000976       0.00001071
Te       5.05498855       1.41547330       8.75549721      -0.00000467       0.00000659      -0.00000781
