9
Lattice="4.2053184179811245 4.684876740025767e-06 2.4279515082648935 1.4017775320276018 3.9648103110151807 2.4279509729067166 2.2936583710063363e-06 9.661831603456192e-07 4.855899043794842" Properties=species:S:1:pos:R:3:forces:R:3 energy=-52.23218536376953 free_energy=-52.23218536376953 stress="0.00024771553580649197 -2.067805326078087e-05 -9.841989594860934e-06 -2.067805326078087e-05 0.000262293906416744 -6.224541721167043e-06 -9.841989594860934e-06 -6.224541721167043e-06 0.00018539957818575203" pbc="T T T"
Ga       1.40178118       0.99120964       2.42795069       0.00005250       0.00004095       0.00001136
Ga       4.20532045       2.97361150       7.28384710      -0.00004159      -0.00002491      -0.00002011
Cr      -0.00000063      -0.00000129       0.00000002       0.00000098       0.00000690       0.00000806
N        1.63104447       1.15332914       4.85590123       0.00412610       0.00299394      -0.00006965
N        3.97604570       2.81149189       4.85593514      -0.00420853      -0.00289983       0.00052909
N        3.38975541       1.15335699       3.84043189      -0.00282857       0.00353074       0.00269005
N        2.21733029       2.81146237       5.87135820       0.00264390      -0.00346246      -0.00285587
N        2.21732443       2.81144149       3.84042700       0.00251332      -0.00382867       0.00262022
N        3.38979108       1.15336151       5.87135540      -0.00225793       0.00364336      -0.00291306
