9
Lattice="4.116339827872044 -2.5018183552333246e-08 2.3765697717430716 1.3721132807063083 3.880922005027981 2.37656972266309 6.596168841371911e-08 -1.3468481704175416e-08 4.753139429237155" Properties=species:S:1:pos:R:3:forces:R:3 energy=-46.350555419921875 free_energy=-46.350555419921875 stress="5.323138248058967e-05 -2.468944444444787e-07 1.526669457518892e-08 -2.468944444444787e-07 5.306082312017679e-05 2.041116076156868e-08 1.526669457518892e-08 2.041116076156868e-08 5.329503255779855e-05" pbc="T T T"
Ga       1.37211364       0.97023185       2.37656848       0.00000100       0.00001197      -0.00001318
Ga       4.11633918       2.91069174       7.12970839      -0.00000558       0.00000593      -0.00000987
C        0.00000001       0.00000005      -0.00000030       0.00000105       0.00000203      -0.00000039
O        1.23357331       0.87226751       4.75314033       0.00106764       0.00075316       0.00000118
O        4.25488039       3.00865364       4.75313989      -0.00107193      -0.00076205       0.00000516
O        3.49955321       0.87226742       3.44487562      -0.00053549       0.00074941       0.00092942
O        1.98889993       3.00865397       6.06140382       0.00053430      -0.00074726      -0.00092256
O        1.98890012       3.00865385       3.44487536       0.00053704      -0.00076473       0.00093138
O        3.49955308       0.87226782       6.06140405      -0.00052947       0.00075108      -0.00092107
