9
Lattice="4.419419614598982 9.90827533574441e-09 2.551552978287004 1.4731399206772808 4.166668354831021 2.5515529093467877 8.787167846221412e-08 -2.229956870063446e-08 5.103105804375787" Properties=species:S:1:pos:R:3:forces:R:3 energy=-42.872806549072266 free_energy=-42.872806549072266 stress="0.0004523645620793104 -5.7753322124654005e-08 -4.974202738594613e-08 -5.7753322124654005e-08 0.00045247861999087036 7.303242455236614e-08 -4.974202738594613e-08 7.303242455236614e-08 0.0004523367388173938" pbc="T T T"
Ga       1.47313588       1.04167123       2.55155244      -0.00006677       0.00006930      -0.00000394
Ga       4.41941721       3.12500092       7.65465377      -0.00004145      -0.00000215      -0.00008695
Co       0.00000013      -0.00000006      -0.00000009      -0.00000248       0.00000126      -0.00000496
O        1.45041923       1.02559943       5.10310667      -0.00338012      -0.00240791       0.00000520
O        4.44214243       3.14106666       5.10310854       0.00341636       0.00236923       0.00004215
O        3.69421184       1.02560086       3.80765245       0.00171989      -0.00240391      -0.00292891
O        2.19835057       3.14106646       6.39856139      -0.00167340       0.00238204       0.00297034
O        2.19834863       3.14106675       3.80765210      -0.00170830       0.00238091      -0.00293648
O        3.69421294       1.02560089       6.39855917       0.00173551      -0.00238848       0.00294179
