9
Lattice="5.576025667269684 2.0636050826354636e-08 3.219320333735652 1.8586753072767626 5.257127177741472 3.219320220463598 1.370431044656127e-07 -4.1825279846216644e-08 6.438640430105754" Properties=species:S:1:pos:R:3:forces:R:3 energy=-29.438331604003906 free_energy=-29.438331604003906 stress="0.0002467247541062534 -1.02059347639738e-08 -3.483542698745623e-08 -1.02059347639738e-08 0.00024671878782100976 8.937235951300693e-10 -3.483542698745623e-08 8.937235951300693e-10 0.00024657577159814537" pbc="T T T"
Ga       1.85867489       1.31428209       3.21932043       0.00000025      -0.00000101       0.00000029
Ga       5.57602513       3.94284543       9.65796095      -0.00000094      -0.00000050       0.00000067
Cu      -0.00000002      -0.00000038      -0.00000017       0.00000028       0.00000052       0.00000008
Se       2.13050420       1.50649359       6.43863980      -0.00304417      -0.00215447      -0.00000140
Se       5.30419850       3.75063423       6.43864034       0.00304280       0.00215097      -0.00000070
Se       4.51077416       1.50649285       5.06438878       0.00152206      -0.00215003      -0.00263689
Se       2.92392746       3.75063367       7.81289128      -0.00151946       0.00215112       0.00263846
Se       2.92392604       3.75063428       5.06438960      -0.00152229       0.00215243      -0.00263822
Se       4.51077420       1.50649289       7.81289286       0.00152147      -0.00214906       0.00263776
