9
Lattice="4.285815636022945 -1.3793853941983678e-08 2.4744168502667274 1.4286051975651668 4.040705889308007 2.4744168527565646 -3.3816454444500015e-09 6.582282974070504e-10 4.948833706390656" Properties=species:S:1:pos:R:3:forces:R:3 energy=-46.4231071472168 free_energy=-46.4231071472168 stress="-0.0005090902559459209 -8.217415370381786e-08 1.6040869965650018e-08 -8.217415370381786e-08 -0.0005089540500193834 -1.7582651778980107e-08 1.6040869965650018e-08 -1.7582651778980107e-08 -0.0005089612095616758" pbc="T T T"
Ga       1.42860651       1.01017634       2.47441765       0.00000964      -0.00000275       0.00000421
Ga       4.28581625       3.03052974       7.42324928       0.00000731       0.00000409      -0.00000985
Co      -0.00000007      -0.00000002       0.00000029       0.00000385       0.00000032      -0.00001031
N        1.45109896       1.02608169       4.94883361      -0.00722902      -0.00511605      -0.00000926
N        4.26332154       3.01462449       4.94883469       0.00722271       0.00511483       0.00000893
N        3.56026601       1.02608178       3.73110531       0.00361013      -0.00510781      -0.00625876
N        2.15415441       3.01462352       6.16656165      -0.00362273       0.00511666       0.00626873
N        2.15415424       3.01462389       3.73110569      -0.00361743       0.00510744      -0.00626040
N        3.56026565       1.02608202       6.16656150       0.00361545      -0.00511672       0.00626750
