9
Lattice="4.979253504319345 -7.132633707192732e-07 2.8747729270089346 1.6597506811539553 4.694484878702557 2.8747726056812253 7.358034917488907e-07 1.2674718305327228e-07 5.749544579568849" Properties=species:S:1:pos:R:3:forces:R:3 energy=-32.490962982177734 free_energy=-32.490962982177734 stress="0.0004374751588329673 5.2516742954367146e-08 -2.1701227481685237e-08 5.2516742954367146e-08 0.000437657959992066 -7.629493126160014e-08 -2.1701227481685237e-08 -7.629493126160014e-08 0.00043740772525779903" pbc="T T T"
Ga       1.65975120       1.17362030       2.87477263       0.00002015      -0.00000941      -0.00002568
Ga       4.97925383       3.52086200       8.62431727       0.00001971      -0.00001268      -0.00002501
C        0.00003087      -0.00001642      -0.00004113       0.00029642      -0.00015103      -0.00038110
S        1.58945974       1.12391356       5.74953928      -0.00435132      -0.00311798      -0.00005393
S        5.04953160       3.57055514       5.74954017       0.00421065       0.00294158      -0.00005299
S        4.18450760       1.12393733       4.25131294       0.00199512      -0.00282395      -0.00345141
S        2.45447329       3.57058210       7.24782321      -0.00227612       0.00323445       0.00395960
S        2.45448795       3.57056298       4.25129360      -0.00209752       0.00300354      -0.00369442
S        4.18452359       1.12391983       7.24780226       0.00218320      -0.00306413       0.00372487
