9
Lattice="5.413581508218475 4.624826209412775e-09 3.125532750835301 1.8045272161450536 5.1039733449851425 3.125532677433522 3.981250908727388e-08 -6.174674939295991e-08 6.251065432713465" Properties=species:S:1:pos:R:3:forces:R:3 energy=-29.803627014160156 free_energy=-29.803627014160156 stress="8.575058018323034e-05 -9.290987534882333e-09 8.911326787597318e-09 -9.290987534882333e-09 8.574851381126791e-05 1.968507135075015e-08 8.911326787597318e-09 1.968507135075015e-08 8.573509694542736e-05" pbc="T T T"
Ga       1.80452684       1.27599305       3.12553397      -0.00000235      -0.00000040       0.00000530
Ga       5.41358187       3.82798077       9.37659787       0.00000122       0.00000349      -0.00000314
Cu      -0.00000010       0.00000011      -0.00000024       0.00000208      -0.00000220       0.00000581
S        1.85258090       1.30997196       6.25106536      -0.00097263      -0.00068730      -0.00000310
S        5.36552821       3.79400109       6.25106605       0.00097126       0.00068593       0.00000340
S        4.48729048       1.30997206       4.72991449       0.00048450      -0.00068992      -0.00084192
S        2.73081769       3.79400172       7.77221578      -0.00048447       0.00068837       0.00083995
S        2.73081751       3.79400072       4.72991445      -0.00048828       0.00068778      -0.00084323
S        4.48729176       1.30997157       7.77221574       0.00048858      -0.00068611       0.00083715
