9
Lattice="4.117665561210513 2.351228895887007e-07 2.3773349320200423 1.3725553869285392 3.88217226352535 2.3773349698092603 -2.3262783279338944e-08 2.983286493915779e-08 4.754669904332427" Properties=species:S:1:pos:R:3:forces:R:3 energy=-47.48442459106445 free_energy=-47.48442459106445 stress="-0.00018176868616137654 -1.3112173746776534e-07 2.54737013705153e-08 -1.3112173746776534e-07 -0.00018205822561867535 -1.1671279764868814e-07 2.54737013705153e-08 -1.1671279764868814e-07 -0.0001816063595470041" pbc="T T T"
Ga       1.37255513       0.97054354       2.37733515       0.00000051       0.00000084       0.00000093
Ga       4.11766618       2.91163001       7.13200430      -0.00000030       0.00000086       0.00000171
C       -0.00000010       0.00000024       0.00000040      -0.00000129       0.00000099       0.00000246
N        1.28636192       0.90959463       4.75467062       0.00254393       0.00179183       0.00000588
N        4.20385982       2.97257670       4.75467180      -0.00254166      -0.00180161       0.00000678
N        3.47448521       0.90959552       3.49135520      -0.00127077       0.00180483       0.00218952
N        2.01573627       2.97257716       6.01798204       0.00127155      -0.00179100      -0.00220776
N        2.01573495       2.97257750       3.49135644       0.00127137      -0.00179720       0.00219893
N        3.47448461       0.90959459       6.01798258      -0.00127238       0.00179088      -0.00220144
