9
Lattice="6.09305395893492 -7.241766201926702e-08 3.5178263747527665 2.031017937981688 5.744586293686607 3.517826340205128 1.4208308986173451e-08 -3.226520715029533e-08 7.035652724896019" Properties=species:S:1:pos:R:3:forces:R:3 energy=-27.902929306030273 free_energy=-27.902929306030273 stress="-0.0001724296889733523 3.1988323101472815e-09 1.1661809296015235e-08 3.1988323101472815e-09 -0.00017243617912754416 3.1665694510962794e-09 1.1661809296015235e-08 3.1665694510962794e-09 -0.00017241586465388536" pbc="T T T"
Ga       2.03101786       1.43614621       3.51782630      -0.00000068      -0.00000029       0.00000032
Ga       6.09305397       4.30843961      10.55347914       0.00000026       0.00000002       0.00000024
Cu       0.00000016       0.00000018       0.00000079      -0.00000061      -0.00000071      -0.00000391
Te       2.17878094       1.54063085       7.03565297       0.00539878       0.00381739       0.00000056
Te       5.94529057       4.20395540       7.03565281      -0.00539786      -0.00381682      -0.00000004
Te       5.00366356       1.54063083       5.40470608      -0.00269912       0.00381780       0.00467590
Te       3.12040868       4.20395547       8.66659860       0.00269847      -0.00381599      -0.00467462
Te       3.12040858       4.20395552       5.40470632       0.00269919      -0.00381713       0.00467600
Te       5.00366332       1.54063065       8.66659874      -0.00269850       0.00381576      -0.00467441
