9
Lattice="5.344226296988138 -6.653561740154843e-08 3.08549049672988 1.7814087449120897 5.0385850314145175 3.085490424018804 9.561237228690872e-08 -2.1444371924356973e-08 6.170980827854274" Properties=species:S:1:pos:R:3:forces:R:3 energy=-36.24341583251953 free_energy=-36.24341583251953 stress="0.00022693118080496788 1.0916878068201186e-08 -9.516671006792876e-09 1.0916878068201186e-08 0.00022693439677823335 2.689913891629203e-08 -9.516671006792876e-09 2.689913891629203e-08 0.00022697827080264688" pbc="T T T"
Ga       1.78140917       1.25964614       3.08549028       0.00000040       0.00000055      -0.00000041
Ga       5.34422620       3.77893935       9.25647155       0.00000007       0.00000082       0.00000127
Co       0.00000034      -0.00000012       0.00000021      -0.00000611      -0.00000139       0.00000053
S        1.75718941       1.24252038       6.17097980      -0.00578791      -0.00409332      -0.00000070
S        5.36844520       3.79606393       6.17097984       0.00579447       0.00409740      -0.00000108
S        4.46563165       1.24252072       4.60726152       0.00289753      -0.00409764      -0.00501719
S        2.66000380       3.79606408       7.73470129      -0.00289458       0.00409251       0.00501543
S        2.66000329       3.79606456       4.60726157      -0.00289738       0.00409591      -0.00501347
S        4.46563160       1.24252044       7.73470120       0.00289330      -0.00409491       0.00501576
