9
Lattice="4.3852791765447074 1.4312964813908978e-07 2.531842304996914 1.4617598757267485 4.134480557656251 2.5318422785521153 1.9514209445461543e-07 1.0559815213397503e-07 5.063684271997798" Properties=species:S:1:pos:R:3:forces:R:3 energy=-38.943199157714844 free_energy=-38.943199157714844 stress="-0.00021515172556973994 -2.2440283942160022e-07 -8.098348871499184e-07 -2.2440283942160022e-07 -0.00021473651577252895 -5.423441962193465e-07 -8.098348871499184e-07 -5.423441962193465e-07 -0.00021584630303550512" pbc="T T T"
Ga       1.46176081       1.03362110       2.53183050       0.00001034       0.00000693      -0.00022957
Ga       4.38529658       3.10087863       7.59555383       0.00031926       0.00033939       0.00051778
Cu      -0.00000013      -0.00000046      -0.00000007      -0.00000618       0.00000190      -0.00000895
O        1.49093061       1.05424497       5.06369199       0.00162035       0.00110373       0.00011835
O        4.35610899       3.08023229       5.06367166      -0.00161946      -0.00116137      -0.00023849
O        3.63981421       1.05424569       3.82302599      -0.00079745       0.00110188       0.00142023
O        2.20721482       3.08023180       6.30433809       0.00060397      -0.00118732      -0.00148767
O        2.20722385       3.08023641       3.82302795       0.00080287      -0.00109920       0.00143352
O        3.63980734       1.05423286       6.30433519      -0.00093365       0.00089398      -0.00152504
