9
Lattice="4.3423284277307 8.909032717672195e-09 2.507044406184207 1.447442716010363 4.093986820972764 2.5070445822172496 -2.2395586021552014e-07 5.7234849447610535e-08 5.014089200271384" Properties=species:S:1:pos:R:3:forces:R:3 energy=-48.23735809326172 free_energy=-48.23735809326172 stress="-0.00014639965957030654 6.896787141386085e-09 4.709912104772229e-08 6.896787141386085e-09 -0.00014625547919422388 1.2391350168172721e-08 4.709912104772229e-08 1.2391350168172721e-08 -0.00014609796926379204" pbc="T T T"
Ga       1.44744457       1.02349981       2.50704391       0.00001977       0.00003113      -0.00001074
Ga       4.34232835       3.07048973       7.52113530       0.00000440      -0.00000847       0.00001847
Fe       0.00000080       0.00000040      -0.00000018       0.00000673       0.00000527      -0.00000069
N        1.50112216       1.06145497       5.01408943      -0.00091535      -0.00063547       0.00000157
N        4.28864847       3.03253076       5.01408765       0.00091410       0.00062642      -0.00001420
N        3.59176600       1.06145438       3.80705449       0.00044474      -0.00063759      -0.00079578
N        2.19800347       3.03253062       6.22112342      -0.00046188       0.00062680       0.00079688
N        2.19800459       3.03253264       3.80705512      -0.00045125       0.00063702      -0.00078976
N        3.59176528       1.06145421       6.22112343       0.00043909      -0.00064519       0.00079420
