9
Lattice="5.727694688038308 -9.834963639416978e-08 3.306886084430385 1.909231621764921 5.400121708937859 3.3068858214870684 1.4074628288513251e-07 -2.2251587099836156e-07 6.613771925081086" Properties=species:S:1:pos:R:3:forces:R:3 energy=-31.536191940307617 free_energy=-31.536191940307617 stress="-2.5944864319171757e-05 7.264196799638967e-09 8.136158413662997e-09 7.264196799638967e-09 -2.5936215024557896e-05 -4.5616208033116834e-10 8.136158413662997e-09 -4.5616208033116834e-10 -2.5982906663557515e-05" pbc="T T T"
Ga       1.90923111       1.35003075       3.30688631      -0.00000325       0.00000186       0.00000065
Ga       5.72769458       4.05009024       9.92065742      -0.00000180      -0.00000286      -0.00000280
Ge      -0.00000024      -0.00000034       0.00000039       0.00000685       0.00000465      -0.00000507
S        1.90251152       1.34527841       6.61377180       0.00293458       0.00207502      -0.00000165
S        5.73441532       4.05484267       6.61377200      -0.00294036      -0.00208336       0.00000044
S        4.77643938       1.34527852       4.95450861      -0.00147003       0.00208133       0.00254834
S        2.86048774       4.05484366       8.27303548       0.00146961      -0.00207615      -0.00254446
S        2.86048729       4.05484321       4.95450858       0.00147149      -0.00207967       0.00254804
S        4.77643914       1.34527836       8.27303477      -0.00146666       0.00207961      -0.00254381
