9
Lattice="4.406739881189012 2.8685579955057717e-08 2.5442324425991982 1.4689133166200583 4.154714011772828 2.5442324497952487 -2.9027315775975234e-09 6.7607880245464204e-09 5.088464890226061" Properties=species:S:1:pos:R:3:forces:R:3 energy=-42.885746002197266 free_energy=-42.885746002197266 stress="0.00025349922361783683 -1.9614656565636324e-08 4.01470234834278e-09 -1.9614656565636324e-08 0.0002538645057938993 4.4417024724907606e-08 4.01470234834278e-09 4.4417024724907606e-08 0.00025341042783111334" pbc="T T T"
Ga       1.46891481       1.03867613       2.54423386       0.00002107      -0.00003710       0.00001944
Ga       4.40674109       3.11603957       7.63269644       0.00002072       0.00006104      -0.00001032
Ge       0.00000014       0.00000010       0.00000004       0.00000002       0.00000139       0.00000251
O        1.51981668       1.07467137       5.08846375       0.00074136       0.00050271      -0.00001466
O        4.35583643       3.08004243       5.08846585      -0.00074375      -0.00050640       0.00000763
O        3.64683050       1.07467099       3.86043209      -0.00038725       0.00049734       0.00064194
O        2.22882106       3.08004203       6.31649744       0.00036514      -0.00050783      -0.00064409
O        2.22882131       3.08004256       3.86043261       0.00036371      -0.00050831       0.00064456
O        3.64683089       1.07467098       6.31649715      -0.00038093       0.00049675      -0.00064647
