9
Lattice="6.307313827802171 -5.312222251727719e-08 3.6415292334442397 2.102437909193128 5.946592476364813 3.641529204559641 -3.2122166231852553e-10 -3.5603422745161804e-08 7.283058467444845" Properties=species:S:1:pos:R:3:forces:R:3 energy=-28.207210540771484 free_energy=-28.207210540771484 stress="7.616206130478531e-05 2.00016914142509e-09 -1.0136665951065993e-09 2.00016914142509e-09 7.615194044774398e-05 -1.317469688899564e-09 -1.0136665951065993e-09 -1.317469688899564e-09 7.616299990331754e-05" pbc="T T T"
Ga       2.10243792       1.48664802       3.64152927       0.00000014      -0.00000017       0.00000013
Ga       6.30731379       4.45994439      10.92458762       0.00000006       0.00000000      -0.00000035
Ge       0.00000014       0.00000001       0.00000020      -0.00000097       0.00000001      -0.00000045
Te       2.31587127       1.63756830       7.28305849      -0.00160255      -0.00113301      -0.00000046
Te       6.09388037       4.30902440       7.28305843       0.00160211       0.00113268      -0.00000016
Te       5.14937808       1.63756798       5.64713229       0.00080103      -0.00113225      -0.00138724
Te       3.26037359       4.30902420       8.91898418      -0.00080065       0.00113291       0.00138795
Te       3.26037358       4.30902430       5.64713267      -0.00080060       0.00113274      -0.00138728
Te       5.14937820       1.63756789       8.91898448       0.00080141      -0.00113294       0.00138786
