9
Lattice="4.442448997805166 1.2111405831950796e-06 2.564850030507037 1.4808174641311163 4.188382959643879 2.564850048425097 -1.858492842568631e-06 -1.2922077948618331e-06 5.129703280017785" Properties=species:S:1:pos:R:3:forces:R:3 energy=-44.77900314331055 free_energy=-44.77900314331055 stress="3.087721051997505e-05 -6.704272891511209e-06 6.122728336777072e-06 -6.704272891511209e-06 2.479508111719042e-05 4.2642600419640075e-06 6.122728336777072e-06 4.2642600419640075e-06 1.4415169061976485e-05" pbc="T T T"
Ga       1.48082252       1.04709522       2.56484521       0.00008809      -0.00000289      -0.00006454
Ga       4.44244355       3.14128541       7.69455200      -0.00009317      -0.00002416       0.00004885
Ge      -0.00000241      -0.00000246       0.00000378      -0.00002995      -0.00004457       0.00005208
N        1.78555851       1.26256596       5.12971811      -0.00384431      -0.00302162       0.00032598
N        4.13771851       2.92582654       5.12968140       0.00399058       0.00313151      -0.00037270
N        3.54966905       1.26258357       4.11117240       0.00190175      -0.00261457      -0.00376344
N        2.37360134       2.92578091       6.14823830      -0.00183701       0.00243237       0.00381258
N        2.37361101       2.92581209       4.11116836      -0.00155555       0.00287976      -0.00380670
N        3.54963642       1.26258435       6.14823401       0.00137954      -0.00273581       0.00376773
