9
Lattice="5.760870590965868 1.5035236566284227e-07 3.326039880483285 1.9202903873829882 5.431401150189653 3.326039796234924 -1.0290840789876743e-07 -1.7594996889743498e-07 6.652079939209187" Properties=species:S:1:pos:R:3:forces:R:3 energy=-30.670406341552734 free_energy=-30.670406341552734 stress="5.738019535783678e-05 3.7346219450284934e-09 1.8270020163413392e-08 3.7346219450284934e-09 5.73474244447425e-05 1.1486126716420131e-08 1.8270020163413392e-08 1.1486126716420131e-08 5.746071838075295e-05" pbc="T T T"
Ga       1.92029026       1.35784980       3.32604060      -0.00000047      -0.00000080      -0.00000054
Ga       5.76087094       4.07355160       9.97812103       0.00000053       0.00000092       0.00000105
Ge      -0.00000026       0.00000006      -0.00000083       0.00000134      -0.00000011       0.00000190
Se       2.26771294       1.60351502       6.65208206       0.00204986       0.00144845       0.00000246
Se       5.41344750       3.82788605       6.65207973      -0.00205013      -0.00144781      -0.00000050
Se       4.62701399       1.60351575       5.28993800      -0.00102326       0.00144821       0.00177434
Se       3.05414695       3.82788604       8.01422035       0.00102222      -0.00144605      -0.00177673
Se       3.05414765       3.82788580       5.28993683       0.00102538      -0.00144865       0.00177431
Se       4.62701376       1.60351443       8.01422051      -0.00102539       0.00144579      -0.00177619
