9
Lattice="4.333898966277103 -9.723775102493312e-09 2.5021777585311193 1.4446329932006163 4.086039137319741 2.502177734959231 1.7314309448028883e-09 -2.7645239963413167e-08 5.004355514063306" Properties=species:S:1:pos:R:3:forces:R:3 energy=-54.075897216796875 free_energy=-54.075897216796875 stress="0.0004668143519666046 4.9662929768601316e-08 1.5239561435009819e-07 4.9662929768601316e-08 0.0004665461019612849 7.377663990837391e-08 1.5239561435009819e-07 7.377663990837391e-08 0.0004665596061386168" pbc="T T T"
Ga       1.44463309       1.02150961       2.50217761      -0.00000008      -0.00000193      -0.00000094
Ga       4.33389905       3.06452935       7.50653303      -0.00000015       0.00000179       0.00000147
Hf       0.00000012       0.00000014       0.00000012      -0.00000591       0.00000010      -0.00000205
N        1.71408433       1.21204024       5.00435539      -0.00333214      -0.00236633       0.00000301
N        4.06444792       2.87399874       5.00435515       0.00333631       0.00236264      -0.00000833
N        3.47685711       1.21204050       3.98661830       0.00167415      -0.00236055      -0.00288928
N        2.30167517       2.87399876       6.02209305      -0.00166485       0.00236252       0.00288743
N        2.30167480       2.87399876       3.98661837      -0.00166655       0.00236627      -0.00288421
N        3.47685630       1.21204030       6.02209300       0.00165927      -0.00236386       0.00289279
