9
Lattice="4.027825154947821 -2.0563607976721416e-05 2.3254350381659297 1.3425874945966378 3.7974239838052215 2.3254376410810402 1.556168435362136e-05 1.4191624358317727e-05 4.650843122754911" Properties=species:S:1:pos:R:3:forces:R:3 energy=-52.84952163696289 free_energy=-52.84952163696289 stress="0.0004929160932078958 -1.5626621461706236e-05 7.035946055111708e-06 -1.5626621461706236e-05 0.00047566459397785366 8.21719913801644e-06 7.035946055111708e-06 8.21719913801644e-06 0.00045798131031915545" pbc="T T T"
Ga       1.34276916       0.94948405       2.32530633      -0.00079949      -0.00030497       0.00051503
Ga       4.02782158       2.84818204       6.97624416       0.00048758      -0.00023693      -0.00010232
Ir      -0.00005651      -0.00008520       0.00005343       0.00055159       0.00077964      -0.00039387
N        1.68853312       1.19397055       4.65084353      -0.00161099      -0.00155824       0.00040073
N        3.68174268       2.60333488       4.65087816       0.00350630       0.00243819       0.00010457
N        3.18352725       1.19400347       3.78780947       0.00087601      -0.00238556      -0.00230289
N        2.18690128       2.60343330       5.51392442      -0.00153929       0.00109774       0.00261641
N        2.18690854       2.60337361       3.78784875      -0.00177276       0.00192386      -0.00287986
N        3.18357116       1.19397036       5.51395786       0.00030077      -0.00175405       0.00204170
