9
Lattice="4.780212281787836 -3.6447681300880116e-08 2.7598570298253 1.593403988047801 4.506827485556362 2.7598571536984933 -2.5202930910355666e-07 -2.6498504311277787e-08 5.5197144961780555" Properties=species:S:1:pos:R:3:forces:R:3 energy=-47.01477813720703 free_energy=-47.01477813720703 stress="0.0001394780701957643 7.357958509146556e-08 4.480913418092314e-08 7.357958509146556e-08 0.000139111332828179 4.995657931772257e-08 4.480913418092314e-08 4.995657931772257e-08 0.00013952821609564126" pbc="T T T"
Ga       1.59340331       1.12671058       2.75985631      -0.00000413       0.00003269      -0.00001179
Ga       4.78021560       3.38013225       8.27957541       0.00003540       0.00011684       0.00004109
Ir      -0.00000006      -0.00000036      -0.00000013      -0.00000640       0.00001502       0.00001081
O        1.52695238       1.07971494       5.51971203      -0.00236562      -0.00170611      -0.00000369
O        4.84666557       3.42710764       5.51971073       0.00237986       0.00165795      -0.00001647
O        4.01673706       1.07971342       4.08223880       0.00118814      -0.00172062      -0.00204448
O        2.35687794       3.42710811       6.95719289      -0.00119935       0.00165252       0.00204238
O        2.35687902       3.42710965       4.08223658      -0.00119241       0.00166725      -0.00205356
O        4.01673316       1.07971336       6.95719188       0.00116463      -0.00171575       0.00203560
