9
Lattice="5.763174860316864 6.820366704610237e-08 3.3273705513593645 1.9210583479410448 5.4335733853211865 3.327370556788079 3.004675161280269e-09 8.773440045695242e-09 6.654741097514462" Properties=species:S:1:pos:R:3:forces:R:3 energy=-35.52426528930664 free_energy=-35.52426528930664 stress="1.1326902495056856e-05 2.607980853497338e-08 -3.952450366995208e-09 2.607980853497338e-08 1.1324927072564606e-05 2.5706252682056174e-09 -3.952450366995208e-09 2.5706252682056174e-09 1.1298468052700628e-05" pbc="T T T"
Ga       1.92105833       1.35839335       3.32737051      -0.00000027      -0.00000035      -0.00000002
Ga       5.76317494       4.07518043       9.98211140       0.00000019       0.00000057      -0.00000091
Ir      -0.00000018      -0.00000001      -0.00000017       0.00000162       0.00000035      -0.00000042
Se       2.00556586       1.41814925       6.65474109       0.00031500       0.00022256       0.00000008
Se       5.67866757       4.01542418       6.65474126      -0.00031689      -0.00022410       0.00000059
Se       4.76039209       1.41814894       5.06424144      -0.00015872       0.00022447       0.00027603
Se       2.92384111       4.01542431       8.24524091       0.00015924      -0.00022423      -0.00027479
Se       2.92384110       4.01542436       5.06424135       0.00015855      -0.00022447       0.00027516
Se       4.76039205       1.41814904       8.24524103      -0.00015855       0.00022523      -0.00027582
