9
Lattice="6.384658006577161 7.199817142203053e-08 3.686183992318035 2.128219433270392 6.019513093433819 3.6861839405918726 6.419419359430993e-08 -1.7959232208265894e-08 7.372367873448423" Properties=species:S:1:pos:R:3:forces:R:3 energy=-25.859378814697266 free_energy=-25.859378814697266 stress="0.00011772626749007031 1.2712546570980976e-08 -7.844541904944435e-09 1.2712546570980976e-08 0.0001177410886157304 2.8681907959793307e-09 -7.844541904944435e-09 2.8681907959793307e-09 0.00011772266589105129" pbc="T T T"
Ga       2.12821917       1.50487827       3.68618394      -0.00000032       0.00000023      -0.00000003
Ga       6.38465829       4.51463486      11.05855199       0.00000043      -0.00000010      -0.00000015
Mg       0.00000003       0.00000007      -0.00000110       0.00000033      -0.00000034       0.00000504
Te       2.38114230       1.68372186       7.37236799       0.00512789       0.00362665      -0.00000005
Te       6.13173547       4.33579137       7.37236804      -0.00512858      -0.00362622      -0.00000012
Te       5.19408711       1.68372177       5.74831373      -0.00256337       0.00362566       0.00444071
Te       3.31879019       4.33579160       8.99642254       0.00256491      -0.00362775      -0.00444288
Te       3.31879024       4.33579132       5.74831359       0.00256346      -0.00362581       0.00444029
Te       5.19408727       1.68372142       8.99642251      -0.00256474       0.00362770      -0.00444281
