9
Lattice="5.623529125909939 2.79962593168006e-08 3.2467459869173445 1.8745097425986785 5.301914099405911 3.2467459738110898 1.2770827218569068e-08 -7.021453539108536e-09 6.493491951714956" Properties=species:S:1:pos:R:3:forces:R:3 energy=-41.431514739990234 free_energy=-41.431514739990234 stress="0.0003284708654973656 2.083239358796618e-08 2.8162670417941627e-08 2.083239358796618e-08 0.00032847648253664374 -2.8339284696698996e-08 2.8162670417941627e-08 -2.8339284696698996e-08 0.0003284392296336591" pbc="T T T"
Ga       1.87450939       1.32547843       3.24674607       0.00000004      -0.00000019       0.00000029
Ga       5.62352932       3.97643555       9.74023791      -0.00000042       0.00000020       0.00000028
Mo       0.00000008      -0.00000040       0.00000029      -0.00000173       0.00000465       0.00000022
S        1.87686033       1.32714060       6.49349172      -0.00510336      -0.00360705      -0.00000095
S        5.62117877       3.97477324       6.49349184       0.00510122       0.00360782      -0.00000056
S        4.68509886       1.32714065       4.87215470       0.00255062      -0.00360736      -0.00441872
S        2.81293975       3.97477380       8.11482958      -0.00254868       0.00360422       0.00441322
S        2.81294011       3.97477367       4.87215426      -0.00255023       0.00360684      -0.00441557
S        4.68509885       1.32714087       8.11482919       0.00255249      -0.00360945       0.00442176
