9
Lattice="5.753510668953576 -1.8077973340857777e-08 3.321790904842911 1.9178368589373747 5.424461914028055 3.321790928519607 -4.719847009888664e-08 -4.376456086110622e-09 6.643581891435967" Properties=species:S:1:pos:R:3:forces:R:3 energy=-27.449926376342773 free_energy=-27.449926376342773 stress="0.0003596493334043771 4.586905966164068e-09 1.903335267172679e-09 4.586905966164068e-09 0.00035965780261904 -1.0799549698958799e-08 1.903335267172679e-09 -1.0799549698958799e-08 0.0003596445603761822" pbc="T T T"
Ga       1.91783678       1.35611543       3.32179094      -0.00000022       0.00000024       0.00000004
Ga       5.75351060       4.06834630       9.96537272       0.00000016      -0.00000016       0.00000045
Mg       0.00000011      -0.00000009      -0.00000006       0.00000049       0.00000074      -0.00000040
Se       2.24876935       1.59012025       6.64358172       0.00126436       0.00089568      -0.00000002
Se       5.42257807       3.83434168       6.64358173      -0.00126462      -0.00089533      -0.00000019
Se       4.62912595       1.59012023       5.26928249      -0.00063298       0.00089452       0.00109532
Se       3.04222161       3.83434166       8.01788136       0.00063231      -0.00089519      -0.00109496
Se       3.04222152       3.83434177       5.26928257       0.00063257      -0.00089497       0.00109540
Se       4.62912593       1.59012038       8.01788137      -0.00063209       0.00089447      -0.00109560
