9
Lattice="5.719888034530276 -1.6331851018709775e-07 3.302378208812608 1.906629257206695 5.392760769793996 3.3023780939059697 -1.379018812250485e-07 -2.3824268208696787e-07 6.604756656478195" Properties=species:S:1:pos:R:3:forces:R:3 energy=-27.484521865844727 free_energy=-27.484521865844727 stress="-6.71331727062352e-05 -1.844586883237298e-08 3.974934159600707e-08 -1.844586883237298e-08 -6.720413512084633e-05 8.497446635225003e-10 3.974934159600707e-08 8.497446635225003e-10 -6.718295480823144e-05" pbc="T T T"
Ga       1.90662946       1.34818883       3.30237798       0.00000541      -0.00000569      -0.00000111
Ga       5.71988817       4.04457240       9.90713638      -0.00000252       0.00000898       0.00000183
Mg      -0.00000046       0.00000137       0.00000112       0.00000360      -0.00000734      -0.00001024
S        2.07452579       1.46690654       6.60475748      -0.00039291      -0.00029199       0.00000288
S        5.55199232       3.92585149       6.60475682       0.00039793       0.00028652      -0.00000063
S        4.68262519       1.46690885       5.09896655       0.00019465      -0.00027778      -0.00034570
S        2.94389332       3.92585117       8.11054288      -0.00019970       0.00029274       0.00034851
S        2.94389117       3.92585153       5.09896863      -0.00020015       0.00028417      -0.00034297
S        4.68262347       1.46690927       8.11054395       0.00019370      -0.00028965       0.00034742
