9
Lattice="5.904120785206365 -5.974655284243988e-09 3.408745697947447 1.9680402455255355 5.566458471025946 3.4087457162672803 -2.2236824924594175e-08 6.713295495968193e-09 6.817491434410202" Properties=species:S:1:pos:R:3:forces:R:3 energy=-38.383968353271484 free_energy=-38.383968353271484 stress="0.00027537133428268135 -4.5767382772510246e-08 -6.048644696221572e-09 -4.5767382772510246e-08 0.0002754045999608934 1.6138981706603772e-08 -6.048644696221572e-09 1.6138981706603772e-08 0.0002754399611148983" pbc="T T T"
Ga       1.96804031       1.39161485       3.40874561       0.00000004       0.00000042      -0.00000032
Ga       5.90412080       4.17484388      10.22623719       0.00000065      -0.00000028       0.00000039
Mo       0.00000004      -0.00000032       0.00000058       0.00000135       0.00000446      -0.00001261
Se       1.97669572       1.39773504       6.81749164       0.00144544       0.00102147      -0.00000051
Se       5.89546515       4.16872345       6.81749145      -0.00144875      -0.00102402      -0.00000027
Se       4.91577292       1.39773502       5.12061444      -0.00072351       0.00102161       0.00125152
Se       2.95638823       4.16872311       8.51436807       0.00071983      -0.00101697      -0.00124587
Se       2.95638809       4.16872350       5.12061430       0.00072417      -0.00102378       0.00125372
Se       4.91577280       1.39773534       8.51436812      -0.00071917       0.00101705      -0.00124593
