9
Lattice="4.4315377606097455 1.8605637985312308e-08 2.5585494864823044 1.4771792407318216 4.178094103303114 2.5585495390436908 -1.320442037166521e-07 -2.8995074963628743e-08 5.117099201671927" Properties=species:S:1:pos:R:3:forces:R:3 energy=-37.69842529296875 free_energy=-37.69842529296875 stress="0.00023981713457033038 -5.562315408269569e-08 2.7420327342042583e-07 -5.562315408269569e-08 0.00023948936723172665 9.110106446996724e-08 2.7420327342042583e-07 9.110106446996724e-08 0.0002398915821686387" pbc="T T T"
Ga       1.47718110       1.04452561       2.55855116       0.00003269       0.00003763       0.00003190
Ga       4.43153836       3.13356928       7.67564552       0.00001409      -0.00002820      -0.00006097
Mg       0.00000012      -0.00000002      -0.00000012      -0.00000019       0.00000393       0.00000193
O        1.58273855       1.11916583       5.11709878      -0.00145510      -0.00101183      -0.00001355
O        4.32597758       3.05892921       5.11710173       0.00144765       0.00102584       0.00004165
O        3.64016694       1.11916629       3.92924034       0.00070196      -0.00102209      -0.00127459
O        2.26854867       3.05892745       6.30495772      -0.00071982       0.00100625       0.00126952
O        2.26854682       3.05892697       3.92924147      -0.00075716       0.00099719      -0.00125644
O        3.64016928       1.11916575       6.30495623       0.00073566      -0.00100891       0.00126094
