9
Lattice="3.834828257011411 0.018113062718610726 2.1562820639913394 1.2700883780195553 3.598528593903478 2.1898286499438853 0.0586804653555584 -0.0003180504265916707 4.406506844727632" Properties=species:S:1:pos:R:3:forces:R:3 energy=-111.72271728515625 free_energy=-111.72271728515625 stress="0.6098948121070862 0.010008466430008411 0.0009183827787637711 0.010008466430008411 0.6004691123962402 -0.0015098759904503822 0.0009183827787637711 -0.0015098759904503822 0.6374290585517883" pbc="T T T"
Ga       1.48091015       0.74262248       2.19279808      -3.33396864       1.88919950      -0.15142074
Ga       3.96195524       2.47570724       6.56214652      -0.67365551       3.99016333       0.06720167
Mo      -0.03905480       0.05550241      -0.00039240       1.26642466      -1.76354194      -0.04020893
N        1.55791507       1.15572080       4.38710941       7.84561825       4.02833843       0.00236046
N        3.53105280       2.56716603       4.36465700      -6.33023071      -5.93219566       0.04406822
N        3.03395766       1.16257641       3.51242477      -2.97832918       4.22554684       6.86283636
N        2.04726643       2.57025688       5.25018101       3.66109681      -5.26815224      -6.18665600
N        2.02674930       2.57119476       3.51335466       3.85657763      -5.37360954       6.28980637
N        3.05464498       1.16258667       5.22799174      -3.31353807       4.20425272      -6.88800097
