9
Lattice="4.332905417417532 6.570558078284323e-08 2.5016040534100954 1.444301839455262 4.085102461066325 2.5016041024243107 -2.1948618168045664e-09 5.847796800687909e-08 5.003208110621803" Properties=species:S:1:pos:R:3:forces:R:3 energy=-50.39257049560547 free_energy=-50.39257049560547 stress="-0.00016832120309118181 2.0354134377953415e-08 2.498837403663856e-08 2.0354134377953415e-08 -0.0001682167057879269 -8.338070678348686e-09 2.498837403663856e-08 -8.338070678348686e-09 -0.0001680710120126605" pbc="T T T"
Ga       1.44430168       1.02127616       2.50160394      -0.00000186       0.00000396      -0.00000209
Ga       4.33290573       3.06382716       7.50481105       0.00000414       0.00000278      -0.00000837
Mn       0.00000007       0.00000002      -0.00000002       0.00000084       0.00000134      -0.00000107
N        1.47501665       1.04299398       5.00320816      -0.00268087      -0.00189660       0.00000063
N        4.30219073       3.04210832       5.00320829       0.00267987       0.00189371       0.00000031
N        3.59539729       1.04299380       3.77900626       0.00133891      -0.00189583      -0.00231820
N        2.18181010       3.04210808       6.22741061      -0.00133969       0.00189233       0.00232081
N        2.18180950       3.04210840       3.77900623      -0.00134431       0.00189310      -0.00231749
N        3.59539725       1.04299449       6.22741047       0.00134294      -0.00189497       0.00232466
