9
Lattice="5.414480409217296 1.774765541229399e-08 3.126051654112929 1.8048268305326614 5.104820989530107 3.126051635532238 3.3297840897351085e-08 7.884570831370896e-10 6.252103250552298" Properties=species:S:1:pos:R:3:forces:R:3 energy=-34.109798431396484 free_energy=-34.109798431396484 stress="9.71560730249621e-05 5.492138654972223e-08 2.3831974615973195e-08 5.492138654972223e-08 9.713372128317133e-05 -4.178124868303712e-08 2.3831974615973195e-08 -4.178124868303712e-08 9.709767618915066e-05" pbc="T T T"
Ga       1.80482664       1.27620529       3.12605173      -0.00000075       0.00000011       0.00000027
Ga       5.41448042       3.82861575       9.37815433      -0.00000032      -0.00000055      -0.00000138
Ni       0.00000027      -0.00000017       0.00000031      -0.00001424       0.00000245      -0.00001356
S        1.76173679       1.24573632       6.25210319      -0.00074664      -0.00052661      -0.00000074
S        5.45757010       3.85908421       6.25210408       0.00075808       0.00053582       0.00000105
S        4.53361212       1.24573593       4.65176054       0.00037126      -0.00052708      -0.00064528
S        2.68569564       3.85908543       7.85244588      -0.00037502       0.00052896       0.00064704
S        2.68569541       3.85908532       4.65176064      -0.00037099       0.00052327      -0.00064224
S        4.53361183       1.24573631       7.85244541       0.00037847      -0.00053656       0.00065482
