9
Lattice="4.390774940145905 1.07630475034512e-08 2.535015280283384 1.463591663722618 4.139662429767557 2.535015268401839 2.4645193884636115e-10 -1.4377622194769142e-08 5.070030560139922" Properties=species:S:1:pos:R:3:forces:R:3 energy=-38.96182632446289 free_energy=-38.96182632446289 stress="4.308806455810554e-05 -1.317242048770595e-08 -1.2880774136192485e-07 -1.317242048770595e-08 4.288589843781665e-05 -1.311776998136338e-07 -1.2880774136192485e-07 -1.311776998136338e-07 4.281474684830755e-05" pbc="T T T"
Ga       1.46360158       1.03491602       2.53501391       0.00016658       0.00000274      -0.00002606
Ga       4.39077534       3.10474494       7.60503228       0.00000690      -0.00002943      -0.00022903
Ni      -0.00000046       0.00000007       0.00000080      -0.00000374       0.00000003       0.00000408
O        1.46471308       1.03571005       5.07003061      -0.00052936      -0.00035535       0.00000485
O        4.38965073       3.10395490       5.07003668       0.00048909       0.00039466       0.00010478
O        3.65841509       1.03570722       3.80349568       0.00019883      -0.00039174      -0.00043829
O        2.19594951       3.10395264       6.33656837      -0.00023904       0.00035101       0.00049117
O        2.19594674       3.10395231       3.80349558      -0.00029668       0.00034823      -0.00043161
O        3.65841478       1.03571161       6.33657056       0.00020736      -0.00031962       0.00051987
