9
Lattice="4.195936003622389 1.856297113540765e-07 2.4225249674601668 1.398645337619325 3.9559673442213628 2.4225252652600324 -2.4926840732019375e-07 1.8846951393175061e-07 4.845050366665886" Properties=species:S:1:pos:R:3:forces:R:3 energy=-39.746864318847656 free_energy=-39.746864318847656 stress="-0.0005682006594724953 1.0064974276247085e-07 -1.2509705982211017e-07 1.0064974276247085e-07 -0.000567940529435873 -6.915111327998602e-08 -1.2509705982211017e-07 -6.915111327998602e-08 -0.0005678897723555565" pbc="T T T"
Ga       1.39864555       0.98898920       2.42253289       0.00000974      -0.00003462       0.00018329
Ga       4.19593578       2.96697400       7.26758466       0.00001118      -0.00002533       0.00019340
N        0.00000797       0.00000184       0.00005390       0.00024409       0.00005147       0.00160388
O        1.31980059       0.93324069       4.84504573      -0.00084871      -0.00059676      -0.00011201
O        4.27477429       3.02272449       4.84504587       0.00067574       0.00051153      -0.00012471
O        3.53604067       0.93323570       3.56549371       0.00055084      -0.00077558      -0.00108379
O        2.05855230       3.02271822       6.12457664      -0.00023171       0.00030363       0.00024414
O        2.05853992       3.02273424       3.56549286      -0.00058505       0.00082874      -0.00112128
O        3.53602746       0.93325266       6.12457583       0.00017253      -0.00026280       0.00021523
