9
Lattice="5.650224697119038 -4.8480503920192804e-08 3.2621587276875794 1.8834081922674544 5.327083051679421 3.2621587179840312 -4.589008274699716e-08 -4.4333523067633604e-08 6.524317534859097" Properties=species:S:1:pos:R:3:forces:R:3 energy=-31.975515365600586 free_energy=-31.975515365600586 stress="9.569232497597113e-05 -3.820319616210099e-09 4.311751844454648e-09 -3.820319616210099e-09 9.568618406774476e-05 1.1834875301985903e-09 4.311751844454648e-09 1.1834875301985903e-09 9.569171379553154e-05" pbc="T T T"
Ga       1.88340822       1.33177075       3.26215876       0.00000021       0.00000053       0.00000001
Ga       5.65022444       3.99531221       9.78647635      -0.00000053      -0.00000010      -0.00000017
Ni      -0.00000001       0.00000019      -0.00000043       0.00000067      -0.00000300       0.00000698
Se       1.88955279       1.33611533       6.52431751      -0.00237513      -0.00167915      -0.00000016
Se       5.64408021       3.99096766       6.52431738       0.00237501       0.00167891       0.00000048
Se       4.70544825       1.33611544       4.89855922       0.00118831      -0.00167981      -0.00205782
Se       2.82818436       3.99096767       8.15007594      -0.00118594       0.00167844       0.00205567
Se       2.82818479       3.99096727       4.89855932      -0.00118892       0.00168100      -0.00205964
Se       4.70544834       1.33611530       8.15007583       0.00118637      -0.00167680       0.00205445
