9
Lattice="4.060207687207501 9.123642199055791e-07 2.344160150427729 1.3534034272906872 3.8280003885542944 2.3441601422821616 -2.5292992590714086e-07 -1.8882473475127914e-07 4.688320738942714" Properties=species:S:1:pos:R:3:forces:R:3 energy=-69.1002197265625 free_energy=-69.1002197265625 stress="0.00011003403051290661 -2.5150164219667204e-05 -4.045823970955098e-06 -2.5150164219667204e-05 0.00012844828597735614 -3.841092620859854e-06 -4.045823970955098e-06 -3.841092620859854e-06 0.00014752583228982985" pbc="T T T"
Ga       1.35341304       0.95700991       2.34416271       0.00028491       0.00024873       0.00008239
Ga       4.06020215       2.87099351       7.03247856      -0.00010128      -0.00012899       0.00002498
Nb      -0.00000032       0.00000465       0.00002008      -0.00101083      -0.00241641      -0.00786927
N        1.60953620       1.13811027       4.68830580      -0.00246716      -0.00068665       0.00380154
N        3.80408856       2.68989382       4.68830355      -0.00021505       0.00066257       0.00438237
N        3.25544040       1.13810591       3.73803917       0.00446808      -0.00474942      -0.00367725
N        2.15813990       2.68992090       5.63861421       0.00212330      -0.00095379       0.00190222
N        2.15816301       2.68989156       3.73803210      -0.00307983       0.00569737      -0.00214732
N        3.25546082       1.13807386       5.63860811      -0.00000739       0.00233459       0.00350082
