9
Lattice="4.434812047915996 9.955825331182101e-08 2.560439917980444 1.4782707646891382 4.181181023966995 2.5604399384427845 -6.437685759029374e-09 2.0509034531099173e-08 5.120879847111254" Properties=species:S:1:pos:R:3:forces:R:3 energy=-43.08774948120117 free_energy=-43.08774948120117 stress="0.00032434979220852256 -1.0246266057833964e-08 2.9317936522943455e-08 -1.0246266057833964e-08 0.0003241566300857812 1.0123543781048738e-08 2.9317936522943455e-08 1.0123543781048738e-08 0.0003243829996790737" pbc="T T T"
Ga       1.47826730       1.04529596       2.56043933      -0.00004304       0.00001048      -0.00000603
Ga       4.43481261       3.13588481       7.68131658       0.00000720      -0.00001329      -0.00003966
Ni       0.00000004       0.00000014       0.00000017       0.00000061       0.00000019       0.00000096
N        1.50298983       1.06277437       5.12087902      -0.00211444      -0.00148706      -0.00000767
N        4.41009359       3.11840618       5.12088301       0.00211854       0.00148062       0.00003399
N        3.68331926       1.06277478       3.86206759       0.00107593      -0.00148696      -0.00181536
N        2.22976474       3.11840604       6.37969325      -0.00105985       0.00148353       0.00182740
N        2.22976482       3.11840772       3.86206758      -0.00106397       0.00149435      -0.00181398
N        3.68331910       1.06277475       6.37969219       0.00107926      -0.00148162       0.00182028
