9
Lattice="4.483613117267261 1.8010545879460714e-07 2.588615086338541 1.4945378514196956 4.227191007905861 2.588615128152171 -2.923745689323447e-10 5.100429022944399e-08 5.177230173183521" Properties=species:S:1:pos:R:3:forces:R:3 energy=-52.45652770996094 free_energy=-52.45652770996094 stress="2.290258271386847e-05 -1.0480241030563775e-07 -3.3611711192094162e-09 -1.0480241030563775e-07 2.293787110829726e-05 -6.824003406791235e-08 -3.3611711192094162e-09 -6.824003406791235e-08 2.280634544149507e-05" pbc="T T T"
Ga       1.49453601       1.05679585       2.58861565      -0.00002286      -0.00002105       0.00000577
Ga       4.48361396       3.17039368       7.76584613       0.00001204       0.00000478       0.00000914
Os       0.00000021      -0.00000008      -0.00000012       0.00000013      -0.00000080       0.00000423
N        1.56312725       1.10529869       5.17723062       0.00040722       0.00029278       0.00000375
N        4.41502362       3.12189271       5.17723020      -0.00040615      -0.00029331      -0.00000167
N        3.70204938       1.10529795       3.94232317      -0.00020200       0.00028455       0.00035799
N        2.27610142       3.12189467       6.41213575       0.00020063      -0.00027269      -0.00036907
N        2.27610195       3.12189406       3.94232393       0.00020599      -0.00027382       0.00035882
N        3.70205029       1.10529760       6.41213604      -0.00019550       0.00027782      -0.00036812
