9
Lattice="5.634559652579805 -9.554743477155743e-08 3.2531145888159325 1.878186473239649 5.312313843887086 3.2531145672298085 4.056016826419508e-08 2.242971569409188e-09 6.506229107379538" Properties=species:S:1:pos:R:3:forces:R:3 energy=-31.918928146362305 free_energy=-31.918928146362305 stress="0.00018249271670356393 -6.577825217846112e-08 7.642829302767495e-08 -6.577825217846112e-08 0.00018251792062073946 -1.1832703705749736e-07 7.642829302767495e-08 -1.1832703705749736e-07 0.0001825942163122818" pbc="T T T"
Ga       1.87818657       1.32807847       3.25311471       0.00000014      -0.00000058       0.00000018
Ga       5.63455973       3.98423525       9.75934360      -0.00000042       0.00000055      -0.00000108
P       -0.00000004      -0.00000006      -0.00000010      -0.00000227       0.00000748      -0.00000253
Se       1.86145790       1.31624967       6.50622899      -0.00271377      -0.00191846      -0.00000037
Se       5.65128839       3.99606423       6.50622903       0.00271153       0.00191715      -0.00000082
Se       4.70383051       1.31624959       4.86518480       0.00135683      -0.00191855      -0.00234953
Se       2.80891572       3.99606388       8.14727361      -0.00135493       0.00191677       0.00234887
Se       2.80891559       3.99606392       4.86518496      -0.00135930       0.00192210      -0.00235432
Se       4.70383025       1.31625004       8.14727336       0.00136207      -0.00192642       0.00235945
