9
Lattice="4.24869750697385 2.078049906535944e-07 2.4529869350740285 1.4162326417226452 4.00571028782566 2.4529870329736645 4.7313956896141917e-07 4.544622690413486e-07 4.905973050646264" Properties=species:S:1:pos:R:3:forces:R:3 energy=-45.299503326416016 free_energy=-45.299503326416016 stress="0.00012411270290613174 -2.354762074219252e-07 -3.539756107784342e-06 -2.354762074219252e-07 0.00012495421105995774 -2.9677523798454786e-06 -3.539756107784342e-06 -2.9677523798454786e-06 0.00012404969311319292" pbc="T T T"
Ga       1.41623257       1.00142824       2.45298709       0.00000042       0.00000422       0.00000679
Ga       4.24869821       3.00428334       7.35895868       0.00000124       0.00000336      -0.00001533
Pd       0.00000017      -0.00000090       0.00000016       0.00000326      -0.00002273       0.00001234
N        1.66088611       1.17442678       4.90596828      -0.00284618      -0.00195999      -0.00016409
N        4.00403930       2.83128559       4.90598002       0.00276983       0.00198355       0.00018063
N        3.41825048       1.17442391       3.89135619       0.00130887      -0.00203271      -0.00246361
N        2.24668090       2.83128763       5.92058733      -0.00129843       0.00204661       0.00241220
N        2.24667562       2.83128102       3.89136029      -0.00147134       0.00188494      -0.00241965
N        3.41825908       1.17442815       5.92058998       0.00153241      -0.00190747       0.00245062
