9
Lattice="2.3705998193477256 0.2692485436110711 1.311325459234859 0.269363124996872 2.5359000739373188 0.9712388677954154 0.5811097345189635 0.0681848629260291 2.4151770978380895" Properties=species:S:1:pos:R:3:forces:R:3 energy=-1206212480.0 free_energy=-1206212480.0 stress="996787328.0 4980322.5 -72791848.0 4980322.5 924496384.0 66299756.0 -72791848.0 66299756.0 1297613056.0" pbc="T T T"
Ga       1.58238982      -0.19191130       1.78730498 1666934528.00000000 -2632198656.00000000 -2363627776.00000000
Ga       2.62136059       1.92249621       2.89349573 -2585404160.00000000 -2110545920.00000000 -270767936.00000000
Pt      -0.64917540      -0.44691882      -0.37117604 -727284096.00000000 -610076096.00000000 2227549440.00000000
N        0.87034473       0.39635993       1.13665824 -1140317696.00000000 101715776.00000000 -993427776.00000000
N        1.82652634       1.61081620       0.15310691 1399697664.00000000 3623550976.00000000 -257181632.00000000
N        3.09696748       0.19023642       1.72154683 480206976.00000000 100439680.00000000 81200352.00000000
N        1.49675342       1.03710353       2.70149671 -215804544.00000000 -13397632.00000000 1001478720.00000000
N        1.89299282       1.88257088       1.06772554 1342039680.00000000 1761817856.00000000 652560768.00000000
N        0.62282423       1.07050863       1.09960006 -220068672.00000000 -221304256.00000000 -77785608.00000000
