9
Lattice="4.2213712917474915 2.1860704504291032e-08 2.4372099197740247 1.4071237582976923 3.979947052042975 2.4372099652033294 -3.5825769526542926e-08 3.030665727722513e-08 4.874419901600109" Properties=species:S:1:pos:R:3:forces:R:3 energy=-48.01823425292969 free_energy=-48.01823425292969 stress="-0.0008592231897637248 -5.056236318523588e-09 -1.3354748773508618e-07 -5.056236318523588e-09 -0.000859262770973146 1.551226169738129e-08 -1.3354748773508618e-07 1.551226169738129e-08 -0.0008591881487518549" pbc="T T T"
Ga       1.40712374       0.99498671       2.43720999      -0.00000075       0.00000071       0.00000012
Ga       4.22137131       2.98496039       7.31163014      -0.00000014       0.00000033       0.00000267
P       -0.00000002      -0.00000002      -0.00000004      -0.00000141      -0.00000226       0.00000425
N        1.40894732       0.99627603       4.87442001      -0.00424683      -0.00300300       0.00000096
N        4.21954788       2.98367090       4.87442000       0.00424802       0.00300252      -0.00000101
N        3.51689746       0.99627636       3.65739400       0.00212508      -0.00300264      -0.00368071
N        2.11159727       2.98367095       6.09144558      -0.00212532       0.00300336       0.00367832
N        2.11159748       2.98367090       3.65739408      -0.00212193       0.00300288      -0.00367916
N        3.51689758       0.99627613       6.09144546       0.00212252      -0.00300145       0.00367367
