9
Lattice="5.638765310251074 -7.271692364476519e-08 3.2555428690027086 1.879588382274282 5.316279326467062 3.2555428446118566 1.1012100414548192e-07 4.799475873147895e-08 6.511085547270263" Properties=species:S:1:pos:R:3:forces:R:3 energy=-34.010406494140625 free_energy=-34.010406494140625 stress="3.0285042157629505e-05 4.397747943585273e-08 -4.716595469744789e-08 4.397747943585273e-08 3.0291597795439884e-05 2.2775992647439125e-08 -4.716595469744789e-08 2.2775992647439125e-08 3.026220110768918e-05" pbc="T T T"
Ga       1.87958767       1.32906889       3.25554264      -0.00000306      -0.00000205      -0.00000148
Ga       5.63876607       3.98720993       9.76662745       0.00000292       0.00000124      -0.00000401
P       -0.00000007       0.00000022       0.00000008       0.00000234       0.00000055       0.00000387
S        1.76376052       1.24716747       6.51108575      -0.00034857      -0.00024599      -0.00000051
S        5.75459319       4.06911192       6.51108589       0.00034702       0.00024581       0.00000082
S        4.75688522       1.24716651       4.78300475       0.00017238      -0.00024652      -0.00029993
S        2.76146877       4.06911238       8.23916698      -0.00017279       0.00024617       0.00029993
S        2.76146836       4.06911255       4.78300451      -0.00017190       0.00024265      -0.00029528
S        4.75688541       1.24716704       8.23916681       0.00017166      -0.00024223       0.00029624
