9
Lattice="5.432572553813481 2.5768739144199015e-08 3.1364973291735554 1.810857465352166 5.121878728590385 3.136497462334803 -1.4936465984343332e-07 5.747179375423458e-08 6.272994917054296" Properties=species:S:1:pos:R:3:forces:R:3 energy=-38.02900695800781 free_energy=-38.02900695800781 stress="0.00020280266471672803 -5.933790125922656e-10 1.923984882523655e-08 -5.933790125922656e-10 0.00020274976850487292 6.061799950884961e-09 1.923984882523655e-08 6.061799950884961e-09 0.00020270935783628374" pbc="T T T"
Ga       1.81085721       1.28046934       3.13649869      -0.00000005      -0.00000056       0.00000544
Ga       5.43257204       3.84140934       9.40949392      -0.00000158      -0.00000034       0.00000613
Ru      -0.00000022      -0.00000052       0.00000175      -0.00000350      -0.00000351       0.00001547
S        1.87223711       1.32387178       6.27299431      -0.00392669      -0.00277740      -0.00000386
S        5.37119317       3.79800741       6.27299443       0.00392753       0.00277758      -0.00000287
S        4.49645407       1.32387185       4.75790122       0.00196409      -0.00277621      -0.00340545
S        2.74697553       3.79800747       7.78808670      -0.00196123       0.00277585       0.00339592
S        2.74697626       3.79800726       4.75790107      -0.00196245       0.00277865      -0.00340617
S        4.49645410       1.32387134       7.78808679       0.00196353      -0.00277382       0.00339556
