9
Lattice="4.538400486426597 -2.144622341389033e-07 2.620246701934473 1.5128000405491653 4.278844535208579 2.6202465623244273 -2.717792909269231e-08 -1.902044108463001e-07 5.2404934509424805" Properties=species:S:1:pos:R:3:forces:R:3 energy=-55.28246307373047 free_energy=-55.28246307373047 stress="-5.844917905051261e-05 2.209871468039637e-07 -6.060029278387447e-08 2.209871468039637e-07 -5.845908526680432e-05 6.974911315182908e-08 -6.060029278387447e-08 6.974911315182908e-08 -5.8730627642944455e-05" pbc="T T T"
Ga       1.51280014       1.06971006       2.62024726       0.00000239      -0.00001301       0.00000512
Ga       4.53839985       3.20913385       7.86074054      -0.00000696       0.00001055       0.00000464
Re       0.00000001       0.00000006       0.00000008       0.00000067      -0.00000382       0.00000410
N        1.59600396       1.12854421       5.24049320      -0.00284028      -0.00201845      -0.00000190
N        4.45519678       3.15030014       5.24049356       0.00283992       0.00201738       0.00000058
N        3.74039832       1.12854441       4.00242551       0.00141555      -0.00200701      -0.00246143
N        2.31080144       3.15029977       6.47856058      -0.00141627       0.00201082       0.00245714
N        2.31080229       3.15030037       4.00242600      -0.00141364       0.00201309      -0.00245762
N        3.74039935       1.12854354       6.47856030       0.00141889      -0.00200903       0.00244975
