9
Lattice="5.737466788224751 9.360020041515201e-08 3.31252807059345 1.9124889963138607 5.409335638668131 3.3125281075581086 1.7992197827646232e-08 5.799470937903053e-08 6.625056110023528" Properties=species:S:1:pos:R:3:forces:R:3 energy=-36.150054931640625 free_energy=-36.150054931640625 stress="6.345655856421217e-05 -1.0536572503383468e-08 2.1135612371381285e-08 -1.0536572503383468e-08 6.346937152557075e-05 -1.1810882050156124e-08 2.1135612371381285e-08 -1.1810882050156124e-08 6.347538146656007e-05" pbc="T T T"
Ga       1.91248900       1.35233400       3.31252782       0.00000038       0.00000020      -0.00000040
Ga       5.73746690       4.05700178       9.93758412       0.00000009      -0.00000010      -0.00000061
Ru      -0.00000002       0.00000013      -0.00000039       0.00000034       0.00000014      -0.00000092
Se       1.99318619       1.40939527       6.62505620       0.00003178       0.00002275      -0.00000028
Se       5.65676970       3.99994032       6.62505626      -0.00003237      -0.00002339       0.00000070
Se       4.74087396       1.40939541       5.03867792      -0.00001611       0.00002323       0.00002746
Se       2.90908200       3.99994022       8.21143474       0.00001600      -0.00002262      -0.00002730
Se       2.90908195       3.99994049       5.03867798       0.00001548      -0.00002243       0.00002770
Se       4.74087349       1.40939558       8.21143451      -0.00001571       0.00002220      -0.00002657
