9
Lattice="4.376499421197492 -0.20811353572023766 2.9628344550508583 1.728594935453215 3.7131198362816358 2.3842595032766685 0.6053703599608323 -0.36704801775242646 4.8094572835501115" Properties=species:S:1:pos:R:3:forces:R:3 energy=-90.60212707519531 free_energy=-90.60212707519531 stress="-0.00011959049879806116 -2.7350599339115433e-05 -2.7978187063126825e-05 -2.7350599339115433e-05 -8.509063627570868e-05 -6.543441122630611e-05 -2.7978187063126825e-05 -6.543441122630611e-05 -0.0001438218168914318" pbc="T T T"
Ga       0.73805973       0.35642751       1.41638428      -0.00086784       0.00121403       0.00092316
Ga       5.61802382       2.39032575       8.64608561       0.00164604      -0.00105664       0.00189209
Rh      -0.00623273      -0.35305534       0.46507803      -0.00046158      -0.00244904       0.00038910
N        2.29981971       0.96338168       5.09112304      -0.00170588      -0.00041282      -0.00055146
N        4.12742337       2.44699996       5.25627950       0.00540352       0.00097656       0.00055861
N        3.83981090       0.93671646       4.13260863       0.00094604      -0.00020218      -0.00228119
N        2.98976247       1.80102460       5.79304575      -0.00316715       0.00034809       0.00273347
N        2.71172968       2.57633369       4.01481933      -0.00300407      -0.00124454      -0.00364876
N        4.52362686       1.43392505       5.81088341       0.00117874       0.00282288       0.00000632
