9
Lattice="4.406084165421713 7.163303038147222e-09 2.5438538881643877 1.4686947268227415 4.154096014005066 2.543853891174906 -9.300418171068963e-09 -2.8892769345735924e-09 5.087707792437575" Properties=species:S:1:pos:R:3:forces:R:3 energy=-49.06644058227539 free_energy=-49.06644058227539 stress="-0.0001855886512203142 -4.4388507092207874e-08 -6.372395233711359e-08 -4.4388507092207874e-08 -0.00018553003610577434 3.507524271029183e-09 -6.372395233711359e-08 3.507524271029183e-09 -0.00018557414296083152" pbc="T T T"
Ga       1.46869463       1.03852388       2.54385391       0.00000030      -0.00000051       0.00000055
Ga       4.40608415       3.11557216       7.63156157      -0.00000152       0.00000126      -0.00000036
Ru      -0.00000016      -0.00000003      -0.00000010      -0.00000001      -0.00000134      -0.00000245
N        1.55714093       1.10106474       5.08770780       0.00028902       0.00020158       0.00000085
N        4.31763801       3.05303124       5.08770795      -0.00028837      -0.00020188       0.00000200
N        3.62751368       1.10106488       3.89237754      -0.00014532       0.00020182       0.00024796
N        2.24726516       3.05303129       6.28303805       0.00014338      -0.00020081      -0.00024760
N        2.24726529       3.05303112       3.89237746       0.00014403      -0.00020254       0.00024736
N        3.62751383       1.10106479       6.28303808      -0.00014147       0.00020248      -0.00024843
