9
Lattice="5.738228859142099 2.1497163566214635e-08 3.312967957167065 1.9127429797226119 5.4100540174493945 3.31296794606889 -1.5211304635718106e-08 -2.4348437051882857e-08 6.625935940680904" Properties=species:S:1:pos:R:3:forces:R:3 energy=-34.32563781738281 free_energy=-34.32563781738281 stress="1.58633483806625e-05 5.225594534863376e-08 -9.875150475124883e-09 5.225594534863376e-08 1.584578239999246e-05 1.602368016051514e-08 -9.875150475124883e-09 1.602368016051514e-08 1.5798073945916258e-05" pbc="T T T"
Ga       1.91274274       1.35251345       3.31296764      -0.00000041       0.00000021      -0.00000046
Ga       5.73822885       4.05754052       9.93890392       0.00000009      -0.00000007       0.00000001
Rh      -0.00000020      -0.00000003      -0.00000054       0.00000047      -0.00000022       0.00000667
Se       1.99836727       1.41305884       6.62593594       0.00024696       0.00017463      -0.00000008
Se       5.65260480       3.99699496       6.62593595      -0.00024737      -0.00017466       0.00000038
Se       4.73904549       1.41305906       5.04360470      -0.00012332       0.00017610       0.00021566
Se       2.91192654       3.99699516       8.20826751       0.00012574      -0.00017779      -0.00021870
Se       2.91192656       3.99699527       5.04360456       0.00012457      -0.00017673       0.00021625
Se       4.73904526       1.41305881       8.20826765      -0.00012646       0.00017850      -0.00021943
