9
Lattice="4.798896227823722 -3.0283381109838984e-08 2.7706440896184956 1.5996321369115851 4.524442492995927 2.7706439345622704 1.8253704343712725e-07 -6.083114824188825e-08 5.541287863073522" Properties=species:S:1:pos:R:3:forces:R:3 energy=-48.15560531616211 free_energy=-48.15560531616211 stress="-3.402125912543852e-06 1.0782681414411854e-07 -2.6693513177633577e-07 1.0782681414411854e-07 -2.692773023227346e-06 -1.596422976035683e-07 -2.6693513177633577e-07 -1.596422976035683e-07 -3.4030840652121697e-06" pbc="T T T"
Ga       1.59962653       1.13112933       2.77065403      -0.00005093       0.00017484       0.00009397
Ga       4.79889855       3.39331400       8.31191032       0.00001871      -0.00016818      -0.00019726
Ru      -0.00000009      -0.00000022      -0.00000030      -0.00000315      -0.00000181       0.00000744
O        1.51354532       1.07024420       5.54128605      -0.00010708      -0.00001773      -0.00002405
O        4.88498316       3.45419829       5.54129908       0.00011787       0.00001803       0.00008117
O        4.04212195       1.07024379       4.08141202       0.00004117      -0.00003740      -0.00008270
O        2.35640802       3.45419721       7.00116611      -0.00002111       0.00001609       0.00010854
O        2.35639839       3.45419598       4.08141489      -0.00010248       0.00000608      -0.00006703
O        4.04213269       1.07024674       7.00116117       0.00010636       0.00001025       0.00008014
