9
Lattice="5.455356228291618 4.457625201291125e-08 3.1496515120209283 1.8184521168460663 5.143359293545511 3.1496515142345043 7.48363654231461e-08 5.562842074175416e-08 6.299302894421457" Properties=species:S:1:pos:R:3:forces:R:3 energy=-36.292266845703125 free_energy=-36.292266845703125 stress="7.946034020278603e-05 -2.079958072442878e-08 7.061761397864075e-09 -2.079958072442878e-08 7.950019789859653e-05 -5.786355394832299e-09 7.061761397864075e-09 -5.786355394832299e-09 7.95192681835033e-05" pbc="T T T"
Ga       1.81845231       1.28583978       3.14965121       0.00000171       0.00000052      -0.00000005
Ga       5.45535657       3.85751987       9.44895398       0.00000179       0.00000155      -0.00000288
Rh      -0.00000031       0.00000019       0.00000048       0.00000360      -0.00000178      -0.00000713
S        1.86683128       1.32004905       6.29930314      -0.00025725      -0.00018251      -0.00000058
S        5.40697732       3.82331047       6.29930296       0.00025588       0.00018084       0.00000054
S        4.52194069       1.32004855       4.76637482       0.00012547      -0.00018018      -0.00021940
S        2.75186809       3.82331001       7.83223105      -0.00013062       0.00018454       0.00022608
S        2.75186747       3.82331044       4.76637497      -0.00012958       0.00018108      -0.00022227
S        4.52194033       1.32004939       7.83223112       0.00012925      -0.00018430       0.00022548
