9
Lattice="4.661878511222721 1.3202877428434724e-07 2.6915368045384374 1.5539596099214446 4.395261048987219 2.6915368362304712 1.6902143179757363e-08 5.076625143532608e-08 5.3830735798015015" Properties=species:S:1:pos:R:3:forces:R:3 energy=-43.43252944946289 free_energy=-43.43252944946289 stress="-4.2859512177528813e-05 -4.4774189689178456e-08 2.1371583613927214e-08 -4.4774189689178456e-08 -4.3101059418404475e-05 -9.139909273869762e-09 2.1371583613927214e-08 -9.139909273869762e-09 -4.318869468988851e-05" pbc="T T T"
Ga       1.55395051       1.09882423       2.69154013      -0.00013428       0.00012584       0.00004999
Ga       4.66187937       3.29645218       8.07461498       0.00001571       0.00009610       0.00006161
Rh      -0.00000025       0.00000038       0.00000020       0.00000144       0.00000868       0.00000356
O        1.54512500       1.09256241       5.38307278       0.00000358      -0.00005791      -0.00002034
O        4.67071832       3.30269160       5.38307264       0.00005955      -0.00004807      -0.00002078
O        3.88932160       1.09256641       4.02965274       0.00005473      -0.00002483       0.00001022
O        2.32651783       3.30269394       6.73649458      -0.00003862      -0.00000998       0.00000352
O        2.32651910       3.30269114       4.02964916      -0.00002116      -0.00003532      -0.00004187
O        3.88932121       1.09256291       6.73649158       0.00005898      -0.00005412      -0.00004590
