9
Lattice="4.6204230046084716 -1.0009834834601874e-06 2.667601631985104 1.540140239035835 4.356181915818276 2.6676013180748495 1.279174222321921e-06 5.200533439378146e-07 5.335201048375198" Properties=species:S:1:pos:R:3:forces:R:3 energy=-44.01178741455078 free_energy=-44.01178741455078 stress="-2.543969821999781e-05 2.131918336090166e-06 -1.9775386590481503e-06 2.131918336090166e-06 -3.608161205193028e-05 -1.3818918205288355e-06 -1.9775386590481503e-06 -1.3818918205288355e-06 -1.9405717466725037e-05" pbc="T T T"
Ga       1.54013439       1.08903549       2.66760414      -0.00006780      -0.00012692       0.00003869
Ga       4.62042878       3.26714688       8.00279789       0.00006602       0.00013211      -0.00005092
Sb       0.00000225       0.00000073      -0.00000294       0.00002402       0.00001770      -0.00004008
N        1.89257959       1.33822371       5.33518444      -0.00034374      -0.00057831      -0.00016447
N        4.26797609       3.01794911       5.33521724       0.00030541       0.00053973       0.00016925
N        3.67413156       1.33820955       4.30664793       0.00017725      -0.00078389      -0.00005212
N        2.48642696       3.01798508       6.36375948      -0.00020826       0.00082868       0.00007609
N        2.48641670       3.01796295       4.30664679      -0.00036293       0.00065877      -0.00005540
N        3.67416161       1.33821222       6.36376096       0.00041015      -0.00068784       0.00007904
