9
Lattice="4.336281219031863 -3.625731849360972e-08 2.5035532061386245 1.4454270482231766 4.088285159543013 2.50355318986379 -8.115892091985506e-08 -7.732053812472059e-08 5.007106552848608" Properties=species:S:1:pos:R:3:forces:R:3 energy=-45.12591552734375 free_energy=-45.12591552734375 stress="-1.399250868416857e-05 7.24362152482172e-08 1.0369431890921987e-07 7.24362152482172e-08 -1.4159229976939969e-05 1.1035399438696913e-07 1.0369431890921987e-07 1.1035399438696913e-07 -1.4157031728245784e-05" pbc="T T T"
Ga       1.44542659       1.02207135       2.50355294      -0.00000605       0.00000292      -0.00000489
Ga       4.33628095       3.06621388       7.51065914      -0.00000351      -0.00000010      -0.00000521
S        0.00000002       0.00000010       0.00000014       0.00000110       0.00000013      -0.00000469
O        1.32563642       0.93736663       5.00710663       0.00082779       0.00058663      -0.00000137
O        4.45607195       3.15091844       5.00710645      -0.00082636      -0.00058627       0.00000278
O        3.67346324       0.93736628       3.65158832      -0.00041521       0.00058663       0.00072169
O        2.10824516       3.15091853       6.36262492       0.00041646      -0.00058615      -0.00071812
O        2.10824533       3.15091847       3.65158797       0.00041759      -0.00059307       0.00071895
O        3.67346289       0.93736654       6.36262506      -0.00041139       0.00058722      -0.00071120
