9
Lattice="4.357304751544158 -3.644090990326103e-08 2.5156913697414223 1.4524349063258788 4.108106454574659 2.515691329035951 4.3123126798908256e-08 -1.9361173654550437e-08 5.031382664791411" Properties=species:S:1:pos:R:3:forces:R:3 energy=-43.256019592285156 free_energy=-43.256019592285156 stress="-4.28856692451518e-05 1.1878315575586385e-07 6.217190651192084e-10 1.1878315575586385e-07 -4.30048348789569e-05 -6.567793064959915e-08 6.217190651192084e-10 -6.567793064959915e-08 -4.3063231714768335e-05" pbc="T T T"
Ga       1.45243525       1.02702605       2.51569059       0.00000305      -0.00000397      -0.00000747
Ga       4.35730465       3.08107995       7.54707372      -0.00000087       0.00000138      -0.00000284
Se      -0.00000023      -0.00000009       0.00000003       0.00000087      -0.00000088      -0.00000320
N        1.52557366       1.07874355       5.03138353      -0.00171447      -0.00121373       0.00000826
N        4.28416586       3.02936341       5.03138313       0.00170994       0.00121510       0.00000173
N        3.59451771       1.07874307       3.83687653       0.00085354      -0.00120968      -0.00148124
N        2.21522182       3.02936326       6.22588865      -0.00085425       0.00121003       0.00148380
N        2.21522195       3.02936311       3.83687686      -0.00085425       0.00121415      -0.00148469
N        3.59451803       1.07874351       6.22588832       0.00085670      -0.00121295       0.00148433
