9
Lattice="4.236372337603532 1.891721489512437e-08 2.445870728077367 1.41212411749607 3.9940903076335976 2.4458707503753625 -1.9841026944040193e-08 1.3279639561621787e-08 4.891741490520402" Properties=species:S:1:pos:R:3:forces:R:3 energy=-46.07991409301758 free_energy=-46.07991409301758 stress="5.124818017065991e-06 8.878166823933498e-08 1.0767457325755458e-07 8.878166823933498e-08 5.2004593271703925e-06 3.0564184072545686e-08 1.0767457325755458e-07 3.0564184072545686e-08 5.196161964704515e-06" pbc="T T T"
Ga       1.41212395       0.99852288       2.44587076       0.00000017       0.00000240      -0.00000063
Ga       4.23637246       2.99556761       7.33761233       0.00000024      -0.00000089       0.00000161
S        0.00000007       0.00000002      -0.00000008      -0.00000052       0.00000133       0.00000140
N        1.38818342       0.98159419       4.89174148       0.00018811       0.00013745      -0.00000132
N        4.26031287       3.01249622       4.89174145      -0.00019050      -0.00013804       0.00000098
N        3.54228055       0.98159386       3.64807281      -0.00009716       0.00013673       0.00016558
N        2.10621571       3.01249631       6.13541011       0.00009882      -0.00014126      -0.00016928
N        2.10621589       3.01249648       3.64807297       0.00009453      -0.00013351       0.00016594
N        3.54228075       0.98159377       6.13540997      -0.00009435       0.00013566      -0.00016654
