9
Lattice="4.753412557771627 -2.118348303193847e-06 2.7443805100130065 1.5844688931303295 4.481553566488099 2.744380444649251 -1.8768484598306468e-06 -1.407186060761148e-06 5.488764270822651" Properties=species:S:1:pos:R:3:forces:R:3 energy=-43.12120819091797 free_energy=-43.12120819091797 stress="-4.5793655090164975e-07 4.47903994427179e-06 5.592361048911698e-06 4.47903994427179e-06 2.1271989680826664e-05 4.055327735841274e-06 5.592361048911698e-06 4.055327735841274e-06 1.2451180737116374e-05" pbc="T T T"
Ga       1.58446554       1.12039237       2.74437819      -0.00008903       0.00009862      -0.00007594
Ga       4.75341355       3.36115679       8.23314928       0.00008913      -0.00010397       0.00008701
Sn      -0.00000052      -0.00000085      -0.00000227      -0.00000603       0.00000008      -0.00002117
N        2.00429851       1.41729004       5.48877739      -0.00011188       0.00062577       0.00029051
N        4.33358053       3.06426562       5.48873982       0.00010404      -0.00057060      -0.00036919
N        3.75128440       1.41728594       4.48017533       0.00046207       0.00052036       0.00026317
N        2.58660149       3.06427259       6.49735551      -0.00038570      -0.00044069      -0.00019832
N        2.58661674       3.06427832       4.48017339      -0.00007798      -0.00027123       0.00023751
N        3.75125799       1.41725935       6.49735428       0.00001533       0.00014165      -0.00021347
