9
Lattice="4.341606941686852 3.4401630517879194e-08 2.506627813429671 1.4472023512276817 4.093306202090508 2.5066278049462802 4.043172004362913e-08 1.819955143122053e-08 5.013255556829532" Properties=species:S:1:pos:R:3:forces:R:3 energy=-49.26185989379883 free_energy=-49.26185989379883 stress="-1.210458231071243e-05 2.3196108145384642e-07 -2.0194276828533475e-07 2.3196108145384642e-07 -1.196259108837694e-05 -3.0550204144219606e-08 -2.0194276828533475e-07 -3.0550204144219606e-08 -1.1619500583037734e-05" pbc="T T T"
Ga       1.44720181       1.02332653       2.50662775      -0.00000336       0.00000111      -0.00000695
Ga       4.34160769       3.06998017       7.51988291       0.00001648       0.00000544      -0.00001828
Ti      -0.00000049      -0.00000058       0.00000063      -0.00001830      -0.00000720       0.00003120
N        1.61850694       1.14445774       5.01325634      -0.00021106      -0.00013816       0.00001685
N        4.17030412       2.94885036       5.01325704       0.00025904       0.00017855       0.00003293
N        3.53235453       1.14445475       3.90829526       0.00012997      -0.00021106      -0.00020045
N        2.25645586       2.94884826       6.11821469      -0.00010893       0.00013801       0.00017306
N        2.25645315       2.94885044       3.90829512      -0.00016636       0.00018167      -0.00020066
N        3.53235363       1.14445729       6.11821489       0.00010294      -0.00014836       0.00017196
