9
Lattice="4.565844087370517 -1.2585253713159694e-07 2.6360910554096235 1.5219478979211842 4.304719203560548 2.6360910771423813 1.8778927366243588e-07 1.5940412516135834e-07 5.27218178555867" Properties=species:S:1:pos:R:3:forces:R:3 energy=-53.94049072265625 free_energy=-53.94049072265625 stress="2.4483653760398738e-05 6.676023645013629e-07 -4.961091235600179e-07 6.676023645013629e-07 2.391097768850159e-05 -4.0864381389837945e-07 -4.961091235600179e-07 -4.0864381389837945e-07 2.6688156140153296e-05" pbc="T T T"
Ga       1.52196434       1.07619706       2.63608917       0.00031524       0.00032941      -0.00003629
Ga       4.56583767       3.22853892       7.90828238      -0.00012327      -0.00000612       0.00017817
Ta       0.00000057       0.00000105       0.00000038       0.00001136       0.00001905       0.00000742
O        1.59679388       1.12910559       5.27218225      -0.00078487      -0.00055826       0.00001600
O        4.49100023       3.17560889       5.27217563       0.00081557       0.00047803      -0.00010007
O        3.76743983       1.12910486       4.01895146       0.00028121      -0.00052494      -0.00076699
O        2.32034604       3.17560834       6.52541244      -0.00041124       0.00041521       0.00076407
O        2.32034831       3.17560921       4.01895013      -0.00034565       0.00042826      -0.00079966
O        3.76743775       1.12910303       6.52541180       0.00024244      -0.00058013       0.00073755
