9
Lattice="4.199218091178079 -0.13341555230090063 2.014205410558931 1.252433738767822 4.011865870023862 2.0802563197880626 0.01278934943562744 0.011643231328351827 4.122255060236119" Properties=species:S:1:pos:R:3:forces:R:3 energy=-376.41290283203125 free_energy=-376.41290283203125 stress="-0.025692390277981758 -0.006888160482048988 -0.00014389098214451224 -0.006888160482048988 -0.02068733237683773 0.000501269765663892 -0.00014389098214451224 0.000501269765663892 0.008564415387809277" pbc="T T T"
Ga       2.48653268       0.53860296       2.05963038      -1.46052551       0.26834059       0.03757000
Ga       4.14026005       1.71688486       6.17349856       0.22358322       1.47215271       0.02944660
Ta      -0.30448548       0.42871225       0.04794794       1.20664978      -1.70491028       0.04391098
N        1.28629417       1.24373704       4.12497220       0.27556610       0.28795624      -0.02736473
N        3.86974691       3.08046662       4.11177133      -0.36159515      -0.16059113      -0.02380562
N        3.01435012       1.54282726       3.34547200      -0.11228943       0.15881348       0.10570908
N        2.19550470       2.70412859       4.67462522       0.14749908      -0.20878601      -0.14953995
N        2.39610667       2.41144485       3.21010303       0.15136719      -0.21093750       0.35975647
N        2.77486469       1.89241879       5.11854398      -0.07031250       0.09790039      -0.37568283
