9
Lattice="5.869716055534244 -8.288262145861764e-08 3.388882020775555 1.9565719111641908 5.534021152616477 3.388882071359662 -2.249267179380537e-07 -9.709464836890478e-08 6.7777644311357585" Properties=species:S:1:pos:R:3:forces:R:3 energy=-39.77127456665039 free_energy=-39.77127456665039 stress="0.00019683573918882757 -2.530251030918862e-08 2.0528030830746502e-08 -2.530251030918862e-08 0.00019689589680638164 2.348607752722387e-09 2.0528030830746502e-08 2.348607752722387e-09 0.00019689383043441921" pbc="T T T"
Ga       1.95657281       1.38350486       3.38888304       0.00000097      -0.00000065       0.00000131
Ga       5.86971564       4.15051690      10.16664628       0.00000004       0.00000238      -0.00000033
Ta      -0.00000043       0.00000053       0.00000006       0.00000306      -0.00000783      -0.00000302
Se       2.05847518       1.45556125       6.77776372      -0.00393013      -0.00278094      -0.00000126
Se       5.76781247       4.07845951       6.77776393       0.00393193       0.00278006      -0.00000018
Se       4.84047825       1.45556079       5.17157418       0.00196406      -0.00277978      -0.00340246
Se       2.98580929       4.07845916       8.38395437      -0.00196825       0.00278382       0.00340883
Se       2.98580957       4.07845928       5.17157447      -0.00196730       0.00278282      -0.00340770
Se       4.84047802       1.45556163       8.38395429       0.00196571      -0.00277998       0.00340483
