9
Lattice="6.329159317881699 -3.6041822752513105e-08 3.654141798804697 2.109719768991728 5.967188520996539 3.6541417462455135 8.947487666341929e-09 -5.804475140293669e-08 7.3082835821118985" Properties=species:S:1:pos:R:3:forces:R:3 energy=-36.96574401855469 free_energy=-36.96574401855469 stress="4.9812704673968256e-05 -1.8599431328425453e-08 -6.577945743657665e-09 -1.8599431328425453e-08 4.980610538041219e-05 1.0272586337123357e-08 -6.577945743657665e-09 1.0272586337123357e-08 4.981875099474564e-05" pbc="T T T"
Ga       2.10971974       1.49179700       3.65414188       0.00000059       0.00000038       0.00000018
Ga       6.32915926       4.47539144      10.96242538      -0.00000032       0.00000003      -0.00000001
Ta      -0.00000009      -0.00000006      -0.00000016       0.00000146       0.00000091       0.00000054
Te       2.23429496       1.57988504       7.30828347      -0.00016901      -0.00011969      -0.00000040
Te       6.20458441       4.38730359       7.30828356       0.00016542       0.00011717       0.00000016
Te       5.21201189       1.57988498       5.58909783       0.00008500      -0.00012004      -0.00014682
Te       3.22686715       4.38730352       9.02746942      -0.00008381       0.00011990       0.00014603
Te       3.22686717       4.38730339       5.58909774      -0.00008368       0.00011958      -0.00014544
Te       5.21201190       1.57988481       9.02746943       0.00008436      -0.00011826       0.00014566
