9
Lattice="4.219335465095087 9.069416824365147e-08 2.4360350590096567 1.4064453011134206 3.978024701434729 2.436034954091709 1.2477483320051145e-06 7.537935947276026e-07 4.872067956855663" Properties=species:S:1:pos:R:3:forces:R:3 energy=-52.952850341796875 free_energy=-52.952850341796875 stress="-1.7414608009858057e-05 9.549221431370825e-07 -4.0597929000796285e-06 9.549221431370825e-07 -5.568341293837875e-06 -2.742151309576002e-06 -4.0597929000796285e-06 -2.742151309576002e-06 -1.547146530356258e-05" pbc="T T T"
Ga       1.40644556       0.99450724       2.43603494       0.00000229       0.00000118       0.00000076
Ga       4.21933720       2.98351896       7.30810296       0.00000237       0.00000074      -0.00000078
V       -0.00000028      -0.00000000       0.00000008      -0.00000354      -0.00000015       0.00000031
N        1.62623664       1.14992986       4.87206817      -0.00094295      -0.00052272      -0.00001505
N        3.99954585       2.82809015       4.87208377       0.00097173       0.00047089       0.00022738
N        3.40621032       1.14992975       3.84439403       0.00034602      -0.00054249      -0.00086445
N        2.21956224       2.82809975       5.89973709      -0.00050399       0.00059739       0.00073275
N        2.21956173       2.82809179       3.84439394      -0.00050251       0.00046913      -0.00084123
N        3.40622878       1.14993457       5.89973725       0.00063062      -0.00047374       0.00076026
