9
Lattice="4.509561333212164 -1.8234856095919123e-07 2.603596520911155 1.5031870041667048 4.251654877774387 2.6035964083002914 -4.263299138097985e-08 -1.6806557535044896e-07 5.20719311566468" Properties=species:S:1:pos:R:3:forces:R:3 energy=-54.50933837890625 free_energy=-54.50933837890625 stress="0.00022211333271116018 2.8857269285254006e-07 -2.9594069417271385e-08 2.8857269285254006e-07 0.00022192929463926703 -1.620087601850173e-07 -2.9594069417271385e-08 -1.620087601850173e-07 0.00022189738228917122" pbc="T T T"
Ga       1.50318066       1.06291201       2.60359881      -0.00008084      -0.00002073       0.00004559
Ga       4.50956191       3.18874542       7.81078214       0.00001779       0.00005800      -0.00010751
W       -0.00000024       0.00000017      -0.00000089      -0.00000318      -0.00000040       0.00001828
N        1.60724865       1.13649257       5.20719160      -0.00118232      -0.00086993      -0.00002998
N        4.40550290       3.11515753       5.20719930       0.00121224       0.00083327       0.00006891
N        3.70593801       1.13649143       3.99551556       0.00059623      -0.00089014      -0.00099742
N        2.30681189       3.11516303       6.41887165      -0.00057161       0.00088012       0.00099981
N        2.30680734       3.11516065       3.99551494      -0.00063425       0.00085247      -0.00100040
N        3.70594172       1.13649513       6.41887077       0.00064588      -0.00084341       0.00100315
