9
Lattice="5.538687049486256 -1.6668187186571716e-08 3.1977626160429997 1.8462290063706757 5.221924553677377 3.1977626063605245 1.624821070978663e-08 -3.6934611322503986e-10 6.395525203943261" Properties=species:S:1:pos:R:3:forces:R:3 energy=-26.851274490356445 free_energy=-26.851274490356445 stress="2.4482255867042113e-06 3.178490004529522e-08 -5.1695550062902385e-09 3.178490004529522e-08 2.442797040203004e-06 -1.942505001295558e-08 -5.1695550062902385e-09 -1.942505001295558e-08 2.4283924631163245e-06" pbc="T T T"
Ga       1.84622875       1.30548184       3.19776266      -0.00000077       0.00000549       0.00000154
Ga       5.53868721       3.91644310       9.59328841       0.00000065      -0.00000287       0.00000400
Zn      -0.00000006       0.00000011      -0.00000023      -0.00000144      -0.00000159       0.00000151
S        1.92588801       1.36180811       6.39552501       0.00023516       0.00016595       0.00000043
S        5.45902843       3.86011605       6.39552454      -0.00023314      -0.00016625      -0.00000348
S        4.57574290       1.36180878       4.86563017      -0.00011803       0.00016605       0.00020136
S        2.80917226       3.86011540       7.92542030       0.00011668      -0.00016938      -0.00020352
S        2.80917325       3.86011598       4.86563037       0.00011755      -0.00016593       0.00020117
S        4.57574351       1.36180886       7.92542044      -0.00011664       0.00016835      -0.00020301
