9
Lattice="5.663201790902782 8.198794238596302e-08 3.269651202035776 1.8877340204687685 5.33931780316257 3.2696511797462233 -2.9623880835396937e-08 -4.824623843375269e-08 6.539302455381651" Properties=species:S:1:pos:R:3:forces:R:3 energy=-26.62128257751465 free_energy=-26.62128257751465 stress="-1.9806540876743384e-05 3.3804334886866627e-09 4.4882536798240835e-08 3.3804334886866627e-09 -1.980288107006345e-05 4.2120394283529095e-08 4.4882536798240835e-08 4.2120394283529095e-08 -1.988462099689059e-05" pbc="T T T"
Ga       1.88773396       1.33482946       3.26965118       0.00000020      -0.00000004       0.00000063
Ga       5.66320181       4.00448843       9.80895361      -0.00000028      -0.00000022      -0.00000041
Zn      -0.00000007      -0.00000018       0.00000016       0.00000077       0.00000053       0.00000004
Se       2.17160318       1.53555543       6.53930213      -0.00056386      -0.00039982       0.00000026
Se       5.37933236       3.80376251       6.53930196       0.00056107       0.00039762       0.00000007
Se       4.57740002       1.53555574       5.15031470       0.00028285      -0.00039723      -0.00048800
Se       2.97353576       3.80376239       7.92829039      -0.00028111       0.00039853       0.00048728
Se       2.97353571       3.80376264       5.15031443      -0.00028160       0.00039819      -0.00048816
Se       4.57740038       1.53555494       7.92829078       0.00028196      -0.00039756       0.00048821
