9
Lattice="6.225132399248921 -7.712352003549322e-08 3.5940818496705558 2.0750440726521733 5.8691109527893435 3.594081828397527 1.4162867906272848e-08 -1.6039307354635216e-08 7.1881636748102675" Properties=species:S:1:pos:R:3:forces:R:3 energy=-25.046531677246094 free_energy=-25.046531677246094 stress="7.706708856858313e-06 -1.075319611132386e-09 -8.194978029507638e-10 -1.075319611132386e-09 7.719942914263811e-06 1.515999659140732e-09 -8.194978029507638e-10 1.515999659140732e-09 7.73649662733078e-06" pbc="T T T"
Ga       2.07504425       1.46727784       3.59408186      -0.00000037       0.00000052       0.00000011
Ga       6.22513237       4.40183310      10.78224548       0.00000022      -0.00000013       0.00000010
Zn      -0.00000034      -0.00000021      -0.00000026       0.00000081       0.00000010       0.00000005
Te       2.24564381       1.58790991       7.18816370      -0.00620830      -0.00438920      -0.00000018
Te       6.05453287       4.28120104       7.18816385       0.00620699       0.00438870       0.00000039
Te       5.10231046       1.58790995       5.53886640       0.00310415      -0.00438917      -0.00537615
Te       3.19786585       4.28120104       8.83746111      -0.00310390       0.00438909       0.00537574
Te       3.19786601       4.28120092       5.53886633      -0.00310393       0.00438969      -0.00537558
Te       5.10231064       1.58790984       8.83746090       0.00310432      -0.00438964       0.00537553
