9
Lattice="4.45709628567071 1.0391357314739603e-07 2.5733057746788672 1.4856988685180976 4.202190631041803 2.573305759684156 2.9041902799113867e-09 -1.63111181517709e-08 5.146611544327531" Properties=species:S:1:pos:R:3:forces:R:3 energy=-50.42859649658203 free_energy=-50.42859649658203 stress="3.5290933737996966e-05 -1.5610937964538607e-07 7.209936114804805e-08 -1.5610937964538607e-07 3.500101956888102e-05 9.790440458345984e-08 7.209936114804805e-08 9.790440458345984e-08 3.4881239116657525e-05" pbc="T T T"
Ga       1.48569874       1.05054777       2.57330588       0.00000034      -0.00000078      -0.00000100
Ga       4.45709637       3.15164338       7.71991745       0.00000030       0.00000248       0.00000131
Zr       0.00000032      -0.00000041      -0.00000021      -0.00000130       0.00000165       0.00000025
N        1.78424572       1.26165219       5.14661158       0.00079990       0.00056027       0.00000386
N        4.15854938       2.94053904       5.14661135      -0.00080399      -0.00055182      -0.00000710
N        3.56497302       1.26165209       4.11850818      -0.00040173       0.00055936       0.00069136
N        2.37782174       2.94053814       6.17471600       0.00040211      -0.00056915      -0.00068104
N        2.37782208       2.94053855       4.11850718       0.00041086      -0.00056061       0.00068273
N        3.56497323       1.26165217       6.17471504      -0.00040645       0.00055858      -0.00069047
