9
Lattice="5.519155839602926 1.0342264037870661e-06 3.186484169227335 1.8397196252349493 5.203506504848411 3.1864841052177346 -5.110758588079836e-07 -4.3978086392414624e-07 6.372969223664134" Properties=species:S:1:pos:R:3:forces:R:3 energy=-33.98337173461914 free_energy=-33.98337173461914 stress="-1.8712436940404586e-05 1.516474128493428e-07 -6.97859618981056e-08 1.516474128493428e-07 -1.8843616999220103e-05 1.1493298046616474e-07 -6.97859618981056e-08 1.1493298046616474e-07 -1.887401595013216e-05" pbc="T T T"
Ge       1.83972005       1.30087658       3.18648026      -0.00000273      -0.00000291      -0.00002195
Ge       5.51914519       3.90262922       9.55944431      -0.00002491      -0.00000291      -0.00002958
As      -0.00000443      -0.00000338      -0.00002229       0.00004549       0.00003095       0.00020877
Se       2.14148389       1.51425441       6.37297042      -0.00277853      -0.00195940       0.00000609
Se       5.21739706       3.68925358       6.37297240       0.00275484       0.00195105       0.00000326
Se       4.44841617       1.51425839       5.04106857       0.00140548      -0.00199313      -0.00244191
Se       2.91046276       3.68925653       7.70488556      -0.00136025       0.00191253       0.00234312
Se       2.91046218       3.68925094       5.04106368      -0.00139363       0.00197609      -0.00241572
Se       4.44841726       1.51425180       7.70488673       0.00135399      -0.00191210       0.00234792
