9
Lattice="5.564579716866196 -4.463372148790729e-08 3.212711465367671 1.8548598683887214 5.246335903040833 3.2127114569712347 -3.5591851467230693e-08 -3.545079692809581e-08 6.425422992382312" Properties=species:S:1:pos:R:3:forces:R:3 energy=-34.3248291015625 free_energy=-34.3248291015625 stress="0.00014159450074657798 2.1026133723012208e-08 -3.15369774739338e-08 2.1026133723012208e-08 0.00014173203089740127 5.4109584368688957e-08 -3.15369774739338e-08 5.4109584368688957e-08 0.00014166635810397565" pbc="T T T"
Ge       1.85485899       1.31158451       3.21271140      -0.00000893       0.00000660      -0.00000172
Ge       5.56457987       3.93475157       9.63813420       0.00000290      -0.00000369      -0.00000298
As       0.00000005       0.00000001       0.00000012       0.00000116      -0.00000206      -0.00000199
S        1.89792000       1.34203259       6.42542292      -0.00077474      -0.00054550       0.00000027
S        5.52151960       3.90430299       6.42542272       0.00077736       0.00054228      -0.00000028
S        4.61562016       1.34203243       4.85635880       0.00039178      -0.00054759      -0.00066864
S        2.80381986       3.90430345       7.99448738      -0.00038964       0.00054836       0.00067365
S        2.80381971       3.90430350       4.85635858      -0.00039092       0.00054675      -0.00066990
S        4.61561991       1.34203221       7.99448755       0.00039065      -0.00054520       0.00067180
