9
Lattice="4.390672023901559 -1.3066850044051077e-08 2.534955608608174 1.4635573395622348 4.139565016040012 2.5349555902809002 1.5252427715383057e-08 -1.1661139439555617e-08 5.069911190798345" Properties=species:S:1:pos:R:3:forces:R:3 energy=-46.467140197753906 free_energy=-46.467140197753906 stress="-0.0003984883369412273 -7.844946914303819e-09 -4.771468198327966e-08 -7.844946914303819e-09 -0.000398167670937255 -4.895513683322861e-08 -4.771468198327966e-08 -4.895513683322861e-08 -0.0003987356321886182" pbc="T T T"
Ge       1.46355762       1.03489109       2.53495675       0.00000626       0.00000161       0.00001456
Ge       4.39067218       3.10467387       7.60486769       0.00000524       0.00000242       0.00001540
As       0.00000107       0.00000063       0.00000223       0.00001701       0.00000584       0.00003175
N        1.70302311       1.20421977       5.06991115       0.00701755       0.00496746       0.00000964
N        4.15120317       2.93534340       5.06991128      -0.00707078      -0.00500208       0.00001080
N        3.53916198       1.20421888       4.00981675      -0.00348917       0.00495703       0.00607905
N        2.31507147       2.93534321       6.13000426       0.00355100      -0.00500600      -0.00610900
N        2.31506825       2.93534683       4.00981634       0.00350231      -0.00494478       0.00606995
N        3.53915865       1.20422226       6.13000302      -0.00353891       0.00501846      -0.00612197
