9
Lattice="4.559354040795021 -2.5422155545787113e-08 2.632344520441657 1.5197846935482862 4.298600212932422 2.6323444559201965 1.7623096736696086e-08 -6.656094728354011e-08 5.264689010359232" Properties=species:S:1:pos:R:3:forces:R:3 energy=-47.25789260864258 free_energy=-47.25789260864258 stress="1.240447636519093e-05 1.0999954724866257e-08 2.8355410464087072e-08 1.0999954724866257e-08 1.2054325452481862e-05 -1.5173327483353205e-07 2.8355410464087072e-08 -1.5173327483353205e-07 1.2474663890316151e-05" pbc="T T T"
Ge       1.51978503       1.07465090       2.63234391       0.00000370       0.00000721      -0.00000622
Ge       4.55935365       3.22395017       7.89703278      -0.00000218      -0.00000048      -0.00000647
As       0.00000010       0.00000001       0.00000022       0.00000244      -0.00000151       0.00000130
O        1.48912687       1.05297130       5.26468885       0.00051248       0.00035918       0.00000029
O        4.59001220       3.24562830       5.26468948      -0.00051522      -0.00036252       0.00000417
O        3.81479076       1.05297189       3.92196585      -0.00025648       0.00036442       0.00044680
O        2.26434812       3.24562813       6.60741273       0.00025851      -0.00036812      -0.00044191
O        2.26434768       3.24562841       3.92196623       0.00025499      -0.00036108       0.00044823
O        3.81479059       1.05297136       6.60741223      -0.00025845       0.00036240      -0.00044501
