9
Lattice="6.045690269234812 2.274998121820161e-08 3.490480859968524 2.015230102084971 5.699931372288952 3.490480875745547 -3.32128137516981e-08 -4.162209208558243e-09 6.980961777463354" Properties=species:S:1:pos:R:3:forces:R:3 energy=-30.828033447265625 free_energy=-30.828033447265625 stress="-7.214895049401093e-06 6.628124715746253e-09 -1.8020307468447072e-09 6.628124715746253e-09 -7.204020221251994e-06 4.015263677104031e-09 -1.8020307468447072e-09 4.015263677104031e-09 -7.2001757871476e-06" pbc="T T T"
Ge       2.01523036       1.42498280       3.49048070       0.00000292       0.00000039      -0.00000144
Ge       6.04569009       4.27494836      10.47144292      -0.00000165      -0.00000135       0.00000095
B        0.00000019      -0.00000015      -0.00000002      -0.00000275       0.00000144      -0.00000052
Te       1.89559807       1.34038993       6.98096172      -0.00240852      -0.00170287       0.00000046
Te       6.16532240       4.35954119       6.98096156       0.00240885       0.00170463      -0.00000105
Te       5.09789121       1.34039043       5.13211680       0.00120462      -0.00170282      -0.00208825
Te       2.96302904       4.35954135       8.82980699      -0.00120323       0.00170233       0.00208619
Te       2.96302894       4.35954165       5.13211647      -0.00120307       0.00170222      -0.00208513
Te       5.09789107       1.34039004       8.82980691       0.00120275      -0.00170394       0.00208883
