9
Lattice="5.378244222023406 -8.586405663377501e-08 3.10513084714837 1.7927480959137148 5.070656867826105 3.105130668990778 1.8363198513870584e-07 -8.835011261428521e-08 6.210261376236756" Properties=species:S:1:pos:R:3:forces:R:3 energy=-36.50265884399414 free_energy=-36.50265884399414 stress="-1.2400442756188568e-05 -1.5996249658201123e-08 1.930726023502416e-09 -1.5996249658201123e-08 -1.2292805877223145e-05 1.8409048507805892e-08 1.930726023502416e-09 1.8409048507805892e-08 -1.2429162779881153e-05" pbc="T T T"
Ge       1.79274875       1.26766558       3.10513309       0.00000245       0.00000927       0.00001515
Ge       5.37824429       3.80299080       9.31539523      -0.00000048      -0.00001000       0.00002144
B       -0.00000023       0.00000030       0.00000006      -0.00000034      -0.00000246      -0.00000792
S        1.63894415       1.15890847       6.21026127       0.00015330       0.00011170      -0.00000526
S        5.53204817       3.91174814       6.21026068      -0.00015163      -0.00010937      -0.00000778
S        4.55877194       1.15890924       4.52449758      -0.00007752       0.00011313       0.00012517
S        2.61222000       3.91174756       7.89602355       0.00007045      -0.00010580      -0.00013363
S        2.61222085       3.91174718       4.52449732       0.00007537      -0.00011075       0.00012267
S        4.55877234       1.15890930       7.89602327      -0.00007111       0.00010395      -0.00012940
