9
Lattice="4.256163871678243 4.8002663093776465e-08 2.4572971922838494 1.418721351040465 4.01274947117129 2.4572971659156235 3.3042519481007375e-08 -8.929738370526897e-09 4.914594327336348" Properties=species:S:1:pos:R:3:forces:R:3 energy=-48.68584442138672 free_energy=-48.68584442138672 stress="0.0001511264854343608 -1.1984703007783537e-08 -4.967829525526213e-08 -1.1984703007783537e-08 0.0001509166177129373 -4.994855729023584e-08 -4.967829525526213e-08 -4.994855729023584e-08 0.00015089090447872877" pbc="T T T"
Ge       1.41872101       1.00318729       2.45729754      -0.00000303       0.00000103       0.00000138
Ge       4.25616334       3.00956214       7.37189182      -0.00000208       0.00000074       0.00000072
B        0.00000015       0.00000034       0.00000008      -0.00000332      -0.00000200       0.00000609
O        1.24014209       0.87691352       4.91459381      -0.00006685      -0.00003350       0.00000303
O        4.43474403       3.13583540       4.91459414       0.00006512       0.00003728       0.00000031
O        3.63609229       0.87691220       3.53129199       0.00003259      -0.00004256      -0.00005504
O        2.03879294       3.13583719       6.29789676      -0.00002439       0.00003940       0.00004151
O        2.03879330       3.13583734       3.53129163      -0.00002381       0.00004336      -0.00004950
O        3.63609209       0.87691261       6.29789674       0.00002623      -0.00004393       0.00005177
