9
Lattice="5.512900484039868 4.2845376921528494e-08 3.18287460114507 1.8376335274456042 5.197612479234735 3.182874614359482 -8.863340280163687e-09 9.91697954959837e-09 6.365749217641878" Properties=species:S:1:pos:R:3:forces:R:3 energy=-34.893550872802734 free_energy=-34.893550872802734 stress="-0.0004647610185202211 1.8270597479386197e-08 -8.25523094327707e-10 1.8270597479386197e-08 -0.0004648072936106473 1.4973275952456788e-09 -8.25523094327707e-10 1.4973275952456788e-09 -0.00046476800343953073" pbc="T T T"
Ge       1.83763315       1.29940330       3.18287463      -0.00000273       0.00000128       0.00000017
Ge       5.51290088       3.89820920       9.54862329       0.00000146      -0.00000109      -0.00000335
B       -0.00000002       0.00000010      -0.00000009      -0.00000010       0.00000082       0.00000073
Se       1.72804932       1.22191562       6.36574921       0.00739139       0.00522777       0.00000026
Se       5.62248475       3.97569683       6.36574948      -0.00739130      -0.00522789       0.00000224
Se       4.64887585       1.22191539       4.67940929      -0.00369575       0.00522619       0.00640256
Se       2.70165802       3.97569708       8.05208930       0.00369761      -0.00522825      -0.00640323
Se       2.70165791       3.97569710       4.67940926       0.00369526      -0.00522836       0.00640418
Se       4.64887613       1.22191550       8.05208938      -0.00369587       0.00522946      -0.00640335
