9
Lattice="5.56180386115176 5.869486394611507e-08 3.211109046295221 1.8539346648572617 5.24371912253088 3.2111090651133902 -3.604233693303646e-08 -2.438302099495197e-09 6.4222181550175845" Properties=species:S:1:pos:R:3:forces:R:3 energy=-31.760169982910156 free_energy=-31.760169982910156 stress="6.957084406167269e-05 -2.059754855565643e-08 -1.857571341190578e-08 -2.059754855565643e-08 6.95525377523154e-05 6.383730433157098e-09 -1.857571341190578e-08 6.383730433157098e-09 6.958995800232515e-05" pbc="T T T"
Ge       1.85393510       1.31092988       3.21110912       0.00000187       0.00000018       0.00000066
Ge       5.56180390       3.93278945       9.63332737      -0.00000042       0.00000123       0.00000110
Ga      -0.00000013       0.00000003       0.00000021      -0.00000045       0.00000027      -0.00000175
Se       2.11069698       1.49248789       6.42221802       0.00671515       0.00474992       0.00000015
Se       5.30504117       3.75123069       6.42221822      -0.00671504      -0.00474772      -0.00000006
Se       4.50645505       1.49248856       5.03902657      -0.00335815       0.00474750       0.00581276
Se       2.90928337       3.75123100       7.80540970       0.00335699      -0.00474917      -0.00581670
Se       2.90928354       3.75123078       5.03902642       0.00335807      -0.00474923       0.00581672
Se       4.50645501       1.49248844       7.80540933      -0.00335802       0.00474696      -0.00581290
