9
Lattice="6.190286502944901 3.7693611865806796e-08 3.573963603958356 2.0634288735810546 5.8362580021174235 3.5739635975009034 7.301297497241663e-09 -2.7459477637903438e-09 7.147927195270465" Properties=species:S:1:pos:R:3:forces:R:3 energy=-28.217533111572266 free_energy=-28.217533111572266 stress="7.430827827192843e-05 -6.099383664803781e-09 -9.884709051277696e-09 -6.099383664803781e-09 7.431981794070452e-05 9.289200519901897e-09 -9.884709051277696e-09 9.289200519901897e-09 7.430995174217969e-05" pbc="T T T"
Ge       2.06342898       1.45906491       3.57396335       0.00000108       0.00000113      -0.00000107
Ge       6.19028635       4.37719334      10.72189014      -0.00000131      -0.00000135      -0.00000290
Ga      -0.00000007       0.00000027      -0.00000014       0.00000019      -0.00000281      -0.00000041
Te       2.24644743       1.58847838       7.14792745      -0.00618079      -0.00437029      -0.00000015
Te       6.00726796       4.24777971       7.14792753       0.00618280       0.00437104       0.00000126
Te       5.06706275       1.58847807       5.51944389       0.00308993      -0.00436987      -0.00535251
Te       3.18665283       4.24777955       8.77641041      -0.00309103       0.00437091       0.00535596
Te       3.18665237       4.24777964       5.51944430      -0.00309100       0.00437086      -0.00535427
Te       5.06706294       1.58847828       8.77641065       0.00309014      -0.00436964       0.00535405
