9
Lattice="4.546045170854405 -1.2833924296219708e-06 2.6246579038947555 1.5153471259750972 4.2860498842938615 2.6246579979721347 -1.9065102474674674e-06 -1.2328854443621362e-06 5.249319109961988" Properties=species:S:1:pos:R:3:forces:R:3 energy=-43.86333465576172 free_energy=-43.86333465576172 stress="-2.665716783667449e-05 2.690060682652984e-06 6.003637281537522e-06 2.690060682652984e-06 -1.7903295884025283e-05 4.1779735511227045e-06 6.003637281537522e-06 4.1779735511227045e-06 -1.891868669190444e-05" pbc="T T T"
Ge       1.51534594       1.07151245       2.62465646      -0.00005408       0.00002882      -0.00007954
Ge       4.54604466       3.21453449       7.87398206       0.00005539      -0.00003368       0.00010107
Ga      -0.00000112       0.00000120      -0.00000454      -0.00000915       0.00001529      -0.00004501
N        1.83496804       1.29753330       5.24932840      -0.00060911      -0.00016081       0.00027958
N        4.22641949       2.98851855       5.24929520       0.00058866       0.00019367      -0.00033657
N        3.62856453       1.29753783       4.21379659       0.00050417      -0.00014513      -0.00035894
N        2.43280967       2.98852245       6.28483748      -0.00063836       0.00022031       0.00035157
N        2.43284685       2.98852038       4.21380579      -0.00013443       0.00037231      -0.00030141
N        3.62856354       1.29750885       6.28484252       0.00029697      -0.00049064       0.00038919
