9
Lattice="4.565158763585138 6.913083034178685e-08 2.6356957106431427 1.5217195947332298 4.304073306503383 2.6356958116315363 -1.1684435577467823e-07 4.106354520258613e-08 5.271391623666657" Properties=species:S:1:pos:R:3:forces:R:3 energy=-42.35268783569336 free_energy=-42.35268783569336 stress="-0.0005922194104641676 -8.527989336926112e-08 -1.5899770389182777e-08 -8.527989336926112e-08 -0.0005921020056121051 6.416592412961108e-08 -1.5899770389182777e-08 6.416592412961108e-08 -0.0005919118993915617" pbc="T T T"
Ge       1.52171926       1.07601905       2.63569556      -0.00000212       0.00000549      -0.00000310
Ge       4.56515810       3.22805539       7.90708735      -0.00000614       0.00000493      -0.00000026
Ga       0.00000008       0.00000003       0.00000007      -0.00000009      -0.00000052       0.00000006
O        1.56042455       1.10338655       5.27139190       0.00334990       0.00236371       0.00000175
O        4.52645380       3.20068675       5.27139121      -0.00334668      -0.00236773      -0.00000146
O        3.78494641       1.10338703       3.98706307      -0.00167158       0.00236565       0.00289732
O        2.30193231       3.20068597       6.55572055       0.00167513      -0.00236800      -0.00289190
O        2.30193167       3.20068644       3.98706322       0.00167298      -0.00236797       0.00289810
O        3.78494679       1.10338657       6.55571976      -0.00167155       0.00236389      -0.00290024
