9
Lattice="5.6743988412758135 2.2013761752744392e-09 3.2761158205657064 1.891466307981837 5.349874567580445 3.276115776431135 5.618567029652077e-08 -1.4324253994943858e-08 6.552231543814953" Properties=species:S:1:pos:R:3:forces:R:3 energy=-38.46039962768555 free_energy=-38.46039962768555 stress="0.00026334114954806864 -4.390623686845174e-08 3.182414401448064e-11 -4.390623686845174e-08 0.0002633805852383375 -1.1894045748306326e-09 3.182414401448064e-11 -1.1894045748306326e-09 0.00026343658100813627" pbc="T T T"
Ge       1.89146639       1.33746840       3.27611545       0.00000001      -0.00000155      -0.00000160
Ge       5.67439915       4.01240631       9.82834787       0.00000185       0.00000182       0.00000386
Ir      -0.00000002      -0.00000030       0.00000054       0.00000211       0.00000413      -0.00001038
Se       1.99052035       1.40751038       6.55223162      -0.00520256      -0.00367902      -0.00000005
Se       5.57534508       3.94236447       6.55223154       0.00519936       0.00367741      -0.00000126
Se       4.67913900       1.40751022       4.99995691       0.00260077      -0.00367835      -0.00450447
Se       2.88672627       3.94236388       8.10450589      -0.00260430       0.00368159       0.00450812
Se       2.88672633       3.94236445       4.99995707      -0.00260053       0.00367808      -0.00450431
Se       4.67913828       1.40751045       8.10450571       0.00260341      -0.00368430       0.00451010
