9
Lattice="5.428535318117127 -9.670686859360845e-08 3.134166373724421 1.8095116815784371 5.118072136105651 3.1341663736397987 -5.59537358409169e-08 -3.966888553577162e-08 6.268332844363527" Properties=species:S:1:pos:R:3:forces:R:3 energy=-40.82007598876953 free_energy=-40.82007598876953 stress="0.00020004231191705912 -5.605593766944139e-09 1.4275209458958216e-08 -5.605593766944139e-09 0.00020002314704470336 -7.977552840543467e-09 1.4275209458958216e-08 -7.977552840543467e-09 0.00020008253341075033" pbc="T T T"
Ge       1.80951187       1.27951854       3.13416663       0.00000127       0.00000316       0.00000283
Ge       5.42853475       3.83855471       9.40249948      -0.00000211       0.00000507       0.00000006
Ir      -0.00000007       0.00000013       0.00000015      -0.00000036       0.00000138      -0.00000047
S        1.85842851       1.31410669       6.26833266      -0.00041676      -0.00029838      -0.00000210
S        5.37961870       3.80396488       6.26833265       0.00041759       0.00029552      -0.00000066
S        4.49932129       1.31410697       4.74361292       0.00020820      -0.00029689      -0.00036228
S        2.73872603       3.80396449       7.79305294      -0.00020903       0.00029510       0.00036329
S        2.73872574       3.80396428       4.74361231      -0.00020924       0.00029296      -0.00036407
S        4.49932101       1.31410723       7.79305267       0.00021023      -0.00029773       0.00036311
