9
Lattice="5.776183484646314 4.930578259807869e-09 3.334881061729195 1.925394411981601 5.445838215548212 3.3348812133686816 -1.456775328582479e-07 8.271009785222949e-08 6.669762375779257" Properties=species:S:1:pos:R:3:forces:R:3 energy=-40.3604621887207 free_energy=-40.3604621887207 stress="-3.60338635800872e-05 -7.332903351198183e-08 -8.749327662371797e-08 -7.332903351198183e-08 -3.598400508053601e-05 9.384231702824763e-08 -8.749327662371797e-08 9.384231702824763e-08 -3.5931971069658175e-05" pbc="T T T"
Ge       1.92539482       1.36145888       3.33488161       0.00000051      -0.00000354       0.00000209
Ge       5.77618304       4.08437889      10.00464245      -0.00000082      -0.00000028      -0.00000361
Mo      -0.00000043       0.00000005       0.00000027       0.00000807      -0.00000352      -0.00000590
Se       1.98465890       1.40336618       6.66976246       0.00355226       0.00251108      -0.00000126
Se       5.71691879       4.04247271       6.66976277      -0.00355744      -0.00251453       0.00000091
Se       4.78385358       1.40336606       5.05364653      -0.00177561       0.00251001       0.00307367
Se       2.91772449       4.04247206       8.28587766       0.00177149      -0.00250076      -0.00306438
Se       2.91772385       4.04247234       5.05364673       0.00177733      -0.00251262       0.00307725
Se       4.78385394       1.40336601       8.28587809      -0.00177572       0.00251437      -0.00307870
