9
Lattice="5.542223817729039 -4.5629219104552875e-08 3.19980434173755 1.8474078880847995 5.225258646491918 3.1998043558339555 -1.06271716742816e-07 -5.788093618170391e-08 6.399608867543138" Properties=species:S:1:pos:R:3:forces:R:3 energy=-43.226680755615234 free_energy=-43.226680755615234 stress="8.346066169906408e-05 -3.120721014937544e-09 1.1339138517030278e-08 -3.120721014937544e-09 8.347490802407265e-05 -3.955522576148951e-09 1.1339138517030278e-08 -3.955522576148951e-09 8.343383524334058e-05" pbc="T T T"
Ge       1.84740754       1.30631377       3.19980437       0.00000024      -0.00000696       0.00000056
Ge       5.54222287       3.91894217       9.59941560      -0.00000519      -0.00001361       0.00001709
Mo      -0.00000026      -0.00000049       0.00000004       0.00000059      -0.00000131       0.00000200
S        1.88801172       1.33502689       6.39960861       0.00031000       0.00022297      -0.00000112
S        5.50161965       3.89023293       6.39960773      -0.00031358      -0.00021930      -0.00000700
S        4.59821808       1.33502710       4.83487007      -0.00015351       0.00022817       0.00026630
S        2.79141400       3.89023272       7.96434657       0.00015731      -0.00021800      -0.00027178
S        2.79141468       3.89023295       4.83487065       0.00016086      -0.00021599       0.00026691
S        4.59821807       1.33502609       7.96434668      -0.00015675       0.00022410      -0.00027303
