9
Lattice="4.259758487881024 -1.1268528677042232e-07 2.459372369636516 1.4199194565786302 4.016138340301633 2.459372253833326 2.5831603176900414e-08 -1.235637129501072e-07 4.91874469453145" Properties=species:S:1:pos:R:3:forces:R:3 energy=-43.25843048095703 free_energy=-43.25843048095703 stress="0.00017743326316121966 4.9948013725042983e-08 4.8540194086399424e-08 4.9948013725042983e-08 0.00017774806474335492 4.697742284065498e-08 4.8540194086399424e-08 4.697742284065498e-08 0.0001775316777639091" pbc="T T T"
Ge       1.41991878       1.00403518       2.45936906      -0.00000716       0.00000525      -0.00006154
Ge       4.25975777       3.01210449       7.37811330      -0.00000861       0.00000453      -0.00006229
N       -0.00000222       0.00000013      -0.00002281      -0.00004288       0.00000452      -0.00040917
O        1.32592859       0.93757185       4.91874707      -0.00159848      -0.00113904       0.00003508
O        4.35375113       3.07856625       4.91874686       0.00162566       0.00115418       0.00003815
O        3.59679311       0.93757530       3.60766538       0.00077045      -0.00108886      -0.00128460
O        2.08288065       3.07856919       6.22983593      -0.00084633       0.00120091       0.00150335
O        2.08288611       3.07856157       3.60766528      -0.00075668       0.00107062      -0.00127864
O        3.59679787       0.93756840       6.22983714       0.00086272      -0.00121212       0.00152230
