9
Lattice="5.58727270460089 4.98941935316354e-08 3.225813403300624 1.8624242680454286 5.267731328302665 3.2258134273107424 -2.3265276933405094e-08 1.2955245132439102e-08 6.451626846897899" Properties=species:S:1:pos:R:3:forces:R:3 energy=-34.631591796875 free_energy=-34.631591796875 stress="9.722703543957323e-05 2.5773696066266893e-08 6.019675868884633e-09 2.5773696066266893e-08 9.720196976559237e-05 6.020569376374851e-09 6.019675868884633e-09 6.020569376374851e-09 9.720459638629109e-05" pbc="T T T"
Ge       1.86242436       1.31693287       3.22581329       0.00000133      -0.00000050      -0.00000090
Ge       5.58727240       3.95079877       9.67744014      -0.00000130       0.00000141      -0.00000110
P        0.00000017      -0.00000000       0.00000042      -0.00000198       0.00000211      -0.00000966
Se       1.87591357       1.32647109       6.45162686      -0.00169718      -0.00120154       0.00000002
Se       5.57378357       3.94126029       6.45162680       0.00169757       0.00120078       0.00000053
Se       4.64931593       1.32647104       4.85040210       0.00084661      -0.00119835      -0.00146735
Se       2.80038089       3.94126019       8.05285155      -0.00084868       0.00120096       0.00147165
Se       2.80038094       3.94126025       4.85040196      -0.00084616       0.00119717      -0.00146638
Se       4.64931596       1.32647106       8.05285161       0.00084989      -0.00120215       0.00147310
