9
Lattice="4.449932541111392 9.716178607710011e-09 2.569169636932348 1.4833108308096117 4.195436617865588 2.5691696809056275 -6.734876089129085e-08 6.233327820302935e-09 5.1383393905161485" Properties=species:S:1:pos:R:3:forces:R:3 energy=-51.374488830566406 free_energy=-51.374488830566406 stress="-3.1194733310258016e-05 1.4891957667018119e-09 4.065153991206216e-09 1.4891957667018119e-09 -3.156503589707427e-05 -2.405877275180046e-08 4.065153991206216e-09 -2.405877275180046e-08 -3.1566643883707e-05" pbc="T T T"
Ge       1.48331119       1.04885838       2.56917024       0.00000172      -0.00000428       0.00000642
Ge       4.44993256       3.14657738       7.70751016       0.00000118      -0.00000208       0.00000532
P        0.00000006      -0.00000000       0.00000000      -0.00000439      -0.00000092      -0.00000204
O        1.38057803       0.97621635       5.13833918       0.00033689       0.00024009      -0.00000079
O        4.55266495       3.21922049       5.13833881      -0.00033355      -0.00023270      -0.00000404
O        3.75964329       0.97621605       3.76478542      -0.00016785       0.00023675       0.00028980
O        2.17359963       3.21922075       6.51189290       0.00016510      -0.00023472      -0.00029361
O        2.17360010       3.21922028       3.76478516       0.00017047      -0.00023901       0.00028920
O        3.75964331       0.97621652       6.51189310      -0.00017035       0.00023723      -0.00028920
