9
Lattice="5.507365478646169 -2.9153527823139143e-08 3.1796787781492912 1.8357883911711148 5.192394072822039 3.1796789067102753 -1.4884381108875866e-07 5.220594910455788e-08 6.359357814103608" Properties=species:S:1:pos:R:3:forces:R:3 energy=-36.63352966308594 free_energy=-36.63352966308594 stress="-5.877083367522573e-06 -3.84440852485568e-08 4.594709324123869e-08 -3.84440852485568e-08 -5.730019438487943e-06 4.366789596588205e-08 4.594709324123869e-08 4.366789596588205e-08 -5.90082299822825e-06" pbc="T T T"
Ge       1.83578968       1.29809954       3.17967851       0.00001013       0.00000876      -0.00000215
Ge       5.50736544       3.89429447       9.53903812      -0.00000072      -0.00000781       0.00000719
P       -0.00000017       0.00000014      -0.00000025      -0.00000683       0.00000021       0.00000124
S        1.76529448       1.24825228       6.35935792      -0.00153971      -0.00108337       0.00000134
S        5.57785901       3.94414192       6.35935714       0.00153935       0.00108939      -0.00000328
S        4.62471780       1.24825277       4.70846846       0.00076973      -0.00108379      -0.00134039
S        2.71843527       3.94414150       8.01024678      -0.00077093       0.00108153       0.00133252
S        2.71843583       3.94414184       4.70846864      -0.00076807       0.00108480      -0.00133324
S        4.62471727       1.24825196       8.01024675       0.00076723      -0.00108957       0.00133646
