9
Lattice="4.500966030457816 -1.6132974218693158e-08 2.5986338757502008 1.5003219903510057 4.243551455054727 2.5986338837025906 -9.811554231124373e-09 2.8018125515172733e-09 5.197267768494495" Properties=species:S:1:pos:R:3:forces:R:3 energy=-46.867279052734375 free_energy=-46.867279052734375 stress="0.00013736190157942474 -3.209688514971276e-08 1.7829073328812228e-08 -3.209688514971276e-08 0.00013730718637816608 1.136315397332055e-08 1.7829073328812228e-08 1.136315397332055e-08 0.00013733199739363045" pbc="T T T"
Ge       1.50032200       1.06088779       2.59863390      -0.00000014       0.00000063       0.00000014
Ge       4.50096592       3.18266339       7.79590191      -0.00000052      -0.00000055       0.00000185
Rh      -0.00000018      -0.00000001       0.00000020       0.00000592       0.00000073       0.00000195
O        1.56812230       1.10882993       5.19726764       0.00008813       0.00006253      -0.00000148
O        4.43316589       3.13472158       5.19726740      -0.00009248      -0.00006643       0.00000010
O        3.71690500       1.10883003       3.95666767      -0.00004402       0.00006121       0.00007784
O        2.28438325       3.13472162       6.43786785       0.00004376      -0.00006169      -0.00007737
O        2.28438319       3.13472155       3.95666757       0.00004402      -0.00006178       0.00007552
O        3.71690475       1.10882993       6.43786803      -0.00004481       0.00006464      -0.00007883
