9
Lattice="5.651431102597488 2.0357357095575356e-08 3.262855275492245 1.8838103779884932 5.328220391937168 3.262855290625349 -7.523786283826414e-09 1.3214072242578057e-08 6.525710564016067" Properties=species:S:1:pos:R:3:forces:R:3 energy=-38.94557189941406 free_energy=-38.94557189941406 stress="-0.0003298630763310939 2.150721734039962e-08 1.9665120642997636e-09 2.150721734039962e-08 -0.0003298844676464796 1.8512873456444368e-09 1.9665120642997636e-09 1.8512873456444368e-09 -0.00032987174927257" pbc="T T T"
Ge       1.88381039       1.33205514       3.26285519       0.00000030      -0.00000034       0.00000035
Ge       5.65143111       3.99616528       9.78856584      -0.00000012       0.00000039      -0.00000151
Ru       0.00000004      -0.00000000      -0.00000003      -0.00000005      -0.00000004       0.00000048
Se       1.98550842       1.40396657       6.52571060      -0.00081450      -0.00057620      -0.00000004
Se       5.54973300       3.92425387       6.52571061       0.00081444       0.00057620       0.00000066
Se       4.65867690       1.40396653       4.98235604       0.00040714      -0.00057617      -0.00070523
Se       2.87656458       3.92425384       8.06906511      -0.00040692       0.00057551       0.00070512
Se       2.87656456       3.92425392       4.98235602      -0.00040777       0.00057562      -0.00070490
Se       4.65867690       1.40396653       8.06906517       0.00040750      -0.00057511       0.00070499
