9
Lattice="4.6486629562008455 -1.0253448706728997e-07 2.6839066943463474 1.5495542409407168 4.382801134436542 2.6839066616494556 2.5814407553659224e-08 -2.1791795893203683e-08 5.367813343980809" Properties=species:S:1:pos:R:3:forces:R:3 energy=-51.21233367919922 free_energy=-51.21233367919922 stress="-2.135196336894296e-05 5.270571978854832e-09 -3.1960656343699156e-08 5.270571978854832e-09 -2.1364714484661818e-05 6.822137521567129e-09 -3.1960656343699156e-08 6.822137521567129e-09 -2.1368396119214594e-05" pbc="T T T"
Ge       1.54955378       1.09570013       2.68390626      -0.00000362       0.00000119      -0.00000336
Ge       4.64866244       3.28710078       8.05171968      -0.00000522      -0.00000137      -0.00000291
Ru      -0.00000024       0.00000030      -0.00000011      -0.00000067      -0.00000402      -0.00000514
O        1.50635463       1.06515343       5.36781366      -0.00032517      -0.00023228       0.00000267
O        4.69186271       3.31764718       5.36781356       0.00033018       0.00023113       0.00000008
O        3.89548619       1.06515301       3.98844842       0.00016394      -0.00022751      -0.00027350
O        2.30273171       3.31764775       6.74717857      -0.00016326       0.00023273       0.00028178
O        2.30273186       3.31764750       3.98844746      -0.00015974       0.00022821      -0.00028151
O        3.89548564       1.06515409       6.74717919       0.00016363      -0.00022835       0.00028196
