9
Lattice="5.376756310075111 1.4570931005123146e-08 3.1042716758697133 1.7922521148402044 5.069254459389803 3.104271679776795 4.464644625354875e-08 3.63550442636337e-08 6.2085432744094735" Properties=species:S:1:pos:R:3:forces:R:3 energy=-40.837318420410156 free_energy=-40.837318420410156 stress="0.00016605766722932458 1.3083307770500596e-08 1.3180613933627683e-08 1.3083307770500596e-08 0.00016610004240646958 -8.708305188065424e-09 1.3180613933627683e-08 -8.708305188065424e-09 0.00016605750715825707" pbc="T T T"
Ge       1.79225161       1.26731415       3.10427167      -0.00000407       0.00000315      -0.00000014
Ge       5.37675674       3.80194106       9.31281487       0.00000102       0.00000267      -0.00000086
Ru      -0.00000061       0.00000016       0.00000007      -0.00000357       0.00000119      -0.00000133
S        1.87060534       1.32271770       6.20854318      -0.00241899      -0.00171217       0.00000042
S        5.29840386       3.74653665       6.20854336       0.00242168       0.00170794       0.00000090
S        4.44145385       1.32271736       4.72426323       0.00121093      -0.00171149      -0.00209290
S        2.72755449       3.74653692       7.69282330      -0.00120899       0.00170946       0.00209481
S        2.72755477       3.74653679       4.72426357      -0.00120959       0.00171122      -0.00209576
S        4.44145397       1.32271732       7.69282318       0.00121176      -0.00171208       0.00209504
