9
Lattice="5.6401251739571885 6.069438046036131e-08 3.256327649472638 1.8800417605915116 5.317561147515238 3.2563276863378325 -1.8481590238243757e-08 3.208187141164089e-08 6.512655330956573" Properties=species:S:1:pos:R:3:forces:R:3 energy=-37.198577880859375 free_energy=-37.198577880859375 stress="0.00023865936964284629 8.028576559127032e-08 -3.3226015716536494e-08 8.028576559127032e-08 0.00023859234352130443 4.668121889039867e-08 -3.3226015716536494e-08 4.668121889039867e-08 0.0002385371772106737" pbc="T T T"
Ge       1.88004069       1.32938909       3.25632862      -0.00000230      -0.00000367       0.00000463
Ge       5.64012683       3.98817191       9.76898220       0.00000603       0.00000203      -0.00000459
Rh       0.00000029       0.00000058      -0.00000004      -0.00000548      -0.00000664       0.00000076
Se       1.98834577       1.40597301       6.51265501      -0.00568157      -0.00401708      -0.00000110
Se       5.53182034       3.91158808       6.51265589       0.00568579       0.00402275       0.00000140
Se       4.64595240       1.40597226       4.97828574       0.00284007      -0.00401848      -0.00491686
Se       2.87421429       3.91158896       8.04702480      -0.00284106       0.00401926       0.00491710
Se       2.87421372       3.91158847       4.97828521      -0.00284122       0.00401556      -0.00491518
Se       4.64595323       1.40597247       8.04702522       0.00283965      -0.00401365       0.00491384
