9
Lattice="5.404963400381007 -4.093398510530571e-08 3.120557007413289 1.8016544192192476 5.095848305170773 3.12055702296966 -2.136981121625799e-08 3.941860281074997e-09 6.241114051840171" Properties=species:S:1:pos:R:3:forces:R:3 energy=-39.275333404541016 free_energy=-39.275333404541016 stress="9.719408262753859e-05 -1.2769930890499381e-08 3.812573812211895e-09 -1.2769930890499381e-08 9.722311369841918e-05 -7.586091754774316e-09 3.812573812211895e-09 -7.586091754774316e-09 9.720698290038854e-05" pbc="T T T"
Ge       1.80165457       1.27396171       3.12055687      -0.00000015      -0.00000114      -0.00000048
Ge       5.40496365       3.82188611       9.36167138       0.00000089       0.00000149       0.00000177
Rh       0.00000010      -0.00000003       0.00000018      -0.00000020       0.00000033      -0.00000207
S        1.86044301       1.31553187       6.24111403      -0.00016737      -0.00011903       0.00000034
S        5.34617489       3.78031665       6.24111388       0.00016701       0.00011858      -0.00000028
S        4.47474185       1.31553180       4.73174782       0.00008434      -0.00011799      -0.00014442
S        2.73187561       3.78031648       7.75048025      -0.00008458       0.00011903       0.00014597
S        2.73187587       3.78031667       4.73174793      -0.00008455       0.00011879      -0.00014633
S        4.47474170       1.31553189       7.75047995       0.00008473      -0.00012007       0.00014532
