9
Lattice="5.476878004755598 -3.091946127170188e-08 3.162076967262851 1.8256259801184451 5.1636499329972345 3.1620769539530396 9.095421874032528e-09 -9.86966043238693e-09 6.324153918771952" Properties=species:S:1:pos:R:3:forces:R:3 energy=-45.55699920654297 free_energy=-45.55699920654297 stress="0.00015839056868571788 -2.6170337008579736e-08 -2.5899101530058033e-08 -2.6170337008579736e-08 0.00015838250692468137 -4.6933812392069285e-09 -2.5899101530058033e-08 -4.6933812392069285e-09 0.0001584274141350761" pbc="T T T"
Ge       1.82562599       1.29091267       3.16207674      -0.00000134      -0.00000063      -0.00000044
Ge       5.47687783       3.87273754       9.48623143      -0.00000151       0.00000017       0.00000331
Ta      -0.00000010      -0.00000002      -0.00000001       0.00000007       0.00000130      -0.00000276
S        1.93497571       1.36823436       6.32415404      -0.00028554      -0.00020222      -0.00000182
S        5.36752830       3.79541556       6.32415382       0.00028458       0.00020078      -0.00000147
S        4.50939025       1.36823431       4.83781506       0.00014296      -0.00020196      -0.00024974
S        2.79311393       3.79541533       7.81049268      -0.00014365       0.00020456       0.00024915
S        2.79311402       3.79541554       4.83781498      -0.00014082       0.00020164      -0.00024673
S        4.50939004       1.36823428       7.81049264       0.00014544      -0.00020353       0.00025034
