9
Lattice="4.627589876783294 -2.7843513472457843e-08 2.671740242183497 1.5425299582014758 4.362933315306333 2.6717401979732083 3.906223527750045e-08 -2.6525181862941545e-08 5.343480416709226" Properties=species:S:1:pos:R:3:forces:R:3 energy=-57.781272888183594 free_energy=-57.781272888183594 stress="0.00012499491276685148 4.602761904948238e-08 -4.623874261255878e-08 4.602761904948238e-08 0.00012517540017142892 4.851835200270216e-08 -4.623874261255878e-08 4.851835200270216e-08 0.0001250144123332575" pbc="T T T"
Ge       1.54253029       1.09073344       2.67174058       0.00000089       0.00000255       0.00000498
Ge       4.62758885       3.27220017       8.01522129      -0.00000920       0.00000092       0.00000832
Ta      -0.00000002      -0.00000009      -0.00000009       0.00000408       0.00000128       0.00000014
O        1.61525839       1.14216011       5.34348024      -0.00088835      -0.00062901      -0.00000396
O        4.55486196       3.22077283       5.34348026       0.00088859       0.00062466      -0.00000234
O        3.81996070       1.14215980       4.07059483       0.00044292      -0.00062841      -0.00076872
O        2.35015923       3.22077343       6.61636582      -0.00044054       0.00062847       0.00076449
O        2.35015986       3.22077326       4.07059446      -0.00043684       0.00062537      -0.00077003
O        3.81996028       1.14216006       6.61636620       0.00044000      -0.00062627       0.00076777
