9
Lattice="6.222718336305498 2.257516234567468e-07 3.5926879499309576 2.074239639281543 5.866835139116178 3.592687982830068 -9.744611747289263e-09 3.340251800732222e-08 7.185375916740088" Properties=species:S:1:pos:R:3:forces:R:3 energy=-37.98727798461914 free_energy=-37.98727798461914 stress="8.44985042931512e-05 6.333393542945487e-08 -3.3050498449149757e-10 6.333393542945487e-08 8.445535786449909e-05 -2.2888691830758034e-08 -3.3050498449149757e-10 -2.2888691830758034e-08 8.441654790658504e-05" pbc="T T T"
Ge       2.07423923       1.46670881       3.59268810      -0.00000154      -0.00000014      -0.00000074
Ge       6.22271875       4.40012699      10.77806352       0.00000091       0.00000264      -0.00000107
Ta       0.00000043      -0.00000004      -0.00000076      -0.00000362       0.00000143       0.00000690
Te       2.20991723       1.56264740       7.18537609      -0.00581972      -0.00411464       0.00000054
Te       6.08704044       4.30418774       7.18537616       0.00582166       0.00411639       0.00000029
Te       5.11775998       1.56264698       5.50653201       0.00290890      -0.00411366      -0.00503722
Te       3.17919781       4.30418841       8.86422018      -0.00290594       0.00410824       0.00503227
Te       3.17919782       4.30418827       5.50653196      -0.00290903       0.00411220      -0.00503625
Te       5.11776017       1.56264703       8.86422009       0.00290831      -0.00411250       0.00503525
