9
Lattice="5.665101071827259 -2.5636852840298343e-08 3.270747650919767 1.8883669810236958 5.341108547396796 3.2707476833923743 -1.4693667094343225e-09 3.873165785078786e-08 6.541495304384552" Properties=species:S:1:pos:R:3:forces:R:3 energy=-42.14955139160156 free_energy=-42.14955139160156 stress="0.00033482766593806446 -2.5978271978033263e-08 -3.227326850208101e-09 -2.5978271978033263e-08 0.00033484125742688775 -2.4641295226501825e-08 -3.227326850208101e-09 -2.4641295226501825e-08 0.000334823940647766" pbc="T T T"
Ge       1.88836660       1.33527734       3.27074718      -0.00000017       0.00000238      -0.00000313
Ge       5.66510104       4.00583153       9.81224282       0.00000139       0.00000184      -0.00000351
Ta       0.00000014      -0.00000004       0.00000050      -0.00000038       0.00000006      -0.00000221
Se       2.03567242       1.43943775       6.54149527      -0.00791031      -0.00559458       0.00000144
Se       5.51779572       3.90167061       6.54149523       0.00790901       0.00559227       0.00000169
Se       4.64726502       1.43943783       5.03369197       0.00395667      -0.00559455      -0.00684827
Se       2.90620336       3.90167059       8.04929882      -0.00395554       0.00559295       0.00685282
Se       2.90620320       3.90167076       5.03369191      -0.00395704       0.00559458      -0.00685143
Se       4.64726473       1.43943787       8.04929886       0.00395632      -0.00559499       0.00685279
