9
Lattice="3.8719194482449897 -8.653269278926945e-07 2.2354530961886185 1.2906391313704637 3.6504775796334736 2.2354528690718762 -4.1997493609124237e-07 -5.751274457389395e-07 4.4709069197954845" Properties=species:S:1:pos:R:3:forces:R:3 energy=-82.48100280761719 free_energy=-82.48100280761719 stress="0.0005259191384539008 -2.4158851374522783e-05 -1.6079144188552164e-05 -2.4158851374522783e-05 0.000368471082765609 -1.1795140380854718e-05 -1.6079144188552164e-05 -1.1795140380854718e-05 0.0004595462523866445" pbc="T T T"
Hf       1.29063070       0.91264050       2.23544511       0.00184531      -0.00455798       0.00176635
Hf       3.87193674       2.73783217       6.70636462      -0.00383722       0.00527431      -0.00105824
As       0.00013092      -0.00004261      -0.00004565       0.00205360      -0.00063020      -0.00068396
N        1.32512916       0.93707202       4.47092688       0.00493526       0.00122118      -0.00033970
N        3.83740960       2.71349063       4.47092031      -0.00400448       0.00128281       0.00099345
N        3.20933148       0.93700471       3.38303485      -0.00324833      -0.00044370       0.00141549
N        1.95318086       2.71342968       5.55872253       0.00331843      -0.00164020      -0.00406432
N        1.95316978       2.71345408       3.38309820       0.00200188      -0.00140858       0.00371814
N        3.20931293       0.93702312       5.55878570      -0.00305963       0.00090110      -0.00175023
