9
Lattice="4.2128746805315425 7.261148997420108e-08 2.4323043647590556 1.4042915817836688 3.9719366465217147 2.432304445909586 -4.145208048581271e-08 7.007765451582871e-08 4.864608801315218" Properties=species:S:1:pos:R:3:forces:R:3 energy=-67.99971771240234 free_energy=-67.99971771240234 stress="5.716538362321444e-05 -9.474356232885839e-08 4.825661292784389e-08 -9.474356232885839e-08 5.738805703003891e-05 -6.546854169897642e-09 4.825661292784389e-08 -6.546854169897642e-09 5.750407945015468e-05" pbc="T T T"
Hf       1.40429169       0.99298372       2.43230456      -0.00000184      -0.00000029      -0.00000166
Hf       4.21287461       2.97895242       7.29691317       0.00000129      -0.00000044      -0.00000040
Ga      -0.00000013       0.00000001      -0.00000014       0.00000291      -0.00000364       0.00000856
N        1.50757002       1.06601326       4.86460883       0.00040251       0.00028408       0.00000028
N        4.10959608       2.90592402       4.86460889      -0.00040656      -0.00028569      -0.00000084
N        3.45908941       1.06601309       3.73789864      -0.00020021       0.00028300       0.00034583
N        2.15807673       2.90592366       5.99131897       0.00020134      -0.00028223      -0.00034785
N        2.15807682       2.90592351       3.73789853       0.00020075      -0.00028014       0.00034446
N        3.45908968       1.06601334       5.99131900      -0.00020078       0.00028580      -0.00034922
