9
Lattice="4.430003139832348 -3.748290144489821e-08 2.5576633368470274 1.4766679466070323 4.176646263198725 2.5576628714989806 4.625480720714738e-07 -2.42861716889413e-07 5.115325872537226" Properties=species:S:1:pos:R:3:forces:R:3 energy=-65.31055450439453 free_energy=-65.31055450439453 stress="0.0001356096618110314 -4.03346263055937e-07 3.154583794184873e-08 -4.03346263055937e-07 0.0001356419816147536 -4.526962626982822e-08 3.154583794184873e-08 -4.526962626982822e-08 0.0001359512680210173" pbc="T T T"
Hf       1.47666650       1.04416173       2.55766336      -0.00000739      -0.00000499       0.00000228
Hf       4.43000349       3.13248276       7.67298959      -0.00000797      -0.00001276       0.00000865
Sb      -0.00000008      -0.00000014       0.00000034       0.00000016       0.00001040      -0.00001091
N        1.60882260       1.13760956       5.11532513      -0.00148070      -0.00102943      -0.00000889
N        4.29784859       3.03903695       5.11532604       0.00146806       0.00103462       0.00000045
N        3.62559356       1.13761055       3.95094486       0.00075692      -0.00102711      -0.00126719
N        2.28108000       3.03903671       6.27970759      -0.00073326       0.00103843       0.00127316
N        2.28107991       3.03903640       3.95094367      -0.00073832       0.00103354      -0.00127816
N        3.62559220       1.13760926       6.27970796       0.00074190      -0.00104249       0.00128055
