9
Lattice="5.7157380420630455 -8.428291795391897e-07 3.2999843888149503 1.9052448332560898 5.3888457714245686 3.2999850576256438 -1.102083962347271e-06 3.983166617213e-08 6.599970686495299" Properties=species:S:1:pos:R:3:forces:R:3 energy=-25.090526580810547 free_energy=-25.090526580810547 stress="-0.00011576627002796158 -1.4192106334576238e-07 -8.893927372355392e-08 -1.4192106334576238e-07 -0.00011576563701964915 2.7130322433066567e-09 -8.893927372355392e-08 2.7130322433066567e-09 -0.00011541821004357189" pbc="T T T"
Hg       1.90524419       1.34720860       3.29998575       0.00000341       0.00001033       0.00000432
Hg       5.71573837       4.04163642       9.89995430      -0.00000736      -0.00000304       0.00001230
As      -0.00000455      -0.00000512       0.00000834       0.00001750       0.00001799      -0.00003078
Se       2.24459712       1.58717019       6.59996785      -0.00461450      -0.00327289      -0.00000842
Se       5.37638641       3.80167786       6.59996726       0.00461668       0.00325373      -0.00001545
Se       4.59344162       1.58716748       5.24386667       0.00229438      -0.00324851      -0.00399157
Se       3.02755120       3.80166721       7.95606560      -0.00233299       0.00328800       0.00403193
Se       3.02754106       3.80167824       5.24386820      -0.00229725       0.00324643      -0.00400996
Se       4.59343368       1.58717912       7.95607234       0.00232030      -0.00329185       0.00400767
