9
Lattice="4.702114614716912 -1.7592858318310492e-07 2.7147669221592654 1.5673714954325186 4.433195324693055 2.714766709011942 1.3798132545694316e-07 -1.6348341779489295e-07 5.429533605327891" Properties=species:S:1:pos:R:3:forces:R:3 energy=-35.47651672363281 free_energy=-35.47651672363281 stress="5.3627740271622315e-05 -1.180550324164642e-08 -5.953096682276282e-09 -1.180550324164642e-08 5.369449718273245e-05 3.333423137519276e-08 -5.953096682276282e-09 3.333423137519276e-08 5.3926756663713604e-05" pbc="T T T"
Hg       1.56737179       1.10829869       2.71476683       0.00000065       0.00000017      -0.00000019
Hg       4.70211444       3.32489612       8.14430065      -0.00000021       0.00000026       0.00000031
As       0.00000008       0.00000024       0.00000016       0.00000017      -0.00000187       0.00000121
O        1.50669189       1.06539172       5.42953351      -0.00000393      -0.00000036      -0.00000066
O        4.76279453       3.36780325       5.42953341       0.00000274       0.00000083       0.00000104
O        3.94876847       1.06539166       4.01960026       0.00000179      -0.00000250      -0.00000346
O        2.32071743       3.36780359       6.83946717      -0.00000095       0.00000131       0.00000250
O        2.32071762       3.36780348       4.01959976      -0.00000048       0.00000131      -0.00000215
O        3.94876862       1.06539121       6.83946714       0.00000012       0.00000083       0.00000155
