9
Lattice="5.650001923150932 2.415082709691696e-07 3.262030129602956 1.8833341399904044 5.326873348393905 3.262030237145086 6.585204827685398e-08 1.7827603933231708e-07 6.52406014514684" Properties=species:S:1:pos:R:3:forces:R:3 energy=-24.772052764892578 free_energy=-24.772052764892578 stress="3.0470933779724874e-05 5.063855113007776e-08 -1.5999825464518835e-08 5.063855113007776e-08 3.041416493942961e-05 -1.4257439673315275e-08 -1.5999825464518835e-08 -1.4257439673315275e-08 3.044053664780222e-05" pbc="T T T"
Hg       1.88333405       1.33171792       3.26203056      -0.00000005      -0.00000087       0.00000080
Hg       5.65000201       3.99515619       9.78608952      -0.00000007       0.00000127      -0.00000065
As       0.00000104      -0.00000020       0.00000016      -0.00001985       0.00000257      -0.00000515
S        1.92246497       1.35938754       6.52406094      -0.00206381      -0.00145876       0.00000143
S        5.61087015       3.96748491       6.52406124       0.00207752       0.00146943       0.00000171
S        4.68876931       1.35938800       4.92693305       0.00103441      -0.00146401      -0.00179583
S        2.84456638       3.96748618       8.12118711      -0.00103435       0.00146097       0.00178790
S        2.84456619       3.96748631       4.92693275      -0.00103146       0.00145715      -0.00178587
S        4.68877027       1.35938788       8.12118666       0.00103766      -0.00146782       0.00179553
