9
Lattice="5.716598821712932 -7.420378182818245e-08 3.3004798137424403 1.9055328804331257 5.3896610280541095 3.3004797967300146 -1.0024297387115365e-07 -9.171847575023307e-08 6.600959801110861" Properties=species:S:1:pos:R:3:forces:R:3 energy=-25.09052085876465 free_energy=-25.09052085876465 stress="0.00021517174900509417 -1.772627933327442e-09 -5.8601412611380965e-09 -1.772627933327442e-09 0.00021513787214644253 -2.0564387970267717e-09 -5.8601412611380965e-09 -2.0564387970267717e-09 0.00021514638501685113" pbc="T T T"
Hg       1.90553294       1.34741509       3.30047997      -0.00000024       0.00000169      -0.00000085
Hg       5.71659907       4.04224588       9.90143941      -0.00000043      -0.00000076      -0.00000052
As      -0.00000029      -0.00000036       0.00000002       0.00000103       0.00000166      -0.00000060
Se       2.24464916       1.58720623       6.60095938       0.00412872       0.00291932       0.00000073
Se       5.37748225       3.80245442       6.60095960      -0.00412843      -0.00292042       0.00000170
Se       4.59427432       1.58720645       5.24440259      -0.00206435       0.00292027       0.00357595
Se       3.02785683       3.80245492       7.95751686       0.00206420      -0.00292230      -0.00357637
Se       3.02785743       3.80245461       5.24440305       0.00206463      -0.00292012       0.00357595
Se       4.59427459       1.58720618       7.95751678      -0.00206515       0.00292066      -0.00357610
