9
Lattice="4.7017154202957245 -1.2152452798381773e-07 2.714536913728619 1.5672383449358447 4.432819590228098 2.7145369378416095 -1.5686747073056222e-07 -8.138976759165274e-08 5.4290740991596" Properties=species:S:1:pos:R:3:forces:R:3 energy=-35.47651672363281 free_energy=-35.47651672363281 stress="-5.049270475865342e-05 5.593275531623476e-08 7.012453551169529e-08 5.593275531623476e-08 -5.060739567852579e-05 -1.535262406093807e-08 7.012453551169529e-08 -1.535262406093807e-08 -5.066310768597759e-05" pbc="T T T"
Hg       1.56723846       1.10820466       2.71453688      -0.00000127      -0.00000090       0.00000061
Hg       4.70171520       3.32461467       8.14361087       0.00000088       0.00000034      -0.00000023
As      -0.00000018      -0.00000017      -0.00000018       0.00000378      -0.00000292      -0.00000176
O        1.50669092       1.06539181       5.42907399      -0.00062144      -0.00044000      -0.00000074
O        4.76226202       3.36742801       5.42907418       0.00062060       0.00043941      -0.00000005
O        3.94836989       1.06539154       4.01937021       0.00031054      -0.00043643      -0.00053525
O        2.32058402       3.36742764       6.83877768      -0.00031316       0.00043964       0.00054252
O        2.32058408       3.36742780       4.01937052      -0.00031155       0.00044072      -0.00054204
O        3.94836958       1.06539151       6.83877788       0.00031024      -0.00043976       0.00053620
