9
Lattice="6.000359277422761 -3.8055788277275645e-08 3.4643090115972703 2.0001198061310044 5.657192823205224 3.4643088680632097 2.508810044736766e-07 1.606957631013673e-09 6.928617588656007" Properties=species:S:1:pos:R:3:forces:R:3 energy=-24.176067352294922 free_energy=-24.176067352294922 stress="1.8399867258267477e-05 -1.537461602474366e-09 -1.844377095494565e-08 -1.537461602474366e-09 1.8410044503980316e-05 1.1468235250333692e-08 -1.844377095494565e-08 1.1468235250333692e-08 1.8431106582283974e-05" pbc="T T T"
Hg       2.00011966       1.41429810       3.46430881       0.00000057      -0.00000012      -0.00000076
Hg       6.00035883       4.24289459      10.39292732      -0.00000037       0.00000005      -0.00000101
Bi      -0.00000013      -0.00000018       0.00000000       0.00000103       0.00000083      -0.00000025
Se       2.43322829       1.72055224       6.92861709      -0.00013629      -0.00009680       0.00000143
Se       5.56725337       3.93664198       6.92861744       0.00012469       0.00008807       0.00000178
Se       4.78374506       1.72055148       5.57154595       0.00006993      -0.00009391      -0.00011584
Se       3.21673315       3.93664128       8.28568947      -0.00006254       0.00009464       0.00011510
Se       3.21673332       3.93664083       5.57154566      -0.00006507       0.00009750      -0.00011533
Se       4.78374577       1.72055090       8.28569012       0.00006804      -0.00009026       0.00011486
