9
Lattice="5.8075645436637435 2.140620723867698e-07 3.3529988256041374 1.9358550487212896 5.475423973241959 3.352998827312355 9.466057643183684e-09 8.785694777704326e-09 6.705997634812622" Properties=species:S:1:pos:R:3:forces:R:3 energy=-22.957122802734375 free_energy=-22.957122802734375 stress="-0.00010985622793668881 7.610602636987096e-08 -7.857649819698054e-08 7.610602636987096e-08 -0.00010996956552844495 1.2094389489902824e-07 -7.857649819698054e-08 1.2094389489902824e-07 -0.00010996757919201627" pbc="T T T"
Hg       1.93585437       1.36885685       3.35299891      -0.00000058       0.00000126       0.00000115
Hg       5.80756461       4.10656736      10.05899546       0.00000046      -0.00000176      -0.00000113
Bi       0.00000081       0.00000003       0.00000199      -0.00001036      -0.00000044      -0.00003891
S        2.02973880       1.43524239       6.70599747      -0.00237504      -0.00167879       0.00000091
S        5.71368059       4.04018219       6.70599753       0.00238276       0.00168278       0.00000014
S        4.79269530       1.43524206       5.11080411       0.00118481      -0.00167438      -0.00204927
S        2.95072490       4.04018195       8.30119062      -0.00119314       0.00168828       0.00206725
S        2.95072344       4.04018207       5.11080324      -0.00117857       0.00166628      -0.00204250
S        4.79269567       1.43524185       8.30119198       0.00118981      -0.00168318       0.00206242
