9
Lattice="6.000236609431167 1.7890621337310554e-09 3.4642379694738463 2.000078795460506 5.657077666205849 3.4642381011728576 9.539487854017588e-09 1.6804329332119132e-07 6.9284759224246795" Properties=species:S:1:pos:R:3:forces:R:3 energy=-24.176069259643555 free_energy=-24.176069259643555 stress="1.9113291273242794e-05 8.315436339501048e-09 -5.073944375766359e-09 8.315436339501048e-09 1.9134928152197972e-05 3.5407403231602075e-08 -5.073944375766359e-09 3.5407403231602075e-08 1.9122997400700115e-05" pbc="T T T"
Hg       2.00007919       1.41427013       3.46423776       0.00000132       0.00000058       0.00000118
Hg       6.00023661       4.24280809      10.39271452       0.00000049       0.00000213      -0.00000064
Bi       0.00000081       0.00000029       0.00000247      -0.00000180      -0.00000041      -0.00001048
Se       2.43311062       1.72046996       6.92847636       0.00074616       0.00052214      -0.00000046
Se       5.56720004       3.93660626       6.92847596      -0.00072640      -0.00051813       0.00000024
Se       4.78368145       1.72047062       5.57137432      -0.00037417       0.00052030       0.00064453
Se       3.21663695       3.93660659       8.28557442       0.00036094      -0.00051843      -0.00062880
Se       3.21663547       3.93660794       5.57137546       0.00036518      -0.00052534       0.00063601
Se       4.78368065       1.72047149       8.28557672      -0.00037169       0.00051720      -0.00064155
