9
Lattice="5.532048968549463 4.1428156985905886e-07 3.1939309427929397 1.8440165326851652 5.215667450995378 3.193931255866519 2.566142257687205e-07 5.648888817759313e-07 6.387861441117066" Properties=species:S:1:pos:R:3:forces:R:3 energy=-27.267724990844727 free_energy=-27.267724990844727 stress="-0.00015442617586813867 -3.6138320780310096e-08 -1.315070718987954e-08 -3.6138320780310096e-08 -0.00015440242714248598 9.857147098557562e-09 -1.315070718987954e-08 9.857147098557562e-09 -0.00015442392032127827" pbc="T T T"
Hg       1.84401710       1.30391761       3.19393100       0.00000075       0.00000017       0.00000049
Hg       5.53204918       3.91175153       9.58179371      -0.00000004       0.00000037       0.00000060
B       -0.00000039      -0.00000008       0.00000006       0.00000312      -0.00000057      -0.00000217
S        1.64302786       1.16179791       6.38786123       0.00202656       0.00143325      -0.00000172
S        5.73303743       4.05387074       6.38786112      -0.00202596      -0.00143313      -0.00000186
S        4.71053536       1.16179692       4.61683597      -0.00101319       0.00142854       0.00175309
S        2.66553150       4.05386998       8.15888809       0.00101030      -0.00142759      -0.00174850
S        2.66553061       4.05387075       4.61683630       0.00101110      -0.00143075       0.00175178
S        4.71053434       1.16179827       8.15888794      -0.00101203       0.00142968      -0.00175214
