9
Lattice="6.687462504016879 5.4788543517052474e-08 3.8610082854871446 2.229154201032164 6.3050003660910665 3.861008317752738 -6.458161824751162e-09 3.495056209377706e-08 7.722016582159991" Properties=species:S:1:pos:R:3:forces:R:3 energy=-21.118043899536133 free_energy=-21.118043899536133 stress="-8.790400897851214e-06 -6.065441482405731e-09 -5.039875738965804e-10 -6.065441482405731e-09 -8.814033208182082e-06 1.2545209315817374e-09 -5.039875738965804e-10 1.2545209315817374e-09 -8.796436304692179e-06" pbc="T T T"
Hg       2.22915427       1.57625006       3.86100823      -0.00000013       0.00000010      -0.00000038
Hg       6.68746245       4.72875034      11.58302479       0.00000011      -0.00000023      -0.00000016
Bi      -0.00000019      -0.00000016      -0.00000128       0.00000033      -0.00000017      -0.00000114
Te       2.55826081       1.80896342       7.72201624       0.00165731       0.00117204      -0.00000000
Te       6.35835636       4.49603734       7.72201617      -0.00165731      -0.00117175      -0.00000071
Te       5.40833161       1.80896383       6.07652754      -0.00082906       0.00117233       0.00143562
Te       3.50828380       4.49603796       9.36750673       0.00082763      -0.00117129      -0.00143462
Te       3.50828509       4.49603641       6.07652756       0.00082903      -0.00117177       0.00143558
Te       5.40833259       1.80896265       9.36750676      -0.00082789       0.00117077      -0.00143424
