9
Lattice="6.687488238317497 -1.369150647636528e-07 3.8610232620902862 2.2291626051521436 6.3050238090124395 3.861023282647662 6.465264997277901e-08 7.089401456157674e-08 7.722046412198774" Properties=species:S:1:pos:R:3:forces:R:3 energy=-21.118038177490234 free_energy=-21.118038177490234 stress="1.2155595641161199e-06 -3.254031355481857e-08 1.1878313443958177e-08 -3.254031355481857e-08 1.2907922837257502e-06 -2.2399243349013886e-08 1.1878313443958177e-08 -2.2399243349013886e-08 1.260175167772104e-06" pbc="T T T"
Hg       2.22916262       1.57625592       3.86102301      -0.00000020      -0.00000013      -0.00000044
Hg       6.68748801       4.72876773      11.58306972      -0.00000008       0.00000034      -0.00000065
Bi      -0.00000069       0.00000009      -0.00000187       0.00000019       0.00000061       0.00000215
Te       2.55790163       1.80871038       7.72204615       0.00362597       0.00256495      -0.00000124
Te       6.35874980       4.49631396       7.72204658      -0.00362444      -0.00256382      -0.00000064
Te       5.40853668       1.80871104       6.07623219      -0.00181331       0.00256401       0.00313854
Te       3.50811354       4.49631385       9.36786140       0.00181152      -0.00256303      -0.00313838
Te       3.50811454       4.49631182       6.07623315       0.00181206      -0.00256459       0.00313838
Te       5.40853756       1.80871019       9.36786156      -0.00181165       0.00256169      -0.00313772
