9
Lattice="7.077849711323803 2.9677126401352056e-06 4.086399644231895 2.359286524633437 6.67305419099184 4.0863987963233415 4.2894883698707756e-07 -7.351580897219662e-07 8.172798545502198" Properties=species:S:1:pos:R:3:forces:R:3 energy=-23.10255241394043 free_energy=-23.10255241394043 stress="-0.00014411240408662707 2.944516950265097e-07 1.2485047307109198e-07 2.944516950265097e-07 -0.00014414307952392846 -1.149766930552687e-07 1.2485047307109198e-07 -1.149766930552687e-07 -0.0001449585979571566" pbc="T T T"
Hg       2.35928611       1.66826604       4.08639853       0.00000205       0.00000283      -0.00000156
Hg       7.07785011       5.00478860      12.25919671      -0.00000151      -0.00000182      -0.00000073
B        0.00000566       0.00000043      -0.00000560      -0.00005997      -0.00001596       0.00010332
Te       1.81675547       1.28463630       8.17279981       0.00427591       0.00301748       0.00001086
Te       7.62037900       5.38841978       8.17280036      -0.00421076      -0.00296760       0.00001372
Te       6.16947374       1.28462979       5.65975337      -0.00213185       0.00299114       0.00370874
Te       3.26765383       5.38842908      10.68584473       0.00217441      -0.00307865      -0.00378867
Te       3.26766054       5.38842480       5.65975692       0.00211475      -0.00299317       0.00370550
Te       6.16948199       1.28463086      10.68584311      -0.00216310       0.00304572      -0.00375120
