9
Lattice="5.809794353622919 3.878625515452642e-09 3.3542864369463836 1.936597991585875 5.477526894919687 3.354286662018041 -7.617212843780755e-08 2.217936821561781e-07 6.708573005826606" Properties=species:S:1:pos:R:3:forces:R:3 energy=-22.9571533203125 free_energy=-22.9571533203125 stress="-3.289644519099966e-05 -1.1677009581489983e-07 -4.516061480330791e-08 -1.1677009581489983e-07 -3.279452721471898e-05 6.296841803532516e-08 -4.516061480330791e-08 6.296841803532516e-08 -3.2737894798628986e-05" pbc="T T T"
Hg       1.93659771       1.36938178       3.35428614      -0.00000029       0.00000009      -0.00000119
Hg       5.80979396       4.10814570      10.06286019      -0.00000038       0.00000062       0.00000181
Bi       0.00000005      -0.00000026      -0.00000023       0.00000188       0.00000929      -0.00000860
S        2.02916854       1.43483871       6.70857321      -0.00014906      -0.00010602      -0.00000028
S        5.71722396       4.04268796       6.70857334       0.00014490       0.00010177       0.00000009
S        4.79521041       1.43483974       5.11159838       0.00007750      -0.00010989      -0.00013441
S        2.95118278       4.04268763       8.30554723      -0.00007920       0.00011229       0.00013506
S        2.95118248       4.04268773       5.11159866      -0.00007335       0.00010327      -0.00012748
S        4.79520922       1.43483956       8.30554752       0.00007798      -0.00011151       0.00013494
