9
Lattice="5.465634438502592 -1.801335336796274e-07 3.1555852538603935 1.8218780584733765 5.153049208800623 3.1555851115942604 3.360533295841568e-08 -1.504771393014544e-07 6.311170449514503" Properties=species:S:1:pos:R:3:forces:R:3 energy=-22.979717254638672 free_energy=-22.979717254638672 stress="-7.857510354369879e-05 -2.262959819532284e-09 1.2683166517035716e-08 -2.262959819532284e-09 -7.84942603786476e-05 -1.0827585050776634e-08 1.2683166517035716e-08 -1.0827585050776634e-08 -7.855954027036205e-05" pbc="T T T"
Hg       1.82187829       1.28826183       3.15558541      -0.00000061       0.00000074       0.00000059
Hg       5.46563388       3.86478676       9.46675601       0.00000014       0.00000075      -0.00000046
Ga       0.00000011       0.00000074      -0.00000052       0.00000075      -0.00000620       0.00000109
S        1.93014600       1.36481907       6.31116994       0.00239439       0.00169076      -0.00000268
S        5.35736617       3.78823007       6.31117071      -0.00239065      -0.00168958       0.00000078
S        4.50056224       1.36481931       4.82714006      -0.00119421       0.00169334       0.00207420
S        2.78695059       3.78822903       7.79520049       0.00119246      -0.00169232      -0.00206818
S        2.78695138       3.78822948       4.82714035       0.00119416      -0.00169013       0.00206790
S        4.50056145       1.36481924       7.79520083      -0.00119644       0.00169263      -0.00207327
