9
Lattice="5.737566896029638 -3.882577921271251e-07 3.312585882482721 1.9125221149692602 5.409428908490145 3.3125855666507644 8.812728532410411e-08 -3.244981770102761e-07 6.625171612324521" Properties=species:S:1:pos:R:3:forces:R:3 energy=-22.885086059570312 free_energy=-22.885086059570312 stress="-2.6762118068290874e-05 -3.674941184694802e-10 8.015789809689977e-09 -3.674941184694802e-10 -2.6758554668049328e-05 -2.3171869756311025e-08 8.015789809689977e-09 -2.3171869756311025e-08 -2.675950418051798e-05" pbc="T T T"
Hg       1.91252151       1.35235556       3.31258603       0.00000225       0.00000320      -0.00000172
Hg       5.73756675       4.05707195       9.93775715       0.00000013      -0.00000170      -0.00000084
Ga      -0.00000044      -0.00000013       0.00000019       0.00000114      -0.00000010      -0.00000037
Se       2.23289470       1.57889468       6.62517079      -0.00220194      -0.00155614       0.00000139
Se       5.41719455       3.83053374       6.62517093       0.00220314       0.00155672       0.00000018
Se       4.62111983       1.57889466       5.24632938       0.00110198      -0.00155735      -0.00190675
Se       3.02896945       3.83053451       8.00401394      -0.00110123       0.00155322       0.00190896
Se       3.02897023       3.83053328       5.24633010      -0.00110368       0.00155771      -0.00190872
Se       4.62111980       1.57889446       8.00401376       0.00109822      -0.00155562       0.00190772
