9
Lattice="4.630223020220695 -4.1264906072230406e-08 2.67326067208215 1.543407554118216 4.365416038747905 2.673260811310927 -1.6787853348520656e-07 5.181160295901288e-08 5.346521634938483" Properties=species:S:1:pos:R:3:forces:R:3 energy=-31.462507247924805 free_energy=-31.462507247924805 stress="-0.00012619092012755573 -1.3068284232531369e-08 3.1090742425021745e-08 -1.3068284232531369e-08 -0.00012609706027433276 4.1124778249468363e-08 3.1090742425021745e-08 4.1124778249468363e-08 -0.00012618821347132325" pbc="T T T"
Hg       1.54340789       1.09135378       2.67326087      -0.00000079      -0.00000043      -0.00000068
Hg       4.63022297       3.27406223       8.01978252       0.00000075       0.00000036      -0.00000046
Ga       0.00000007      -0.00000000      -0.00000027      -0.00000015      -0.00000141       0.00000170
O        1.58175613       1.11847047       5.34652117       0.00516146       0.00364968      -0.00000052
O        4.59187373       3.24694568       5.34652096      -0.00516093      -0.00364861      -0.00000111
O        3.83934466       1.11847045       4.04310218      -0.00257936       0.00364760       0.00446966
O        2.33428564       3.24694524       6.64994128       0.00258034      -0.00364986      -0.00446799
O        2.33428579       3.24694548       4.04310220       0.00257877      -0.00364789       0.00446820
O        3.83934458       1.11847066       6.64994160      -0.00258020       0.00365049      -0.00446913
