9
Lattice="5.737118811122677 5.973721457260778e-08 3.3123266785549426 1.9123728681567296 5.40900724847251 3.312326895416276 -2.8371397086139036e-07 6.498379952160859e-08 6.624653848516914" Properties=species:S:1:pos:R:3:forces:R:3 energy=-22.885086059570312 free_energy=-22.885086059570312 stress="4.5080410927766934e-05 1.796398052533732e-08 -1.4319562424702781e-08 1.796398052533732e-08 4.5078959374222904e-05 5.224177979101796e-09 -1.4319562424702781e-08 5.224177979101796e-09 4.506849654717371e-05" pbc="T T T"
Hg       1.91237225       1.35225171       3.31232696       0.00000052       0.00000107      -0.00000045
Hg       5.73711911       4.05675579       9.93698015      -0.00000081       0.00000021       0.00000092
Ga       0.00000107       0.00000086       0.00000098      -0.00000137      -0.00000217      -0.00000241
Se       2.23232517       1.57849187       6.62465434       0.00205557       0.00145303       0.00000210
Se       5.41716497       3.83051471       6.62465432      -0.00205247      -0.00145201       0.00000020
Se       4.62095589       1.57849280       5.24557574      -0.00102778       0.00145343       0.00177917
Se       3.02853512       3.83051468       8.00373023       0.00102564      -0.00145280      -0.00177872
Se       3.02853554       3.83051478       5.24557637       0.00102777      -0.00145337       0.00177822
Se       4.62095648       1.57849235       8.00373043      -0.00102703       0.00145264      -0.00177902
