9
Lattice="6.358015330559734 6.270841891378788e-08 3.6708009532949926 2.1193386276621093 5.994393735881124 3.670800736753814 -1.0591055679316147e-07 -3.4009779558295463e-07 7.341602090032428" Properties=species:S:1:pos:R:3:forces:R:3 energy=-20.293601989746094 free_energy=-20.293601989746094 stress="-0.00014508298772852868 -2.5640712664198873e-08 -4.657446872613491e-09 -2.5640712664198873e-08 -0.000145048470585607 2.3719988195836095e-09 -4.657446872613491e-09 2.3719988195836095e-09 -0.0001450765412300825" pbc="T T T"
Hg       2.11933786       1.49859756       3.67080121      -0.00000029       0.00000028      -0.00000049
Hg       6.35801529       4.49579561      11.01240319       0.00000057       0.00000038      -0.00000044
Ga      -0.00000046       0.00000096      -0.00000148       0.00000107      -0.00000149       0.00000175
Te       2.32271951       1.64241068       7.34160037       0.00817910       0.00578450      -0.00000086
Te       6.15463266       4.35198187       7.34160189      -0.00817766      -0.00578316       0.00000055
Te       5.19665479       1.64241310       5.68233561      -0.00408943       0.00578386       0.00708362
Te       3.28069992       4.35198184       9.00086895       0.00408954      -0.00578552      -0.00708304
Te       3.28070071       4.35198102       5.68233651       0.00408860      -0.00578311       0.00708343
Te       5.19665512       1.64241111       9.00086885      -0.00409147       0.00578426      -0.00708456
