9
Lattice="5.466062678667838 3.618004415488834e-10 3.155832538778192 1.8220208431753662 5.153453281240935 3.155832625476024 -1.0141115996627543e-07 3.447427103294567e-08 6.311665253205614" Properties=species:S:1:pos:R:3:forces:R:3 energy=-22.979705810546875 free_energy=-22.979705810546875 stress="0.00011630057997535914 3.50692133110897e-08 5.2981605769275575e-09 3.50692133110897e-08 0.00011624938633758575 1.909199021099539e-08 5.2981605769275575e-09 1.909199021099539e-08 0.00011621836893027648" pbc="T T T"
Hg       1.82202147       1.28836283       3.15583196      -0.00000035       0.00000012       0.00000064
Hg       5.46606284       3.86508970       9.46749761       0.00000029       0.00000024       0.00000099
Ga      -0.00000000      -0.00000009       0.00000057       0.00000080      -0.00000079      -0.00000235
S        1.93093451       1.36537732       6.31166527      -0.00519467      -0.00367277      -0.00000131
S        5.35714844       3.78807625       6.31166539       0.00519513       0.00367053       0.00000059
S        4.50059532       1.36537697       4.82807051       0.00259553      -0.00367061      -0.00449602
S        2.78748790       3.78807674       7.79525949      -0.00259748       0.00367337       0.00449943
S        2.78748814       3.78807702       4.82807105      -0.00259549       0.00367205      -0.00449825
S        4.50059502       1.36537652       7.79525985       0.00259619      -0.00367206       0.00449640
