9
Lattice="6.360688236613363 -3.153874335608727e-08 3.6723452538354104 2.120229534312683 5.996914491351554 3.6723449908353003 3.5176491107840205e-07 -7.337271999790805e-08 7.344689898396241" Properties=species:S:1:pos:R:3:forces:R:3 energy=-20.293624877929688 free_energy=-20.293624877929688 stress="2.6617291950969957e-05 8.823461961071644e-09 -3.1411296674832556e-08 8.823461961071644e-09 2.6680825612857006e-05 -8.211029189908459e-09 -3.1411296674832556e-08 -8.211029189908459e-09 2.657794721017126e-05" pbc="T T T"
Hg       2.12023002       1.49922866       3.67234500       0.00000045      -0.00000002      -0.00000038
Hg       6.36068875       4.49768597      11.01703455       0.00000056       0.00000090       0.00000015
Ga       0.00000169       0.00000211      -0.00000065      -0.00000227      -0.00000245       0.00000048
Te       2.32771735       1.64594452       7.34468941      -0.00795290      -0.00562440      -0.00000018
Te       6.15319900       4.35096704       7.34469072       0.00795519       0.00562356       0.00000088
Te       5.19682888       1.64594632       5.68820662       0.00397643      -0.00562333      -0.00688934
Te       3.28408851       4.35096907       9.00117310      -0.00397703       0.00562413       0.00688776
Te       3.28408802       4.35096822       5.68820750      -0.00397778       0.00562493      -0.00688810
Te       5.19683017       1.64594570       9.00117431       0.00397731      -0.00562333       0.00688864
