9
Lattice="4.629713943469418 6.16981776190408e-08 2.6729666651323067 1.5432379948234005 4.364936283819382 2.6729667422132946 -4.0469875828893e-08 6.578800808141163e-08 5.3459334003604635" Properties=species:S:1:pos:R:3:forces:R:3 energy=-31.46251678466797 free_energy=-31.46251678466797 stress="-0.0001311489031650126 -3.333623865842128e-08 -1.4449891061474318e-08 -3.333623865842128e-08 -0.0001311988162342459 8.438975740432397e-09 -1.4449891061474318e-08 8.438975740432397e-09 -0.00013104431855026633" pbc="T T T"
Hg       1.54323813       1.09123432       2.67296684      -0.00000114      -0.00000056       0.00000161
Hg       4.62971400       3.27370221       8.01890018      -0.00000041       0.00000013       0.00000184
Ga      -0.00000062      -0.00000002       0.00000092       0.00000800      -0.00000022      -0.00001606
O        1.58216488       1.11875953       5.34593338      -0.00108713      -0.00076911      -0.00000035
O        4.59078754       3.24617716       5.34593364       0.00108224       0.00076538       0.00000001
O        3.83863197       1.11875954       4.04316151       0.00054106      -0.00076300      -0.00093442
O        2.33432061       3.24617642       6.64870443      -0.00054553       0.00077245       0.00094408
O        2.33432024       3.24617657       4.04316141      -0.00054133       0.00076517      -0.00093919
O        3.83863089       1.11875990       6.64870480       0.00054449      -0.00077051       0.00094274
