9
Lattice="5.730539642086025 2.0711119350645772e-07 3.3085286070471813 1.9101800314057913 5.402804928764261 3.308528684220183 -2.9420850016172444e-08 7.371357748388743e-08 6.61705726505261" Properties=species:S:1:pos:R:3:forces:R:3 energy=-29.422271728515625 free_energy=-29.422271728515625 stress="-1.264574530068785e-05 -4.931884944880949e-08 1.1682346645613961e-08 -4.931884944880949e-08 -1.2631799108930863e-05 -1.9162294861985174e-08 1.1682346645613961e-08 -1.9162294861985174e-08 -1.2592568054969888e-05" pbc="T T T"
Hg       1.91017988       1.35070116       3.30852868      -0.00000022       0.00000057       0.00000008
Hg       5.73053969       4.05210373       9.92558604       0.00000001       0.00000065       0.00000077
Ir      -0.00000019       0.00000014      -0.00000048      -0.00000036      -0.00000143      -0.00000093
Se       2.01903535       1.42767356       6.61705766       0.00387420       0.00273982      -0.00000034
Se       5.62168399       3.97513193       6.61705762      -0.00387363      -0.00273927      -0.00000048
Se       4.72102236       1.42767363       5.05706463      -0.00193626       0.00273918       0.00335389
Se       2.91969827       3.97513055       8.17704970       0.00193535      -0.00273772      -0.00335251
Se       2.91969764       3.97513159       5.05706480       0.00193578      -0.00273827       0.00335220
Se       4.72102157       1.42767457       8.17704954      -0.00193479       0.00273655      -0.00335285
