9
Lattice="4.835470889417503 -1.585813511835643e-07 2.7917605175527753 1.6118234694729547 4.558925833197114 2.79176053629522 -4.3117285218429485e-08 -7.533812919679692e-09 5.5835211097868775" Properties=species:S:1:pos:R:3:forces:R:3 energy=-38.9337043762207 free_energy=-38.9337043762207 stress="2.5407376597286202e-05 -6.821246500976486e-08 -2.9838506776513896e-08 -6.821246500976486e-08 2.547711665101815e-05 -6.346678738111677e-09 -2.9838506776513896e-08 -6.346678738111677e-09 2.552173100411892e-05" pbc="T T T"
Hg       1.61182376       1.13973155       2.79176060       0.00000052      -0.00000016       0.00000063
Hg       4.83547052       3.41919430       8.37528173      -0.00000130      -0.00000066      -0.00000051
Ir      -0.00000033      -0.00000000      -0.00000004       0.00001846       0.00000180       0.00001005
O        1.52470932       1.07813219       5.58352091       0.00126539       0.00089300       0.00000023
O        4.92258512       3.48079352       5.58352069      -0.00127856      -0.00090289       0.00000117
O        4.07311589       1.07813250       4.11219795      -0.00063261       0.00089463       0.00109564
O        2.37417844       3.48079302       7.05484462       0.00063497      -0.00089601      -0.00109716
O        2.37417852       3.48079297       4.11219777       0.00062949      -0.00089001       0.00109093
O        4.07311591       1.07813254       7.05484461      -0.00063594       0.00089999      -0.00110076
