9
Lattice="4.793892116679928 4.6060448017981795e-08 2.7677551820262263 1.5979640416045495 4.5197250764973464 2.767755252546637 6.437165395104777e-08 1.3188708569908796e-07 5.535510252557589" Properties=species:S:1:pos:R:3:forces:R:3 energy=-38.878501892089844 free_energy=-38.878501892089844 stress="3.253338218200952e-05 2.4837208911776543e-07 -1.442561199382908e-07 2.4837208911776543e-07 3.24481152347289e-05 7.832643689198449e-08 -1.442561199382908e-07 7.832643689198449e-08 3.23110434692353e-05" pbc="T T T"
Hg       1.59796341       1.12993120       2.76775533      -0.00000707      -0.00000142      -0.00000085
Hg       4.79389188       3.38979465       8.30326612      -0.00000207       0.00000422       0.00000438
Mo      -0.00000025       0.00000051      -0.00000088      -0.00000402      -0.00000669       0.00000513
O        1.58561434       1.12119864       5.53551020      -0.00159025      -0.00112957       0.00000092
O        4.80624094       3.39852548       5.53551042       0.00160885       0.00113434       0.00000322
O        4.00108511       1.12119936       4.14093751       0.00079626      -0.00112683      -0.00138128
O        2.39077083       3.39852724       6.93008289      -0.00079477       0.00111949       0.00137985
O        2.39077202       3.39852742       4.14093780      -0.00079209       0.00112379      -0.00137544
O        4.00108668       1.12119690       6.93008363       0.00078541      -0.00111747       0.00136244
