9
Lattice="5.923307341101273 -3.459540484102471e-08 3.419823085686161 1.9744356951641235 5.584547764031848 3.4198231767679577 -7.312852295414715e-08 5.984219274798602e-08 6.839646298034646" Properties=species:S:1:pos:R:3:forces:R:3 energy=-32.21868133544922 free_energy=-32.21868133544922 stress="-1.3176828360883519e-05 -3.564357342611402e-08 -2.239923624358653e-08 -3.564357342611402e-08 -1.3109990504744928e-05 2.35546124827124e-08 -2.239923624358653e-08 2.35546124827124e-08 -1.3109162864566315e-05" pbc="T T T"
Hg       1.97443569       1.39613688       3.41982326       0.00000008       0.00000037       0.00000013
Hg       5.92330722       4.18841090      10.25946932      -0.00000023       0.00000042       0.00000050
Mo      -0.00000024      -0.00000001       0.00000025       0.00000193      -0.00000038      -0.00000965
Se       1.97854252       1.39904101       6.83964641       0.00027905       0.00019631      -0.00000023
Se       5.91920063       4.18550675       6.83964636      -0.00028007      -0.00019813      -0.00000069
Se       4.93403581       1.39904118       5.13329156      -0.00013848       0.00019716       0.00023909
Se       2.96370713       4.18550666       8.54600072       0.00013511      -0.00019257      -0.00023389
Se       2.96370703       4.18550661       5.13329134       0.00014009      -0.00019768       0.00024222
Se       4.93403601       1.39904116       8.54600081      -0.00013754       0.00019462      -0.00023744
