9
Lattice="5.65540364567303 -1.8469407950621044e-07 3.2651489538673784 1.8851343421341262 5.3319655375970925 3.265149009799476 8.784638599601851e-08 1.3061927192527178e-07 6.530297755580494" Properties=species:S:1:pos:R:3:forces:R:3 energy=-34.647552490234375 free_energy=-34.647552490234375 stress="-0.00022279332915786654 -7.306456950573192e-08 1.6166220362379136e-08 -7.306456950573192e-08 -0.00022270018234848976 1.3247479779820992e-09 1.6166220362379136e-08 1.3247479779820992e-09 -0.000222591042984277" pbc="T T T"
Hg       1.88513498       1.33299253       3.26514842      -0.00000018       0.00000115       0.00000022
Hg       5.65540389       3.99897507       9.79544707       0.00000034       0.00000113       0.00000015
Mo       0.00000006       0.00000069       0.00000096      -0.00000204      -0.00000606      -0.00000695
S        1.88012061       1.32944624       6.53029767       0.00805314       0.00569199      -0.00000266
S        5.66041658       4.00251831       6.53029799      -0.00804555      -0.00568879      -0.00000199
S        4.71534341       1.32944603       4.89338259      -0.00402559       0.00568997       0.00696695
S        2.82519532       4.00251780       8.16721244       0.00401769      -0.00568315      -0.00695761
S        2.82519475       4.00251850       4.89338290       0.00402203      -0.00568882       0.00696196
S        4.71534267       1.32944686       8.16721287      -0.00401982       0.00568272      -0.00696024
