9
Lattice="4.605628743251157 1.1869932346718828e-07 2.6590605408139667 1.5352097241574705 4.342228155363673 2.65906048683796 -7.903732335692853e-08 -1.2199462673141893e-07 5.318121218524609" Properties=species:S:1:pos:R:3:forces:R:3 energy=-30.38273048400879 free_energy=-30.38273048400879 stress="6.986832886468619e-06 7.053683503954744e-08 1.057205665233596e-07 7.053683503954744e-08 7.134768566174898e-06 -5.837956607024353e-08 1.057205665233596e-07 -5.837956607024353e-08 7.046223345241742e-06" pbc="T T T"
Hg       1.53520605       1.08555419       2.65905766       0.00000407       0.00000541       0.00000768
Hg       4.60562483       3.25666735       7.97717848       0.00000493       0.00000838       0.00000505
N        0.00000459       0.00000476       0.00000446      -0.00003890      -0.00004916      -0.00004425
O        1.30925111       0.92578026       5.31812290       0.00045872       0.00031435      -0.00000487
O        4.83158337       3.41644492       5.31812144      -0.00041986      -0.00028455       0.00000819
O        3.95100660       0.92578154       3.79290575      -0.00023872       0.00031936       0.00039339
O        2.18983700       3.41644645       6.84333608       0.00022811      -0.00030720      -0.00037849
O        2.18983680       3.41644845       3.79290664       0.00021881      -0.00031257       0.00038111
O        3.95100406       0.92578363       6.84333537      -0.00021559       0.00030696      -0.00036693
