9
Lattice="4.537649135557357 -1.4934755520936052e-07 2.6198128308340434 1.5125496958684796 4.2781361409198 2.619812614635564 1.9282209647942389e-07 -1.2844218596791203e-07 5.239625327690393" Properties=species:S:1:pos:R:3:forces:R:3 energy=-39.62055587768555 free_energy=-39.62055587768555 stress="-0.00023151190544012934 4.164238731618752e-09 2.5637053369109708e-08 4.164238731618752e-09 -0.00023135304218158126 4.4713591051959156e-08 2.5637053369109708e-08 4.4713591051959156e-08 -0.0002313886652700603" pbc="T T T"
Hg       1.51254993       1.06953404       2.61981263      -0.00000085      -0.00000000      -0.00000042
Hg       4.53764921       3.20860202       7.85943812       0.00000008      -0.00000033       0.00000021
P       -0.00000002       0.00000007       0.00000007      -0.00000019       0.00000130       0.00000021
O        1.39333211       0.98523407       5.23962506       0.00156593       0.00111043       0.00000135
O        4.65686737       3.29290128       5.23962512      -0.00157213      -0.00111210       0.00000107
O        3.84098296       0.98523416       3.82647358      -0.00078130       0.00110757       0.00135446
O        2.20921562       3.29290169       6.65277752       0.00078678      -0.00111032      -0.00136065
O        2.20921571       3.29290168       3.82647356       0.00078440      -0.00110519       0.00135779
O        3.84098324       0.98523394       6.65277721      -0.00078321       0.00110829      -0.00135589
