9
Lattice="5.656412990822285 2.057144225427605e-07 3.2657316944835078 1.8854711311510965 5.332917351071413 3.2657317979545724 1.338316948927926e-07 2.2135893109604724e-07 6.531463157163768" Properties=species:S:1:pos:R:3:forces:R:3 energy=-27.034521102905273 free_energy=-27.034521102905273 stress="-0.00010232445492874831 -2.7000423230560955e-08 1.753312384167316e-09 -2.7000423230560955e-08 -0.0001024129887809977 -7.850709526913136e-10 1.753312384167316e-09 -7.850709526913136e-10 -0.0001023727236315608" pbc="T T T"
Hg       1.88547108       1.33322937       3.26573130      -0.00000001       0.00000004      -0.00000122
Hg       5.65641272       3.99968826       9.79719483      -0.00000130      -0.00000041      -0.00000095
P        0.00000000      -0.00000020       0.00000018      -0.00000033       0.00000093       0.00000611
S        1.77284765       1.25359285       6.53146296       0.00080788       0.00057054       0.00000099
S        5.76903671       4.07932473       6.53146318      -0.00080740      -0.00057197       0.00000121
S        4.76998947       1.25359290       4.80106310      -0.00040144       0.00056767       0.00069696
S        2.77189508       4.07932550       8.26186405       0.00040472      -0.00057071      -0.00070006
S        2.77189527       4.07932478       4.80106296       0.00040251      -0.00056833       0.00069582
S        4.76998918       1.25359302       8.26186429      -0.00040501       0.00057250      -0.00069934
