9
Lattice="5.733622867935466 6.855793184815925e-08 3.3103086580519068 1.9112076182566011 5.4057118502439545 3.3103087776077667 -1.6557361249419967e-07 2.9347153569266393e-08 6.6206176028857495" Properties=species:S:1:pos:R:3:forces:R:3 energy=-25.322240829467773 free_energy=-25.322240829467773 stress="-0.0002343057276448235 -2.9803977952269634e-08 1.2891552714222598e-08 -2.9803977952269634e-08 -0.00023429175780620426 -1.2756144585068796e-08 1.2891552714222598e-08 -1.2756144585068796e-08 -0.00023429948487319052" pbc="T T T"
Hg       1.91120757       1.35142813       3.31030891      -0.00000052       0.00000008      -0.00000021
Hg       5.73362270       4.05428382       9.93092612       0.00000015      -0.00000009       0.00000005
P        0.00000059      -0.00000020       0.00000047      -0.00000774       0.00000080       0.00000115
Se       1.88425155       1.33236744       6.62061725       0.00637737       0.00450934       0.00000032
Se       5.76057869       4.07334486       6.62061725      -0.00637266      -0.00450610       0.00000063
Se       4.79149656       1.33236742       4.94211849      -0.00318602       0.00450552       0.00551879
Se       2.85333320       4.07334475       8.29911618       0.00318848      -0.00450917      -0.00552183
Se       2.85333370       4.07334436       4.94211901       0.00318645      -0.00450648       0.00551954
Se       4.79149668       1.33236716       8.29911636      -0.00318554       0.00450601      -0.00551829
