9
Lattice="5.442868605385042 5.989916282811288e-08 3.142441856681661 1.8142895239959795 5.1315863071042465 3.142441973778401 -1.5203412462027386e-07 3.59093190574033e-08 6.284883976694122" Properties=species:S:1:pos:R:3:forces:R:3 energy=-30.07561683654785 free_energy=-30.07561683654785 stress="0.00048554991371929646 1.1651434483894718e-08 9.624711694300458e-09 1.1651434483894718e-08 0.00048556149704381824 1.3321892033957283e-08 9.624711694300458e-09 1.3321892033957283e-08 0.0004855551233049482" pbc="T T T"
Hg       1.81428963       1.28289665       3.14244198      -0.00000039       0.00000106      -0.00000108
Hg       5.44286841       3.84868980       9.42732599       0.00000227      -0.00000082      -0.00000143
Rh       0.00000031       0.00000023       0.00000007      -0.00000727      -0.00000243      -0.00000128
S        1.87402676       1.32513743       6.28488406      -0.00684738      -0.00484043       0.00000125
S        5.38313020       3.80644859       6.28488388       0.00685573       0.00484666       0.00000093
S        4.50585517       1.32513777       4.76539716       0.00342509      -0.00484425      -0.00593272
S        2.75130302       3.80644885       7.80437063      -0.00342646       0.00484258       0.00593278
S        2.75130317       3.80644884       4.76539699      -0.00342667       0.00484195      -0.00593185
S        4.50585499       1.32513750       7.80437026       0.00342494      -0.00484410       0.00593314
