9
Lattice="5.381349772432483 -1.674398824483161e-07 3.106923677509358 1.7937830576064437 5.073584842815422 3.106923750268038 -6.176467322751383e-08 4.543657377322927e-08 6.213847461998314" Properties=species:S:1:pos:R:3:forces:R:3 energy=-31.844709396362305 free_energy=-31.844709396362305 stress="-0.0003212453448213637 -2.0513747145400885e-08 1.7467382207314586e-08 -2.0513747145400885e-08 -0.0003212314622942358 1.5504717509884358e-08 1.7467382207314586e-08 1.5504717509884358e-08 -0.00032122357515618205" pbc="T T T"
Hg       1.79378295       1.26839637       3.10692368       0.00000079       0.00000061      -0.00000049
Hg       5.38134945       3.80518846       9.32077156      -0.00000041       0.00000124      -0.00000175
Ru      -0.00000018       0.00000048      -0.00000049      -0.00000042      -0.00000096       0.00000022
S        1.87787117       1.32785496       6.21384739       0.00566959       0.00400755      -0.00000076
S        5.29726180       3.74572967       6.21384692      -0.00566846      -0.00400627      -0.00000052
S        4.44241413       1.32785517       4.73320826      -0.00283316       0.00400451       0.00490767
S        2.73271890       3.74572916       7.69448690       0.00283423      -0.00400731      -0.00490564
S        2.73271886       3.74572914       4.73320817       0.00283191      -0.00400645       0.00490755
S        4.44241409       1.32785550       7.69448727      -0.00283444       0.00400692      -0.00490654
