9
Lattice="5.715812119230962 -2.8226140770502613e-08 3.3000260226278098 1.90527071920827 5.3889193525401 3.3000259543679884 4.721664013633748e-08 -5.021363070440809e-08 6.600051963474057" Properties=species:S:1:pos:R:3:forces:R:3 energy=-28.207414627075195 free_energy=-28.207414627075195 stress="0.00039730448042973876 -1.9619504243451047e-08 9.900535502538332e-09 -1.9619504243451047e-08 0.00039733044104650617 -1.8531656209574976e-08 9.900535502538332e-09 -1.8531656209574976e-08 0.0003973062557633966" pbc="T T T"
Hg       1.90527063       1.34722983       3.30002599      -0.00000013      -0.00000021       0.00000002
Hg       5.71581210       4.04168943       9.90007794      -0.00000005       0.00000017       0.00000025
Rh      -0.00000007       0.00000009      -0.00000047       0.00000031      -0.00000106       0.00000080
Se       2.01050684       1.42164302       6.60005197       0.00552008       0.00390287      -0.00000053
Se       5.61057629       3.96727610       6.60005196      -0.00551969      -0.00390337      -0.00000049
Se       4.71055880       1.42164277       5.04117592      -0.00275985       0.00390291       0.00478007
Se       2.91052445       3.96727601       8.15892812       0.00276019      -0.00390267      -0.00477977
Se       2.91052408       3.96727648       5.04117620       0.00275856      -0.00390077       0.00477844
Se       4.71055840       1.42164335       8.15892816      -0.00275960       0.00390220      -0.00477859
