9
Lattice="4.809312254284015 -1.631362184403378e-08 2.7766576310384776 1.603104017894665 4.53426276070257 2.7766577202149714 -1.218534224249765e-07 2.30550296524433e-08 5.553315473133266" Properties=species:S:1:pos:R:3:forces:R:3 energy=-40.169620513916016 free_energy=-40.169620513916016 stress="7.11090524418978e-06 -1.6126477930811234e-08 -6.182431011581002e-09 -1.6126477930811234e-08 7.041509888949804e-06 -7.964790604830796e-09 -6.182431011581002e-09 -7.964790604830796e-09 7.0881296778679825e-06" pbc="T T T"
Hg       1.60310439       1.13356535       2.77665740       0.00000165      -0.00000105      -0.00000087
Hg       4.80931230       3.40069703       8.32997311       0.00000037       0.00000031      -0.00000209
Ru      -0.00000006       0.00000020      -0.00000032       0.00000243      -0.00000176       0.00000490
O        1.51251588       1.06951080       5.55331508       0.00105274       0.00074643       0.00000107
O        4.89989997       3.46475233       5.55331546      -0.00105464      -0.00074515      -0.00000058
O        4.05305400       1.06951032       4.08653568      -0.00052530       0.00074357       0.00091112
O        2.35936226       3.46475189       7.02009570       0.00052564      -0.00074655      -0.00091127
O        2.35936210       3.46475246       4.08653562       0.00052689      -0.00074241       0.00091100
O        4.05305371       1.06951071       7.02009570      -0.00052959       0.00074664      -0.00091335
