9
Lattice="5.7330755868824 -5.42397466373093e-09 3.30999272333551 1.9110252568754507 5.405195641641081 3.309992608393569 6.318039809927496e-08 -9.609927023268439e-08 6.619985337239286" Properties=species:S:1:pos:R:3:forces:R:3 energy=-29.97591209411621 free_energy=-29.97591209411621 stress="8.961147250374779e-05 2.0211986750950928e-08 1.6866955832028907e-08 2.0211986750950928e-08 8.959309343481436e-05 -1.5269167263909367e-08 1.6866955832028907e-08 -1.5269167263909367e-08 8.959369006333873e-05" pbc="T T T"
Hg       1.91102517       1.35129863       3.30999282      -0.00000002       0.00000088      -0.00000017
Hg       5.73307558       4.05389655       9.92997818       0.00000052       0.00000054      -0.00000057
Ru      -0.00000019      -0.00000039       0.00000071      -0.00000077       0.00000016      -0.00000028
Se       2.00537136       1.41801097       6.61998518       0.00073479       0.00051845       0.00000060
Se       5.63872906       3.98718389       6.61998485      -0.00073160      -0.00051850       0.00000126
Se       4.73039009       1.41801249       5.04669453      -0.00036816       0.00051951       0.00063615
Se       2.91371083       3.98718472       8.19327510       0.00036726      -0.00052089      -0.00063723
Se       2.91371113       3.98718370       5.04669541       0.00036520      -0.00051957       0.00063619
Se       4.73039060       1.41801159       8.19327591      -0.00036730       0.00051941      -0.00063606
