9
Lattice="5.863875397448294 -7.20582960442801e-08 3.385510052619613 1.9546249889681337 5.528514877652459 3.385510183523546 -1.3415209210212018e-07 6.546406156604689e-08 6.771020337597454" Properties=species:S:1:pos:R:3:forces:R:3 energy=-24.526866912841797 free_energy=-24.526866912841797 stress="-0.0001950771256815642 -2.6060122948479147e-08 -5.5165454426742144e-09 -2.6060122948479147e-08 -0.00019507278921082616 9.508198672847357e-09 -5.5165454426742144e-09 9.508198672847357e-09 -0.00019505467207636684" pbc="T T T"
Hg       1.95462511       1.38212872       3.38550996       0.00000034      -0.00000024       0.00000129
Hg       5.86387498       4.14638617      10.15653015       0.00000063       0.00000018       0.00000071
Sb      -0.00000106       0.00000005       0.00000010       0.00000374       0.00000052       0.00000067
Se       2.34084771       1.65522914       6.77102070      -0.00593466      -0.00419584      -0.00000229
Se       5.47765377       3.87328555       6.77102052       0.00593081       0.00419423      -0.00000176
Se       4.69345169       1.65522915       5.41274347       0.00296544      -0.00419401      -0.00513799
Se       3.12504886       3.87328539       8.12929655      -0.00296751       0.00419772       0.00513949
Se       3.12504875       3.87328577       5.41274382      -0.00296600       0.00419416      -0.00513867
Se       4.69345125       1.65522953       8.12929707       0.00296728      -0.00419669       0.00513853
