9
Lattice="5.758909247113569 1.077256217551678e-07 3.3249074622830648 1.9196365692231376 5.429551827285 3.3249073722962517 -2.8990614698973978e-08 -1.307103791310838e-07 6.6498149747793605" Properties=species:S:1:pos:R:3:forces:R:3 energy=-23.98918914794922 free_energy=-23.98918914794922 stress="-0.0004283002926968038 3.3254006215344134e-09 1.252164327780747e-08 3.3254006215344134e-09 -0.00042822881368920207 -2.678766009012179e-08 1.252164327780747e-08 -2.678766009012179e-08 -0.00042826181743294" pbc="T T T"
Hg       1.91963651       1.35738709       3.32490783       0.00000062      -0.00000239       0.00000141
Hg       5.75890927       4.07216324       9.97472157       0.00000056      -0.00000145      -0.00000118
Sb       0.00000100       0.00000107      -0.00000057      -0.00002392      -0.00001445       0.00001109
S        1.99575655       1.41121322       6.64981512       0.00626099       0.00443092       0.00000102
S        5.68278798       4.01833846       6.64981601      -0.00623780      -0.00440797       0.00000410
S        4.76103031       1.41121404       5.05328361      -0.00312418       0.00441760       0.00541034
S        2.91751479       4.01833875       8.24634588       0.00312614      -0.00442323      -0.00541958
S        2.91751569       4.01833804       5.05328385       0.00312394      -0.00441870       0.00540930
S        4.76103100       1.41121338       8.24634576      -0.00312597       0.00441971      -0.00541615
