9
Lattice="4.81927081008923 -7.485265577954909e-08 2.782407210515064 1.6064235835957865 4.543652248635756 2.782407122519174 -1.274109456389166e-07 -1.9786567300635715e-07 5.564814641712375" Properties=species:S:1:pos:R:3:forces:R:3 energy=-35.136390686035156 free_energy=-35.136390686035156 stress="-0.00011517087114043534 1.4490240118902875e-09 1.0991467291887602e-07 1.4490240118902875e-09 -0.00011505703150760382 -6.915350070357817e-08 1.0991467291887602e-07 -6.915350070357817e-08 -0.00011492058547446504" pbc="T T T"
Hg       1.60642379       1.13591305       2.78240742       0.00000014      -0.00000039      -0.00000001
Hg       4.81927056       3.40773879       8.34722141       0.00000051       0.00000025      -0.00000058
Sb       0.00000006       0.00000014      -0.00000015       0.00000036      -0.00000345       0.00000542
O        1.63092030       1.15323489       5.56481457       0.00103021       0.00073111       0.00000005
O        4.79477387       3.39041712       5.56481457      -0.00103092      -0.00072837       0.00000105
O        4.00381049       1.15323468       4.19482575      -0.00051761       0.00073171       0.00089228
O        2.42188386       3.39041741       6.93480334       0.00051886      -0.00073427      -0.00089586
O        2.42188379       3.39041710       4.19482609       0.00051337      -0.00072455       0.00088882
O        4.00381059       1.15323465       6.93480265      -0.00051457       0.00072801      -0.00089240
