9
Lattice="4.818467314001582 -1.6414871499939942e-07 2.7819433233611996 1.6061556149830816 4.542894797054277 2.7819433261148947 -1.1554446560018899e-07 -7.83296753072603e-08 5.5638868468512825" Properties=species:S:1:pos:R:3:forces:R:3 energy=-35.136375427246094 free_energy=-35.136375427246094 stress="-0.00017765820666681975 1.4481444932101795e-09 -3.808145621064796e-08 1.4481444932101795e-09 -0.00017754494911059737 7.290259418368805e-08 -3.808145621064796e-08 7.290259418368805e-08 -0.00017775982269085944" pbc="T T T"
Hg       1.60615517       1.13572297       2.78194353       0.00000018       0.00000097       0.00000187
Hg       4.81846719       3.40717106       8.34583043      -0.00000013       0.00000032       0.00000192
Sb       0.00000041       0.00000048       0.00000083      -0.00001050      -0.00001588      -0.00003182
O        1.63103840       1.15331819       5.56388683      -0.00389338      -0.00275248       0.00000037
O        4.79358444       3.38957584       5.56388636       0.00390482       0.00276089      -0.00000077
O        4.00294801       1.15331807       4.19446402       0.00194591      -0.00275236      -0.00336874
O        2.42167494       3.38957628       6.93330904      -0.00195372       0.00276631       0.00338459
O        2.42167478       3.38957649       4.19446375      -0.00194508       0.00275022      -0.00336838
O        4.00294782       1.15331837       6.93330941       0.00195175      -0.00275898       0.00338101
