9
Lattice="5.864113850655539 -2.554589859353922e-07 3.3856480253733654 1.9547044482874827 5.528739753227459 3.38564790023047 7.351260775564551e-08 -1.0128690965201747e-07 6.77129592341927" Properties=species:S:1:pos:R:3:forces:R:3 energy=-24.52687644958496 free_energy=-24.52687644958496 stress="-3.3366923162247986e-05 -7.235512633485541e-09 9.804118406009366e-09 -7.235512633485541e-09 -3.3341457310598344e-05 -1.5939439990120263e-08 9.804118406009366e-09 -1.5939439990120263e-08 -3.333623681101017e-05" pbc="T T T"
Hg       1.95470449       1.38218472       3.38564808      -0.00000075       0.00000035       0.00000003
Hg       5.86411377       4.14655437      10.15694400      -0.00000012       0.00000150      -0.00000030
Sb       0.00000036       0.00000265      -0.00000032      -0.00000215      -0.00001089       0.00000053
Se       2.34068089       1.65511198       6.77129601       0.00023681       0.00016500       0.00000002
Se       5.47813502       3.87362753       6.77129610      -0.00022584      -0.00016312       0.00000004
Se       4.69377344       1.65511088       5.41273631      -0.00011711       0.00016524       0.00020559
Se       3.12504613       3.87362710       8.12985321       0.00011323      -0.00016205      -0.00019570
Se       3.12504612       3.87362708       5.41273903       0.00011282      -0.00016171       0.00019503
Se       4.69377335       1.65511124       8.12985506      -0.00011685       0.00016573      -0.00020532
