9
Lattice="5.76160840519132 -4.9367093183773196e-08 3.326466071140321 1.9205360383778114 5.432096223338686 3.3264661579892008 -1.1481447637858756e-07 2.518162975440586e-08 6.652932341145204" Properties=species:S:1:pos:R:3:forces:R:3 energy=-23.98924446105957 free_energy=-23.98924446105957 stress="-5.9553018218139187e-05 -3.6075388010203824e-08 -3.0187203847731325e-09 -3.6075388010203824e-08 -5.957945904810913e-05 2.0829444835612776e-08 -3.0187203847731325e-09 2.0829444835612776e-08 -5.958932524663396e-05" pbc="T T T"
Hg       1.92053629       1.35802400       3.32646600       0.00000127       0.00000059      -0.00000072
Hg       5.76160846       4.07407266       9.97939811      -0.00000017       0.00000173      -0.00000103
Sb      -0.00000002      -0.00000012      -0.00000020      -0.00000167       0.00000204      -0.00000543
S        1.99624670       1.41155927       6.65293253       0.00111115       0.00078368       0.00000077
S        5.68589829       4.02053595       6.65293241      -0.00110811      -0.00078806       0.00000111
S        4.76348391       1.41155994       5.05526582      -0.00055617       0.00078556       0.00095752
S        2.91865990       4.02053648       8.25059839       0.00055301      -0.00078171      -0.00095809
S        2.91865920       4.02053742       5.05526703       0.00055555      -0.00078446       0.00096554
S        4.76348444       1.41155920       8.25059822      -0.00055492       0.00078070      -0.00095969
