9
Lattice="6.55188897834397 2.3532583266150372e-07 3.782734711920671 2.1839632091429633 6.177178404961787 3.7827347214565394 3.374727709657082e-08 3.554202567593458e-08 7.565469365389332" Properties=species:S:1:pos:R:3:forces:R:3 energy=-21.202577590942383 free_energy=-21.202577590942383 stress="1.0973954886139836e-05 1.219613832148525e-08 2.1296109320445566e-09 1.219613832148525e-08 1.1137203728139866e-05 1.5873691250334332e-09 2.1296109320445566e-09 1.5873691250334332e-09 1.0952725460811052e-05" pbc="T T T"
Hg       2.18396315       1.54429474       3.78273469      -0.00000015       0.00000002      -0.00000002
Hg       6.55188924       4.63288390      11.34820400       0.00000032       0.00000010      -0.00000004
Sb       0.00000109       0.00000025      -0.00000029      -0.00000095      -0.00000029       0.00000148
Te       2.43808577       1.72398936       7.56546925       0.00024495       0.00017467      -0.00000068
Te       6.29776460       4.45318771       7.56546910      -0.00024560      -0.00017545      -0.00000075
Te       5.33284583       1.72398990       5.89418009      -0.00012299       0.00017555       0.00021413
Te       3.40300671       4.45318914       9.23676001       0.00012317      -0.00017469      -0.00021307
Te       3.40300679       4.45318951       5.89417927       0.00012349      -0.00017503       0.00021286
Te       5.33284572       1.72399018       9.23675909      -0.00012229       0.00017509      -0.00021388
