9
Lattice="7.0388153650488 1.8632533915607782e-07 4.063862443236998 2.3462717508045716 6.636258732108052 4.063862812535257 -3.404961801412919e-07 2.1152840713077676e-07 8.127725476231017" Properties=species:S:1:pos:R:3:forces:R:3 energy=-19.543453216552734 free_energy=-19.543453216552734 stress="3.362307325005531e-05 4.157323374442967e-10 -5.9125095930312455e-09 4.157323374442967e-10 3.368929901625961e-05 -7.279887248579087e-10 -5.9125095930312455e-09 -7.279887248579087e-10 3.360913251526654e-05" pbc="T T T"
Hg       2.34627161       1.65906471       4.06386303      -0.00000017      -0.00000084      -0.00000061
Hg       7.03881571       4.97719538      12.19158855      -0.00000019      -0.00000064      -0.00000064
Tl       0.00000060      -0.00000086      -0.00000049      -0.00000053      -0.00000022      -0.00000065
Te       2.90432790       2.05367040       8.12772297       0.00053275       0.00038071      -0.00000011
Te       6.48076190       4.58258848       8.12772383      -0.00053819      -0.00038254       0.00000109
Te       5.58665036       2.05367099       6.57908521      -0.00026427       0.00037977       0.00046098
Te       3.79843359       4.58258942       9.67636867       0.00027177      -0.00038342      -0.00046427
Te       3.79843396       4.58258887       6.57908352       0.00026733      -0.00037869       0.00046523
Te       5.58665139       2.05366917       9.67636764      -0.00026850       0.00038585      -0.00046101
