9
Lattice="5.7003279537576335 3.7992471343699084e-07 3.2910860049805395 1.9001095492545004 5.374320936803746 3.2910862247106163 -9.288633550051133e-08 2.0343269492055183e-07 6.5821721708449275" Properties=species:S:1:pos:R:3:forces:R:3 energy=-20.695270538330078 free_energy=-20.695270538330078 stress="0.00019015294674318284 -4.6218467275593866e-08 5.523091428649707e-10 -4.6218467275593866e-08 0.0001901492796605453 -2.017747213756138e-08 5.523091428649707e-10 -2.017747213756138e-08 0.00019005998910870403" pbc="T T T"
Hg       1.90011003       1.34358021       3.29108656       0.00000092      -0.00000056       0.00000070
Hg       5.70032737       4.03073996       9.87325847      -0.00000137      -0.00000203      -0.00000031
Tl       0.00000019       0.00000036      -0.00000066      -0.00000154      -0.00000359       0.00000728
S        2.10967599       1.49176654       6.58217221       0.00330129       0.00233347       0.00000064
S        5.49076067       3.88255533       6.58217225      -0.00329848      -0.00233042       0.00000175
S        4.64548968       1.49176768       5.11811880      -0.00164959       0.00233339       0.00285345
S        2.95494775       3.88255453       8.04622556       0.00165025      -0.00233407      -0.00285813
S        2.95494785       3.88255402       5.11811907       0.00164814      -0.00233213       0.00285356
S        4.64549018       1.49176750       8.04622532      -0.00164964       0.00233611      -0.00285892
