9
Lattice="6.386656332934721 -2.9406469608850614e-08 3.687337874933356 2.128885343197753 6.021397525505633 3.6873380020470616 -8.5145314434223e-08 9.547502797423062e-08 7.374675897342654" Properties=species:S:1:pos:R:3:forces:R:3 energy=-30.468645095825195 free_energy=-30.468645095825195 stress="-4.167441147728823e-05 -9.603517092671154e-09 -3.0981890830616976e-08 -9.603517092671154e-09 -4.1666800825623795e-05 3.9963644837825996e-08 -3.0981890830616976e-08 3.9963644837825996e-08 -4.167001316091046e-05" pbc="T T T"
Hg       2.12888595       1.50534999       3.68733806      -0.00000061      -0.00000055      -0.00000026
Hg       6.38665577       4.51604772      11.06201410       0.00000047       0.00000021       0.00000005
Ta      -0.00000012      -0.00000060      -0.00000037       0.00000142       0.00000333       0.00000155
Te       2.25236568       1.59266354       7.37467584      -0.00114991      -0.00081425       0.00000127
Te       6.26317617       4.42873439       7.37467587       0.00114872       0.00081371      -0.00000092
Te       5.26047240       1.59266398       5.63794361       0.00057845      -0.00081833      -0.00099793
Te       3.25506888       4.42873389       9.11140869      -0.00057782       0.00081587       0.00099581
Te       3.25506815       4.42873342       5.63794235      -0.00057519       0.00081379      -0.00099286
Te       5.26047351       1.59266397       9.11140905       0.00057446      -0.00081371       0.00099322
