9
Lattice="4.855421345245911 1.4158525085356864e-07 2.803278780575562 1.6184738664416753 4.577735401504899 2.803278865090706 4.901210291551792e-08 1.381662663648043e-07 5.606557476259688" Properties=species:S:1:pos:R:3:forces:R:3 energy=-26.881044387817383 free_energy=-26.881044387817383 stress="3.1962827051756904e-06 2.0047105309117796e-08 -1.288408402189134e-08 2.0047105309117796e-08 3.1327278975368245e-06 -2.1468343547326185e-08 -1.288408402189134e-08 -2.1468343547326185e-08 3.090846121267532e-06" pbc="T T T"
Hg       1.61847374       1.14443451       2.80327877       0.00000109       0.00000168      -0.00000091
Hg       4.85542147       3.43330131       8.40983677       0.00000041      -0.00000198       0.00000182
Tl       0.00000019      -0.00000021      -0.00000024      -0.00000271       0.00000376       0.00000651
O        1.77497400       1.25509654       5.60655760       0.00775731       0.00548655      -0.00000113
O        4.69892135       3.32263895       5.60655723      -0.00775726      -0.00548728      -0.00000072
O        3.96793433       1.25509670       4.34045121      -0.00387847       0.00548598       0.00671741
O        2.50596053       3.32263947       6.87266387       0.00387985      -0.00548792      -0.00672151
O        2.50596099       3.32263913       4.34045113       0.00387983      -0.00548726       0.00671908
O        3.96793440       1.25509637       6.87266402      -0.00388014       0.00548640      -0.00672029
