9
Lattice="5.493133141872189 -3.5975078321695125e-07 3.171461656691926 1.831044064848941 5.178975430553932 3.171461616159911 -1.6198826074217802e-07 -1.6418436633062e-07 6.342923593955648" Properties=species:S:1:pos:R:3:forces:R:3 energy=-36.56757736206055 free_energy=-36.56757736206055 stress="-4.443907528184354e-05 -5.0588980116117455e-08 3.556640848501047e-08 -5.0588980116117455e-08 -4.446409730007872e-05 1.1214570605488916e-08 3.556640848501047e-08 1.1214570605488916e-08 -4.4431406422518194e-05" pbc="T T T"
Hg       1.83104446       1.29474434       3.17146164      -0.00000077      -0.00000029      -0.00000078
Hg       5.49313278       3.88423064       9.51438527       0.00000079      -0.00000035       0.00000064
Ta      -0.00000010      -0.00000024      -0.00000015       0.00000172       0.00000289      -0.00000093
S        1.94776333       1.37727645       6.34292335      -0.00093645      -0.00065880       0.00000111
S        5.37641416       3.80169835       6.34292338       0.00093119       0.00065607      -0.00000067
S        4.51925086       1.37727610       4.85827459       0.00046989      -0.00066124      -0.00080901
S        2.80492604       3.80169883       7.82757255      -0.00046800       0.00066239       0.00080773
S        2.80492609       3.80169862       4.85827419      -0.00046690       0.00066069      -0.00080897
S        4.51925059       1.37727638       7.82757274       0.00046843      -0.00066143       0.00081116
