9
Lattice="5.760437451805534 -6.309709895653376e-07 3.325790344775693 1.9201452073823726 5.430992757521083 3.325790370758008 -1.5841362405360235e-07 -8.019353344824025e-08 6.651580963931746" Properties=species:S:1:pos:R:3:forces:R:3 energy=-33.64398193359375 free_energy=-33.64398193359375 stress="9.417079854756594e-05 -3.6855689700132643e-07 5.615917952894733e-09 -3.6855689700132643e-07 9.44175772019662e-05 -6.342262715008928e-09 5.615917952894733e-09 -6.342262715008928e-09 9.468714415561408e-05" pbc="T T T"
Hg       1.92014600       1.35774800       3.32579023      -0.00000194       0.00000003      -0.00000014
Hg       5.76043712       4.07324405       9.97737139      -0.00000092      -0.00000098      -0.00000093
Ta      -0.00000120      -0.00000103      -0.00000100       0.00001568       0.00001034       0.00000821
Se       2.05606893       1.45386027       6.65158102       0.00427996       0.00302654      -0.00000077
Se       5.62451450       3.97713279       6.65158083      -0.00429318      -0.00303656       0.00000026
Se       4.73240160       1.45386185       5.10640067      -0.00213038       0.00301296       0.00369018
Se       2.94818051       3.97713057       8.19676156       0.00213328      -0.00301607      -0.00369324
Se       2.94818100       3.97713047       5.10640119       0.00212957      -0.00301233       0.00368987
Se       4.73240150       1.45386126       8.19676091      -0.00213202       0.00301605      -0.00369329
