9
Lattice="6.234456247649627 -1.06226015030225e-07 3.599465072051228 2.0781520557749267 5.877901711408305 3.5994649449604963 2.8112337420593243e-08 -1.3577535771651704e-07 7.198930095410444" Properties=species:S:1:pos:R:3:forces:R:3 energy=-21.736230850219727 free_energy=-21.736230850219727 stress="-0.00019365940534044057 -5.812752945644206e-09 -8.820578933921297e-09 -5.812752945644206e-09 -0.00019366646301932633 4.698076594422673e-09 -8.820578933921297e-09 4.698076594422673e-09 -0.00019364262698218226" pbc="T T T"
Hg       2.07815212       1.46947528       3.59946495       0.00000030       0.00000053       0.00000018
Hg       6.23445634       4.40842604      10.79839487      -0.00000076       0.00000020       0.00000047
Tl      -0.00000023      -0.00000025      -0.00000041       0.00000070       0.00000107       0.00000144
Se       2.60222931       1.84005379       7.19893021       0.00276275       0.00195183      -0.00000033
Se       5.71037922       4.03784813       7.19893020      -0.00276127      -0.00195329      -0.00000059
Se       4.93334154       1.84005393       5.85306210      -0.00138161       0.00195301       0.00239252
Se       3.37926701       4.03784732       8.54479797       0.00138040      -0.00195242      -0.00239136
Se       3.37926665       4.03784764       5.85306198       0.00138099      -0.00195372       0.00239075
Se       4.93334133       1.84005388       8.54479853      -0.00138151       0.00195280      -0.00239309
