9
Lattice="6.748991158542293 1.9524358812157952e-09 3.896531784858447 2.2496637364243255 6.363009708547028 3.8965317587574053 3.739164932148997e-08 -5.527233367923147e-09 7.793063504952698" Properties=species:S:1:pos:R:3:forces:R:3 energy=-25.99290657043457 free_energy=-25.99290657043457 stress="-8.717103628441691e-05 5.741962461058847e-09 -1.6823766824103359e-09 5.741962461058847e-09 -8.716983575141057e-05 2.155972733675071e-09 -1.6823766824103359e-09 2.155972733675071e-09 -8.717620221432298e-05" pbc="T T T"
Hg       2.24966368       1.59075242       3.89653168      -0.00000006      -0.00000015      -0.00000035
Hg       6.74899100       4.77225723      11.68959524      -0.00000011       0.00000005      -0.00000020
Y       -0.00000014      -0.00000002       0.00000038      -0.00000022      -0.00000079       0.00000048
Te       2.53563496       1.79296471       7.79306364       0.00653180       0.00461857      -0.00000063
Te       6.46302057       4.57004569       7.79306387      -0.00653336      -0.00461951      -0.00000099
Te       5.48117400       1.79296383       6.09245570      -0.00326633       0.00462061       0.00565837
Te       3.51748151       4.57004459       9.49367096       0.00326641      -0.00461848      -0.00565750
Te       3.51748081       4.57004532       6.09245575       0.00326764      -0.00461929       0.00565845
Te       5.48117333       1.79296503       9.49367100      -0.00326577       0.00461899      -0.00565758
