9
Lattice="6.06879677762377 6.988033260819979e-07 3.5038216716546198 2.022932969558384 5.721716419732426 3.50382158243257 -1.317766358381847e-07 -2.024543573805837e-07 7.00764357155299" Properties=species:S:1:pos:R:3:forces:R:3 energy=-26.396400451660156 free_energy=-26.396400451660156 stress="-2.8574040698003955e-05 -1.6508730027453566e-07 8.48810444153969e-08 -1.6508730027453566e-07 -2.8653503250097856e-05 1.015897836964541e-07 8.48810444153969e-08 1.015897836964541e-07 -2.8896578442072496e-05" pbc="T T T"
Hg       2.02293271       1.43042964       3.50382176       0.00000042       0.00000137      -0.00000011
Hg       6.06879722       4.29128740      10.51146564       0.00000051      -0.00000070      -0.00000070
Y        0.00000120       0.00000079      -0.00000064       0.00000238       0.00000942       0.00000155
Se       2.36660544       1.67344278       7.00764448       0.00106305       0.00074910       0.00000821
Se       5.72511825       4.04827098       7.00764322      -0.00111051      -0.00077949      -0.00000227
Se       4.88549273       1.67344749       5.55336331      -0.00053842       0.00078185       0.00092845
Se       3.20623850       4.04827069       8.46192073       0.00055620      -0.00077068      -0.00094558
Se       3.20624009       4.04827146       5.55336522       0.00056501      -0.00076560       0.00093918
Se       4.88549229       1.67344642       8.46192361      -0.00053864       0.00077476      -0.00092870
