9
Lattice="5.918482615099249 4.620627627417474e-08 3.417037493159276 1.9728275649617815 5.57999916037865 3.417037522549234 -3.3540849883593785e-08 1.2278290480749493e-08 6.834075044413027" Properties=species:S:1:pos:R:3:forces:R:3 energy=-27.617965698242188 free_energy=-27.617965698242188 stress="0.00022282428108155727 -7.691497216910648e-09 -2.3506501634074084e-08 -7.691497216910648e-09 0.00022280032862909138 1.2037731700331733e-08 -2.3506501634074084e-08 1.2037731700331733e-08 0.0002228639496024698" pbc="T T T"
Hg       1.97282788       1.39499758       3.41703826       0.00000099      -0.00000780       0.00000193
Hg       5.91848330       4.18500040      10.25111121       0.00000198       0.00000431      -0.00000546
Y       -0.00000048       0.00000018      -0.00000027       0.00000169       0.00000039       0.00000354
S        2.19263369       1.55042637       6.83407486      -0.00822257      -0.00581241      -0.00000310
S        5.69867610       4.02957355       6.83407561       0.00821693       0.00581759       0.00000157
S        4.82216529       1.55042523       5.31591453       0.00410812      -0.00581971      -0.00711636
S        3.06914510       4.02957366       8.35223548      -0.00410674       0.00581843       0.00711887
S        3.06914416       4.02957367       5.31591432      -0.00411130       0.00581414      -0.00711844
S        4.82216555       1.55042620       8.35223620       0.00411074      -0.00581501       0.00711747
