9
Lattice="4.852093514019945 -2.780618620854826e-08 2.801357406238702 1.6173644791167918 4.5745975682531546 2.8013574050965606 7.066484648464118e-08 4.8568780612985435e-08 5.60271469008226" Properties=species:S:1:pos:R:3:forces:R:3 energy=-37.0951042175293 free_energy=-37.0951042175293 stress="-0.00020537500677164644 -4.473448722563944e-09 -1.1423465728910287e-08 -4.473448722563944e-09 -0.0002053242060355842 -5.7144255549701484e-08 -1.1423465728910287e-08 -5.7144255549701484e-08 -0.00020527516608126462" pbc="T T T"
Hg       1.61736477       1.14364937       2.80135730       0.00000140      -0.00000032      -0.00000036
Hg       4.85209344       3.43094842       8.40407333      -0.00000057       0.00000158       0.00000678
Y        0.00000002       0.00000012       0.00000020      -0.00000132      -0.00000017       0.00000111
O        1.80875347       1.27898188       5.60271471       0.00231019       0.00163309       0.00000006
O        4.66070444       3.29561561       5.60271409      -0.00231045      -0.00163276      -0.00000222
O        3.94771681       1.27898227       4.36778381      -0.00115481       0.00163317       0.00199878
O        2.52174097       3.29561555       6.83764535       0.00115596      -0.00163528      -0.00200173
O        2.52174164       3.29561554       4.36778393       0.00115520      -0.00163157       0.00199947
O        3.94771676       1.27898163       6.83764525      -0.00115559       0.00163235      -0.00200209
