9
Lattice="4.441042248755328 -8.887788562106507e-08 2.564037073448486 1.480347325162236 4.1870549134989 2.5640370860831694 8.51178621567714e-08 7.566168704687943e-08 5.128073999468592" Properties=species:S:1:pos:R:3:forces:R:3 energy=-46.27834701538086 free_energy=-46.27834701538086 stress="-0.00042104351450689137 1.7261006846069904e-08 2.6601115976632173e-08 1.7261006846069904e-08 -0.0004212255007587373 -1.9887993474299037e-08 2.6601115976632173e-08 -1.9887993474299037e-08 -0.00042103175655938685" pbc="T T T"
In       1.48034753       1.04676213       2.56403585       0.00000207      -0.00000620      -0.00000890
In       4.44104209       3.14029240       7.69210754       0.00000069       0.00000489      -0.00002067
As       0.00000005      -0.00000000      -0.00000009      -0.00000427      -0.00000406       0.00000330
O        1.47558546       1.04339592       5.12807446       0.00525606       0.00371724       0.00000396
O        4.44580372       3.14365953       5.12807588      -0.00525558      -0.00371218       0.00000359
O        3.70324939       1.04339556       3.84193207      -0.00262755       0.00372189       0.00455284
O        2.21814052       3.14365836       6.41421761       0.00262487      -0.00371939      -0.00454068
O        2.21813916       3.14365932       3.84193252       0.00262707      -0.00371552       0.00455594
O        3.70324990       1.04339627       6.41421723      -0.00262427       0.00371444      -0.00454962
