9
Lattice="5.836826661604327 -2.465346178375664e-07 3.369893879877038 1.9456086907411339 5.503013125098365 3.369893817566895 1.4793761533969932e-07 2.829367846528586e-08 6.739787503518617" Properties=species:S:1:pos:R:3:forces:R:3 energy=-31.971364974975586 free_energy=-31.971364974975586 stress="0.00018437796097714454 1.7724818945907828e-08 -8.386201955090655e-09 1.7724818945907828e-08 0.00018440491112414747 3.027402684097069e-08 -8.386201955090655e-09 3.027402684097069e-08 0.00018431092030368745" pbc="T T T"
In       1.94560875       1.37575442       3.36989446       0.00000145       0.00000377       0.00000303
In       5.83682759       4.12725925      10.10968285       0.00000213      -0.00000270       0.00000331
As      -0.00000025       0.00000006      -0.00000018       0.00000311       0.00000292       0.00000240
S        1.94591232       1.37596724       6.73978733      -0.00142539      -0.00100827      -0.00000174
S        5.83652440       4.12704436       6.73978709       0.00142407       0.00100189      -0.00000226
S        4.86386961       1.37596788       5.05510188       0.00070935      -0.00100541      -0.00123435
S        2.91856424       4.12704527       8.42447243      -0.00071311       0.00100487       0.00123113
S        2.91856515       4.12704553       5.05510250      -0.00071120       0.00100696      -0.00123245
S        4.86387043       1.37596782       8.42447246       0.00070971      -0.00100392       0.00123072
