9
Lattice="4.441853086865162 -1.5856442440599366e-07 2.5645050418484514 1.4806175974097722 4.187819044987965 2.564504953021935 -4.7364353165631387e-08 -1.4228148176555616e-07 5.1290101657343845" Properties=species:S:1:pos:R:3:forces:R:3 energy=-46.278350830078125 free_energy=-46.278350830078125 stress="0.00014945428119972348 1.5764092253789386e-08 9.369886555532503e-08 1.5764092253789386e-08 0.00014930842735338956 -6.087481807526274e-08 9.369886555532503e-08 -6.087481807526274e-08 0.00014952722995076329" pbc="T T T"
In       1.48061806       1.04695463       2.56450557       0.00000156       0.00000112       0.00000358
In       4.44185369       3.14086494       7.69351467       0.00000401       0.00000618      -0.00000231
As      -0.00000014       0.00000003      -0.00000008       0.00000046      -0.00000541       0.00000117
O        1.47578945       1.04353995       5.12901053       0.00100732       0.00071007       0.00000397
O        4.44668107       3.14427853       5.12901094      -0.00100660      -0.00070947       0.00000279
O        3.70395811       1.04354017       3.84257612      -0.00050414       0.00071323       0.00087368
O        2.21851149       3.14427872       6.41544354       0.00049841      -0.00071138      -0.00087690
O        2.21851221       3.14427756       3.84257549       0.00050235      -0.00071460       0.00086367
O        3.70395863       1.04354016       6.41544383      -0.00050330       0.00071084      -0.00087190
