9
Lattice="5.887599440410521 1.6563016771929972e-07 3.399208381764778 1.9625330449392255 5.550881987183979 3.3992088286722133 4.940815754912974e-07 8.967156997960525e-07 6.798415907755384" Properties=species:S:1:pos:R:3:forces:R:3 energy=-30.46739959716797 free_energy=-30.46739959716797 stress="-0.00019582235836423934 -3.239825829837173e-08 -4.328582647872281e-08 -3.239825829837173e-08 -0.00019579907529987395 7.0627037551673766e-09 -4.328582647872281e-08 7.0627037551673766e-09 -0.00019584201800171286" pbc="T T T"
In       1.96253207       1.38771901       3.39921079      -0.00000123      -0.00000026       0.00000331
In       5.88760038       4.16315928      10.19762355       0.00000147      -0.00000170      -0.00000174
As      -0.00000154       0.00001752      -0.00000277       0.00001395      -0.00019475       0.00003279
Se       2.09020328       1.47799825       6.79841425       0.00785393       0.00555655      -0.00000271
Se       5.75992036       4.07288226       6.79841565      -0.00777882      -0.00549500      -0.00000289
Se       4.84249661       1.47799630       5.20937949      -0.00392613       0.00554796       0.00679830
Se       3.00763759       4.07287932       8.38744825       0.00388440      -0.00550030      -0.00673321
Se       3.00764081       4.07287998       5.20938683       0.00388278      -0.00548412       0.00672019
Se       4.84250228       1.47799995       8.38745720      -0.00393032       0.00557165      -0.00681415
