9
Lattice="5.834340389351105 1.2166996237703467e-07 3.368457964719111 1.9447801732812702 5.500669330486849 3.3684580880653963 7.427130941434047e-08 2.0358540979581785e-07 6.736915800796535" Properties=species:S:1:pos:R:3:forces:R:3 energy=-31.97138214111328 free_energy=-31.97138214111328 stress="-4.227536919643171e-05 2.3579893593250745e-08 9.253152022381528e-09 2.3579893593250745e-08 -4.2305036913603544e-05 -1.1540870481496768e-08 9.253152022381528e-09 -1.1540870481496768e-08 -4.2307274270569906e-05" pbc="T T T"
In       1.94478053       1.37516920       3.36845847      -0.00000175       0.00000508       0.00000042
In       5.83433991       4.12550050      10.10537474      -0.00000081      -0.00000472       0.00000187
As       0.00000044       0.00000013       0.00000223      -0.00001267      -0.00000698      -0.00003333
S        1.94553874       1.37570465       6.73691568       0.00033522       0.00023890      -0.00000331
S        5.83358089       4.12496486       6.73691565      -0.00032008      -0.00022823      -0.00000318
S        4.86157107       1.37570418       5.05334396      -0.00017297       0.00024140       0.00029314
S        2.91755023       4.12496421       8.42048638       0.00015789      -0.00022680      -0.00027549
S        2.91755013       4.12496527       5.05334416       0.00017154      -0.00024283       0.00029325
S        4.86157070       1.37570566       8.42048604      -0.00015670       0.00022417      -0.00027376
