9
Lattice="6.428586913403097 1.3286734710930397e-07 3.7115464469422226 2.142862235027393 6.060931316073865 3.711546784187846 -1.954016514980577e-07 2.748699949632347e-07 7.423093232329997" Properties=species:S:1:pos:R:3:forces:R:3 energy=-29.214332580566406 free_energy=-29.214332580566406 stress="7.358114089583978e-06 -1.6391830115480843e-08 6.590973988807036e-09 -1.6391830115480843e-08 7.398583420581417e-06 -5.843077133249608e-09 6.590973988807036e-09 -5.843077133249608e-09 7.393853138637496e-06" pbc="T T T"
In       2.14286203       1.51523248       3.71154678      -0.00000023       0.00000046       0.00000028
In       6.42858678       4.54569891      11.13463939       0.00000011      -0.00000054       0.00000052
B       -0.00000050      -0.00000177       0.00000202       0.00000581       0.00001201      -0.00003051
Te       1.88497941       1.33288246       7.42309359      -0.00146930      -0.00103805      -0.00000237
Te       6.68646964       4.72805072       7.42309379       0.00145581       0.00103033      -0.00000248
Te       5.48609737       1.33288136       5.34398595       0.00072800      -0.00102807      -0.00126278
Te       3.08535329       4.72804815       9.50219782      -0.00073664       0.00104369       0.00127475
Te       3.08535171       4.72805027       5.34398746      -0.00072489       0.00102696      -0.00125888
Te       5.48609595       1.33288442       9.50219842       0.00074136      -0.00104679       0.00128141
