9
Lattice="4.204377697782943 -9.438706186579947e-08 2.4273987647961555 1.401459189530558 3.9639250455665995 2.427398685251316 9.253162767903125e-08 -3.199237912257586e-08 4.854797369322836" Properties=species:S:1:pos:R:3:forces:R:3 energy=-47.61156463623047 free_energy=-47.61156463623047 stress="-3.389936682651751e-05 3.3870119153789346e-08 5.1055025096502504e-08 3.3870119153789346e-08 -3.37766032316722e-05 -4.079999627037978e-08 5.1055025096502504e-08 -4.079999627037978e-08 -3.39309117407538e-05" pbc="T T T"
In       1.40145941       0.99098130       2.42739856      -0.00000069       0.00000085       0.00000005
In       4.20437775       2.97294393       7.28219597       0.00000058       0.00000107      -0.00000071
B        0.00000047       0.00000060      -0.00000009      -0.00000130      -0.00000196       0.00000099
O        1.30312500       0.92144835       4.85479730      -0.00194883      -0.00137854       0.00000060
O        4.30271201       3.04247600       4.85479744       0.00195158       0.00138509       0.00000118
O        3.55281534       0.92144822       3.55593822       0.00097513      -0.00138468      -0.00168860
O        2.05302160       3.04247676       6.15365717      -0.00097346       0.00137877       0.00168371
O        2.05302169       3.04247613       3.55593758      -0.00097549       0.00137937      -0.00168562
O        3.55281527       0.92144807       6.15365702       0.00097162      -0.00137967       0.00168967
