9
Lattice="5.568288051692969 -1.891437106857979e-07 3.21485350272201 1.8560959609504037 5.249832892922576 3.21485329133254 -1.3485784352699152e-07 -3.542569820746926e-07 6.429707239024635" Properties=species:S:1:pos:R:3:forces:R:3 energy=-34.114540100097656 free_energy=-34.114540100097656 stress="-0.00013247891911305487 -1.2286567141472915e-07 4.040879630906602e-08 -1.2286567141472915e-07 -0.00013244130241218954 -3.421350314170013e-08 4.040879630906602e-08 -3.421350314170013e-08 -0.0001323588949162513" pbc="T T T"
In       1.85609748       1.31245856       3.21485326       0.00000183       0.00000118      -0.00000167
In       5.56828790       3.93737352       9.64455922       0.00000141      -0.00000044      -0.00000408
B       -0.00000128      -0.00000005       0.00000435       0.00001430       0.00000026      -0.00006598
S        1.64352983       1.16214985       6.42970786       0.00713432       0.00504124       0.00000186
S        5.78085412       4.08768088       6.42970726      -0.00713748      -0.00503963       0.00000351
S        4.74652419       1.16215320       4.63819313      -0.00357157       0.00504720       0.00617754
S        2.67786033       4.08767868       8.22121975       0.00354677      -0.00502247      -0.00615078
S        2.67786061       4.08768128       4.63819302       0.00356081      -0.00504404       0.00618118
S        4.74652232       1.16215315       8.22121875      -0.00354996       0.00501686      -0.00614172
