9
Lattice="6.660260395922244 4.9813489638626093e-08 3.845303142271273 2.2200868436095416 6.279353769803907 3.8453031457281392 2.1677669170901484e-09 5.7666401538818865e-09 7.690606280787878" Properties=species:S:1:pos:R:3:forces:R:3 energy=-27.83273696899414 free_energy=-27.83273696899414 stress="-7.022146019153297e-05 8.894573966244934e-09 8.898300429827088e-10 8.894573966244934e-09 -7.023608486633748e-05 -3.670284909329524e-11 8.898300429827088e-10 -3.670284909329524e-11 -7.023247599136084e-05" pbc="T T T"
In       2.22008675       1.56983844       3.84530300      -0.00000027      -0.00000025      -0.00000023
In       6.66026058       4.70951545      11.53590958       0.00000045      -0.00000006       0.00000010
Bi      -0.00000005      -0.00000019       0.00000024       0.00000108       0.00000086      -0.00000213
Te       2.50525772       1.77148474       7.69060629      -0.00112689      -0.00079633       0.00000042
Te       6.37508980       4.50786935       7.69060624       0.00112587       0.00079618       0.00000012
Te       5.40763161       1.77148437       6.01491972       0.00056309      -0.00079584      -0.00097397
Te       3.47271579       4.50786892       9.36629271      -0.00056332       0.00079623       0.00097486
Te       3.47271542       4.50786936       6.01491980      -0.00056273       0.00079581      -0.00097370
Te       5.40763138       1.77148491       9.36629269       0.00056265      -0.00079657       0.00097463
