9
Lattice="5.62683450718645 1.3533252035551904e-07 3.248654472626861 1.8756115646892246 5.305030754481228 3.248654585728007 -6.452234480809408e-08 9.289590689368849e-08 6.4973090570096685" Properties=species:S:1:pos:R:3:forces:R:3 energy=-32.16508865356445 free_energy=-32.16508865356445 stress="-3.196012767148204e-05 -1.2364952617360814e-08 1.740152377749382e-08 -1.2364952617360814e-08 -3.199914135620929e-05 1.7562747700594628e-08 1.740152377749382e-08 1.7562747700594628e-08 -3.197981641278602e-05" pbc="T T T"
In       1.87561154       1.32625761       3.24865450      -0.00000042      -0.00000058      -0.00000051
In       5.62683431       3.97877332       9.74596370      -0.00000084      -0.00000060      -0.00000053
B        0.00000011       0.00000004       0.00000003      -0.00000007       0.00000073       0.00000072
Se       1.74053702       1.23074575       6.49730880       0.00421987       0.00298377      -0.00000137
Se       5.76190864       4.07428512       6.49730887      -0.00421976      -0.00298462      -0.00000063
Se       4.75656606       1.23074575       4.75600386      -0.00210975       0.00298418       0.00365532
Se       2.74588011       4.07428522       8.23861406       0.00211002      -0.00298432      -0.00365406
Se       2.74587988       4.07428542       4.75600428       0.00210952      -0.00298385       0.00365578
Se       4.75656641       1.23074571       8.23861438      -0.00210864       0.00298517      -0.00365508
