9
Lattice="6.660896386037893 -9.015840756944422e-08 3.8456704329063323 2.220298730963337 6.279953285271243 3.8456703971922126 -3.252516128883471e-08 -6.673937226686645e-08 7.6913409221478934" Properties=species:S:1:pos:R:3:forces:R:3 energy=-27.832738876342773 free_energy=-27.832738876342773 stress="-8.243036972999107e-06 3.580531204860904e-09 9.268749323609882e-09 3.580531204860904e-09 -8.267797056760173e-06 -6.810485508879083e-09 9.268749323609882e-09 -6.810485508879083e-09 -8.251611689047422e-06" pbc="T T T"
In       2.22029895       1.56998836       3.84567037       0.00000016       0.00000014      -0.00000001
In       6.66089617       4.70996472      11.53701141      -0.00000016      -0.00000024      -0.00000018
Bi      -0.00000032      -0.00000023      -0.00000091       0.00000190       0.00000094       0.00000495
Te       2.50556945       1.77170542       7.69134084      -0.00160676      -0.00113627      -0.00000042
Te       6.37562584       4.50824789       7.69134070       0.00160688       0.00113644      -0.00000047
Te       5.40811134       1.77170566       6.01555776       0.00080334      -0.00113700      -0.00139320
Te       3.47308323       4.50824825       9.36712469      -0.00080380       0.00113599       0.00139108
Te       3.47308365       4.50824764       6.01555764      -0.00080416       0.00113645      -0.00139266
Te       5.40811199       1.77170478       9.36712458       0.00080253      -0.00113630       0.00139078
