9
Lattice="6.015592499182927 2.9901534182591507e-07 3.473103616433522 2.005197718014261 5.671554861295261 3.4731037266399327 -7.532029438234305e-08 8.171534948582615e-08 6.946207363325498" Properties=species:S:1:pos:R:3:forces:R:3 energy=-29.938682556152344 free_energy=-29.938682556152344 stress="4.50126281066332e-05 -3.348791111079663e-08 -8.50978576494299e-09 -3.348791111079663e-08 4.505531978793442e-05 1.9018497887657304e-09 -8.50978576494299e-09 1.9018497887657304e-09 4.507574703893624e-05" pbc="T T T"
In       2.00519737       1.41788892       3.47310373       0.00000118      -0.00000087      -0.00000044
In       6.01559266       4.25366643      10.41931136       0.00000053      -0.00000011      -0.00000032
Bi      -0.00000069      -0.00000060      -0.00000024       0.00000297       0.00000304      -0.00000111
Se       2.40403523       1.69990949       6.94620775       0.00076857       0.00054368       0.00000053
Se       5.61675573       3.97164580       6.94620748      -0.00077245      -0.00054672       0.00000043
Se       4.81357536       1.69990964       5.55505920      -0.00038458       0.00054269       0.00066563
Se       3.20721530       3.97164517       8.33735561       0.00038454      -0.00054342      -0.00066498
Se       3.20721485       3.97164577       5.55505875       0.00038427      -0.00054313       0.00066617
Se       4.81357480       1.69991034       8.33735506      -0.00038506       0.00054483      -0.00066592
