9
Lattice="5.980064725547975 -5.35622422813788e-09 3.4525919461843957 1.9933548986281207 5.638058897365646 3.4525919545641157 -8.087145797121276e-08 -4.6921745604751034e-08 6.90518403244233" Properties=species:S:1:pos:R:3:forces:R:3 energy=-30.563804626464844 free_energy=-30.563804626464844 stress="-0.00023218218120746315 -7.735962270771779e-08 -3.158259787028328e-08 -7.735962270771779e-08 -0.0002321527572348714 3.3367562934927264e-08 -3.158259787028328e-08 3.3367562934927264e-08 -0.00023206353944260627" pbc="T T T"
In       1.99335533       1.40951488       3.45259187       0.00000067       0.00000015      -0.00000045
In       5.98006464       4.22854399      10.35777581       0.00000123      -0.00000135      -0.00000096
Bi      -0.00000027      -0.00000028       0.00000018       0.00001787       0.00000897      -0.00000752
S        2.01033313       1.42152061       6.90518404      -0.00022373      -0.00015795       0.00000010
S        5.96308689       4.21653871       6.90518405       0.00020605       0.00014590       0.00000093
S        4.97489780       1.42152062       5.19359175       0.00011066      -0.00015616      -0.00019145
S        2.99852128       4.21653794       8.61677586      -0.00011383       0.00016150       0.00019810
S        2.99852155       4.21653829       5.19359197      -0.00010972       0.00015524      -0.00019059
S        4.97489779       1.42152053       8.61677617       0.00011075      -0.00015633       0.00019205
