9
Lattice="5.986405514672455 -8.981280970188631e-08 3.4562526444494814 1.995468521647301 5.644036975956241 3.4562524687627167 1.7707582977662916e-07 -8.995994490042856e-08 6.912504982194585" Properties=species:S:1:pos:R:3:forces:R:3 energy=-30.563800811767578 free_energy=-30.563800811767578 stress="0.00029949063900858164 1.9854537569585773e-08 5.525254476168584e-09 1.9854537569585773e-08 0.00029940108652226627 -1.5458200053330984e-08 5.525254476168584e-09 -1.5458200053330984e-08 0.0002994555397890508" pbc="T T T"
In       1.99546822       1.41100921       3.45625274      -0.00000127      -0.00000037       0.00000102
In       5.98640564       4.23302688      10.36875740       0.00000064      -0.00000064      -0.00000148
Bi       0.00000010       0.00000017      -0.00000010       0.00000381       0.00000024       0.00000412
S        2.01036887       1.42154532       6.91250467      -0.00201598      -0.00142388       0.00000086
S        5.97150562       4.22249187       6.91250512       0.00201210       0.00142276      -0.00000021
S        4.98122091       1.42154454       5.19728261       0.00100657      -0.00142220      -0.00174418
S        3.00065256       4.22249175       8.62772756      -0.00100392       0.00142272       0.00174266
S        3.00065312       4.22249226       5.19728324      -0.00100690       0.00142297      -0.00174412
S        4.98122184       1.42154510       8.62772716       0.00100480      -0.00142147       0.00174135
