9
Lattice="4.484104422591787 -5.136360924611489e-08 2.5888987210391603 1.494701346082913 4.227654463049161 2.5888988590633764 8.098438320350154e-08 2.2630904375137748e-07 5.177797301809381" Properties=species:S:1:pos:R:3:forces:R:3 energy=-41.64426803588867 free_energy=-41.64426803588867 stress="0.00019636700744740665 1.6425036619693856e-07 -2.805303438435658e-07 1.6425036619693856e-07 0.00019657917437143624 -2.8454405764932744e-07 -2.805303438435658e-07 -2.8454405764932744e-07 0.00019688665634021163" pbc="T T T"
In       1.49470846       1.05691245       2.58889730       0.00004516      -0.00000834      -0.00000523
In       4.48410599       3.17074012       7.76670051       0.00001804      -0.00000661       0.00002846
Ga       0.00000027       0.00000030       0.00000029       0.00000424      -0.00001081      -0.00000006
O        1.55435151       1.09909420       5.17779690       0.00441742       0.00313848      -0.00000838
O        4.42445221       3.12856226       5.17779518      -0.00442725      -0.00312042      -0.00000948
O        3.70692696       1.09909411       3.93500535      -0.00222602       0.00313687       0.00382662
O        2.27187602       3.12856069       6.42058719       0.00219834      -0.00312781      -0.00383192
O        2.27187801       3.12856223       3.93500753       0.00221100      -0.00312364       0.00383073
O        3.70692411       1.09909215       6.42058907      -0.00224063       0.00312316      -0.00383025
