9
Lattice="5.556519008098206 4.4497941572021536e-08 3.208057585883385 1.8521729763825334 5.238735807800743 3.2080577041304124 -9.944682471463483e-08 7.450288729311254e-08 6.416115344013741" Properties=species:S:1:pos:R:3:forces:R:3 energy=-29.910003662109375 free_energy=-29.910003662109375 stress="-0.00010579320223769173 1.3333966819573106e-07 8.710634880060297e-09 1.3333966819573106e-07 -0.00010580453090369701 4.735745129380575e-09 8.710634880060297e-09 4.735745129380575e-09 -0.00010597195796435699" pbc="T T T"
In       1.85217213       1.30968586       3.20805738      -0.00000130       0.00000937      -0.00000323
In       5.55652157       3.92905126       9.62417146       0.00001012      -0.00000231      -0.00000819
Ga       0.00000015      -0.00000034      -0.00000040       0.00000247       0.00000424       0.00000662
S        1.91816447       1.35634775       6.41611676      -0.00106062      -0.00074843       0.00000911
S        5.49052698       3.88238870       6.41611573       0.00105116       0.00074583       0.00000663
S        4.59743792       1.35634687       4.86923646       0.00053060      -0.00074774      -0.00091118
S        2.81125248       3.88238963       7.96299485      -0.00052828       0.00073928       0.00090645
S        2.81125304       3.88238703       4.86923556      -0.00053487       0.00073808      -0.00091496
S        4.59743864       1.35634689       7.96299484       0.00053080      -0.00073823       0.00090858
