9
Lattice="4.483847389842343 6.571857619430831e-09 2.588750448556333 1.494615825320189 4.227411707459841 2.588750409567755 3.312913817098379e-08 -2.4325231290577262e-08 5.177500839731309" Properties=species:S:1:pos:R:3:forces:R:3 energy=-41.64427185058594 free_energy=-41.64427185058594 stress="0.00014483195263892412 5.2930040794763045e-08 6.57806182857712e-08 5.2930040794763045e-08 0.0001447335525881499 2.143408828203519e-08 6.57806182857712e-08 2.143408828203519e-08 0.0001449781411793083" pbc="T T T"
In       1.49461624       1.05685384       2.58874996       0.00000353       0.00000591      -0.00000473
In       4.48384716       3.17055848       7.76624985      -0.00000254      -0.00000047      -0.00000976
Ga       0.00000005       0.00000008       0.00000020       0.00000040       0.00000394      -0.00000580
O        1.55456157       1.09924118       5.17750062      -0.00169790      -0.00119704       0.00000065
O        4.42390181       3.12817014       5.17750121       0.00169396       0.00119334       0.00000155
O        3.70656640       1.09924030       3.93504076       0.00084612      -0.00120139      -0.00146282
O        2.27189696       3.12817021       6.41996183      -0.00084606       0.00119597       0.00146896
O        2.27189671       3.12817061       3.93504015      -0.00084382       0.00119650      -0.00146359
O        3.70656621       1.09924192       6.41996214       0.00084594      -0.00119710       0.00147587
