9
Lattice="5.693816868691549 3.925810722939389e-07 3.2873273495596456 1.8979393435208154 5.368182941675814 3.2873273198353123 2.2860271450061634e-07 1.252419654201027e-07 6.574654303167704" Properties=species:S:1:pos:R:3:forces:R:3 energy=-28.634132385253906 free_energy=-28.634132385253906 stress="0.0002828409487847239 -9.106213383347495e-08 -4.497751504572989e-08 -9.106213383347495e-08 0.00028269068570807576 -2.5485203281050417e-08 -4.497751504572989e-08 -2.5485203281050417e-08 0.0002826760755851865" pbc="T T T"
In       1.89793896       1.34204554       3.28732730      -0.00000076      -0.00000168       0.00000101
In       5.69381733       4.02613711       9.86198187       0.00000099      -0.00000100       0.00000026
Ga       0.00000030       0.00000043       0.00000071      -0.00000210       0.00000096      -0.00000290
Se       2.15532276       1.52404174       6.57465410      -0.00133479      -0.00094710      -0.00000066
Se       5.43643576       3.84414158       6.57465460       0.00134000       0.00094761       0.00000054
Se       4.61615564       1.52404227       5.15389104       0.00066786      -0.00094818      -0.00115605
Se       2.97560045       3.84414024       7.99542004      -0.00066763       0.00094685       0.00116238
Se       2.97559926       3.84414106       5.15388841      -0.00067087       0.00094840      -0.00116189
Se       4.61615530       1.52404383       7.99541778       0.00066739      -0.00094582       0.00115733
