9
Lattice="6.393503785841233 1.4831903155360477e-07 3.691290468834022 2.131168213539345 6.027852050372484 3.691290217532411 1.1454710831256317e-07 -2.267833107346667e-07 7.382580739266651" Properties=species:S:1:pos:R:3:forces:R:3 energy=-27.143075942993164 free_energy=-27.143075942993164 stress="-1.4888330952089746e-05 -2.3673893068121288e-08 2.24002718596239e-08 -2.3673893068121288e-08 -1.4856841517030261e-05 -7.532827694944899e-10 2.24002718596239e-08 -7.532827694944899e-10 -1.485918528487673e-05" pbc="T T T"
In       2.13116803       1.50696324       3.69128950       0.00000016      -0.00000004       0.00000027
In       6.39350422       4.52088788      11.07387224      -0.00000019      -0.00000026       0.00000074
Ga       0.00000017      -0.00000021       0.00000255      -0.00000037      -0.00000019      -0.00000839
Te       2.29197974       1.62067519       7.38258039       0.00133426       0.00094382      -0.00000215
Te       6.23269069       4.40717703       7.38257976      -0.00133187      -0.00094268      -0.00000116
Te       5.24751365       1.62067478       5.67620341      -0.00066953       0.00094509       0.00115792
Te       3.27716006       4.40717558       9.08895688       0.00066540      -0.00094086      -0.00115201
Te       3.27716033       4.40717824       5.67620405       0.00066810      -0.00094477       0.00115702
Te       5.24751161       1.62067602       9.08895697      -0.00066602       0.00093985      -0.00115210
