9
Lattice="6.393651963803204 2.6636978943998257e-08 3.6913767403707554 2.13121734081449 6.027993028537998 3.6913767500127816 2.065394867708186e-08 2.6413582299813423e-08 7.382753444967811" Properties=species:S:1:pos:R:3:forces:R:3 energy=-27.143077850341797 free_energy=-27.143077850341797 stress="1.0415025144538959e-06 -8.64084448437552e-09 -2.3321378161966777e-09 -8.64084448437552e-09 1.0337906815038878e-06 6.0423768211137485e-09 -2.3321378161966777e-09 6.0423768211137485e-09 1.0382866548752645e-06" pbc="T T T"
In       2.13121734       1.50699824       3.69137673       0.00000005       0.00000003       0.00000008
In       6.39365195       4.52099471      11.07413012      -0.00000004      -0.00000027      -0.00000002
Ga       0.00000011      -0.00000028      -0.00000003      -0.00000034       0.00000116      -0.00000002
Te       2.29224002       1.62085854       7.38275340      -0.00003926      -0.00002725      -0.00000006
Te       6.23262926       4.40713452       7.38275356       0.00003847       0.00002725      -0.00000003
Te       5.24753163       1.62085878       5.67651508       0.00001940      -0.00002792      -0.00003409
Te       3.27733750       4.40713467       9.08899219      -0.00001913       0.00002729       0.00003329
Te       3.27733749       4.40713448       5.67651481      -0.00001888       0.00002735      -0.00003327
Te       5.24753198       1.62085866       9.08899180       0.00001970      -0.00002761       0.00003414
