9
Lattice="4.825044946270939 -7.621225367054043e-10 2.7857410208774103 1.6083482667218985 4.549096251150018 2.7857411039867768 -4.015545225555218e-08 7.33935711132612e-08 5.571482111306077" Properties=species:S:1:pos:R:3:forces:R:3 energy=-48.20561981201172 free_energy=-48.20561981201172 stress="0.00020297140872571617 2.6679265019424747e-08 3.843570794970219e-08 2.6679265019424747e-08 0.00020294416754040867 1.3457244207870644e-09 3.843570794970219e-08 1.3457244207870644e-09 0.00020303556811995804" pbc="T T T"
In       1.60834950       1.13727416       2.78574038       0.00000871      -0.00000194      -0.00000579
In       4.82504483       3.41182184       8.35722157       0.00000034      -0.00000088      -0.00001466
Ir      -0.00000006       0.00000012       0.00000011      -0.00000299      -0.00000568      -0.00000733
O        1.54366618       1.09153688       5.57148216       0.00174326       0.00123188       0.00000219
O        4.88972667       3.45755975       5.57148293      -0.00173917      -0.00122489       0.00000639
O        4.05321180       1.09153663       4.12259526      -0.00087564       0.00123356       0.00151128
O        2.38018138       3.45755908       7.02036931       0.00086941      -0.00123358      -0.00150055
O        2.38018097       3.45755947       4.12259574       0.00086935      -0.00123142       0.00150818
O        4.05321150       1.09153746       7.02036955      -0.00087321       0.00123316      -0.00150055
