9
Lattice="5.467552430997159 4.757128297450204e-08 3.1566925906953074 1.8225175240299778 5.154857903294725 3.156692586918826 -7.852320823153122e-09 -1.0177634440617372e-08 6.313385194991193" Properties=species:S:1:pos:R:3:forces:R:3 energy=-38.520957946777344 free_energy=-38.520957946777344 stress="0.0001405975635861978 3.4003280191541307e-09 -2.960628853188041e-09 3.4003280191541307e-09 0.00014059030218049884 -3.608839671542796e-09 -2.960628853188041e-09 -3.608839671542796e-09 0.00014060334069654346" pbc="T T T"
In       1.82251711       1.28871448       3.15669255       0.00000001       0.00000008       0.00000030
In       5.46755218       3.86614364       9.47007765      -0.00000088      -0.00000011       0.00000008
Ir      -0.00000001      -0.00000020       0.00000001      -0.00000048       0.00000017       0.00000107
S        1.87308165       1.32446856       6.31338546      -0.00280136      -0.00198114       0.00000116
S        5.41698868       3.83038932       6.31338561       0.00280118       0.00197965       0.00000107
S        4.53101173       1.32446866       4.77882839       0.00140041      -0.00198048      -0.00242603
S        2.75905780       3.83038969       7.84794157      -0.00140059       0.00198078       0.00242400
S        2.75905863       3.83038913       4.77882840      -0.00139937       0.00198084      -0.00242698
S        4.53101200       1.32446843       7.84794174       0.00140077      -0.00197989       0.00242561
