9
Lattice="6.010616078783491 -6.258754436488608e-08 3.4702308488470965 2.0035386488911757 5.66686306806754 3.4702308229158065 3.385804276451022e-08 -7.818011906721707e-09 6.940461639050355" Properties=species:S:1:pos:R:3:forces:R:3 energy=-38.50633239746094 free_energy=-38.50633239746094 stress="2.4161734472727403e-05 -3.433319406553892e-08 1.305480168412032e-08 -3.433319406553892e-08 2.4177783416234888e-05 -2.553818312378553e-08 1.305480168412032e-08 -2.553818312378553e-08 2.4192351702367887e-05" pbc="T T T"
In       2.00353872       1.41671576       3.47023083      -0.00000009       0.00000007      -0.00000033
In       6.01061598       4.25014734      10.41069245      -0.00000003      -0.00000003      -0.00000028
Mo      -0.00000021      -0.00000022      -0.00000088       0.00000165       0.00000257       0.00001021
Se       1.99522538       1.41083722       6.94046184      -0.00325689      -0.00230250       0.00000110
Se       6.01892951       4.25602583       6.94046191       0.00325379       0.00230031       0.00000060
Se       5.01300327       1.41083743       5.19814686       0.00163125      -0.00230540      -0.00282340
Se       3.00115129       4.25602596       8.68277676      -0.00162664       0.00229962       0.00281724
Se       3.00115157       4.25602550       5.19814684      -0.00163096       0.00230694      -0.00282444
Se       5.01300348       1.41083716       8.68277662       0.00162779      -0.00230153       0.00281948
