9
Lattice="5.733885602643857 -8.780923213680907e-08 3.3104603722022166 1.9112951107510685 5.405958791558557 3.310460384920502 -6.557433959204779e-08 -3.0791436354524946e-08 6.620920857982564" Properties=species:S:1:pos:R:3:forces:R:3 energy=-41.610076904296875 free_energy=-41.610076904296875 stress="9.82530546025373e-05 -3.57077105661574e-08 7.061251583451167e-09 -3.57077105661574e-08 9.824177686823532e-05 -1.9754806679372905e-09 7.061251583451167e-09 -1.9754806679372905e-09 9.828441397985443e-05" pbc="T T T"
In       1.91129575       1.35148961       3.31046101       0.00000096      -0.00000027       0.00000232
In       5.73388443       4.05446941       9.93138187      -0.00000177       0.00000022       0.00000214
Mo       0.00000031      -0.00000005       0.00000135      -0.00000175      -0.00000129      -0.00000820
S        1.89433040       1.33949372       6.62092053      -0.00238042      -0.00168242      -0.00000317
S        5.75085024       4.06646482       6.62092035       0.00238314       0.00168473      -0.00000251
S        4.78672017       1.33949354       4.95099841       0.00118912      -0.00168276      -0.00206164
S        2.85846081       4.06646391       8.29084227      -0.00119527       0.00168999       0.00206593
S        2.85846078       4.06646489       4.95099828      -0.00118999       0.00168185      -0.00206172
S        4.78671980       1.33949473       8.29084232       0.00119598      -0.00168998       0.00206704
