9
Lattice="4.7135965701568 -5.231835116085492e-08 2.7213962409414347 1.5711988051721857 4.444021573303964 2.7213962447874946 -1.503390159815661e-07 -1.0159528556842685e-07 5.442792742277696" Properties=species:S:1:pos:R:3:forces:R:3 energy=-48.880794525146484 free_energy=-48.880794525146484 stress="0.0002256156731164083 -1.0607872980017419e-07 1.708748342821309e-08 -1.0607872980017419e-07 0.00022542702208738774 2.4068531612186916e-09 1.708748342821309e-08 2.4068531612186916e-09 0.00022545493266079575" pbc="T T T"
In       1.57119862       1.11100802       2.72139570      -0.00000142       0.00002596      -0.00000430
In       4.71359711       3.33301690       8.16418794       0.00001136       0.00001135      -0.00000867
Mo       0.00000024       0.00000035      -0.00000005       0.00000060       0.00000253      -0.00000422
O        1.57148920       1.11121018       5.44279252      -0.00214720      -0.00152433      -0.00000067
O        4.71330644       3.33281007       5.44279329       0.00215030       0.00151259       0.00000577
O        3.92785198       1.11121026       4.08234634       0.00107539      -0.00152344      -0.00186193
O        2.35694261       3.33280933       6.80323979      -0.00108421       0.00150859       0.00187242
O        2.35694274       3.33281022       4.08234624      -0.00108135       0.00151592      -0.00186372
O        3.92785177       1.11121024       6.80323886       0.00107646      -0.00152940       0.00186568
