9
Lattice="4.389332235436033 2.6213265664531718e-08 2.534182045062114 1.4631107282243492 4.138302084260575 2.5341821171761993 -1.0444317765567882e-07 1.4468892623785828e-08 5.068364271025123" Properties=species:S:1:pos:R:3:forces:R:3 energy=-41.751094818115234 free_energy=-41.751094818115234 stress="6.447648775065318e-05 -1.769420236996666e-07 1.3531029630087232e-08 -1.769420236996666e-07 6.398792174877599e-05 4.1071071876785936e-08 1.3531029630087232e-08 4.1071071876785936e-08 6.443675374612212e-05" pbc="T T T"
In       1.46311087       1.03457552       2.53418188       0.00001128      -0.00000423       0.00000066
In       4.38933272       3.10372604       7.60254617       0.00000773      -0.00000088      -0.00000143
N       -0.00010640       0.00001401       0.00000482      -0.00343513       0.00044790       0.00015112
O        1.34229549       0.94914736       5.06836409      -0.00479388      -0.00335473       0.00000250
O        4.51021252       3.18920298       5.06836437       0.00690854       0.00489545       0.00000244
O        3.71821146       0.94910643       3.69659530       0.00327730      -0.00466317      -0.00570905
O        2.13425296       3.18916315       6.44009235      -0.00257838       0.00360233       0.00441158
O        2.13425183       3.18916462       3.69663344      -0.00262624       0.00367075      -0.00449061
O        3.71820978       0.94910856       6.44013068       0.00322944      -0.00459373       0.00563443
