9
Lattice="4.389048982684842 -3.0789803074401554e-08 2.534018556988581 1.4630163776103755 4.138034050289235 2.534018420021986 4.501196567741853e-08 -1.3592081962403744e-07 5.068037036014088" Properties=species:S:1:pos:R:3:forces:R:3 energy=-41.75109100341797 free_energy=-41.75109100341797 stress="-0.0005659047164954245 1.2115974357129744e-07 4.582533819075252e-08 1.2115974357129744e-07 -0.0005659731104969978 4.3327609944299184e-08 4.582533819075252e-08 4.3327609944299184e-08 -0.0005660722381435335" pbc="T T T"
In       1.46301680       1.03450857       2.53401941      -0.00000036       0.00000128       0.00000141
In       4.38904811       3.10352599       7.60205560      -0.00000017       0.00000049       0.00000297
N       -0.00000487       0.00001213      -0.00000401      -0.00015452       0.00039342      -0.00013184
O        1.34174471       0.94875595       5.06803720       0.00610065       0.00431794       0.00000188
O        4.51031827       3.18927575       5.06803651      -0.00618875      -0.00437415      -0.00000223
O        3.71817683       0.94875591       3.69600192      -0.00302947       0.00428700       0.00524747
O        2.13389078       3.18927425       6.44006676       0.00311506      -0.00440460      -0.00539696
O        2.13389183       3.18927241       3.69600865       0.00314838      -0.00445890       0.00546181
O        3.71817900       0.94875403       6.44007369      -0.00299096       0.00423735      -0.00518513
