9
Lattice="4.319989799960987 1.2833426065744697e-07 2.494147790840383 1.439996659125139 4.0729259333974515 2.4941478979790914 -1.8479742704332368e-08 1.1815042764170297e-07 4.988295613688613" Properties=species:S:1:pos:R:3:forces:R:3 energy=-50.9467887878418 free_energy=-50.9467887878418 stress="-0.00012846074241679162 -4.52223041236266e-08 2.6342453551819744e-08 -4.52223041236266e-08 -0.00012852500367444009 5.456436014128485e-08 2.6342453551819744e-08 5.456436014128485e-08 -0.00012817508832085878" pbc="T T T"
In       1.43999692       1.01823153       2.49414779      -0.00000104       0.00000022      -0.00000005
In       4.31998943       3.05469463       7.48244383       0.00000106       0.00000020      -0.00000069
P        0.00000006       0.00000004       0.00000017      -0.00000029      -0.00000200      -0.00000010
O        1.38101312       0.97652393       4.98829567       0.00070119       0.00049686      -0.00000071
O        4.37897353       3.09640197       4.98829566      -0.00069690      -0.00049531      -0.00000029
O        3.62948318       0.97652408       3.69014063      -0.00034958       0.00049055       0.00060320
O        2.13050332       3.09640210       6.28645072       0.00034887      -0.00048935      -0.00060391
O        2.13050339       3.09640235       3.69014063       0.00034845      -0.00049317       0.00060415
O        3.62948289       0.97652417       6.28645083      -0.00035167       0.00049222      -0.00060320
