9
Lattice="5.74575766125035 4.776763184786053e-08 3.3173145875998533 1.9152525699269278 5.417152342526684 3.317314637584985 -2.1950164171018252e-08 4.569794132467399e-08 6.634629213218393" Properties=species:S:1:pos:R:3:forces:R:3 energy=-31.83773422241211 free_energy=-31.83773422241211 stress="-0.00012902783055324107 -1.1669524235813356e-09 1.2712915165025152e-08 -1.1669524235813356e-09 -0.000128974235849455 2.2623969364587992e-09 1.2712915165025152e-08 2.2623969364587992e-09 -0.00012898255954496562" pbc="T T T"
In       1.91525244       1.35428831       3.31731469      -0.00000055       0.00000098       0.00000088
In       5.74575796       4.06286440       9.95194440       0.00000225       0.00000001       0.00000280
P        0.00000017      -0.00000013       0.00000013      -0.00000059       0.00000060      -0.00000548
Se       1.88581276       1.33347110       6.63462915       0.00100482       0.00071038      -0.00000021
Se       5.77519735       4.08368143       6.63462917      -0.00100452      -0.00071026      -0.00000071
Se       4.80285112       1.33347106       4.95047644      -0.00050279       0.00071026       0.00087029
Se       2.85815907       4.08368106       8.31878186       0.00050066      -0.00070906      -0.00086823
Se       2.85815892       4.08368129       4.95047619       0.00050175      -0.00071059       0.00086913
Se       4.80285106       1.33347122       8.31878187      -0.00050105       0.00070770      -0.00086838
