9
Lattice="5.7546694186333935 1.0478295846841656e-07 3.3224598975457558 1.9182232250946685 5.4255543034739455 3.3224599204782956 3.291651065984875e-08 5.136201192732601e-08 6.644919738078439" Properties=species:S:1:pos:R:3:forces:R:3 energy=-34.74839401245117 free_energy=-34.74839401245117 stress="-8.733704453334212e-05 5.593084040356189e-08 9.813326151686397e-09 5.593084040356189e-08 -8.737493772059679e-05 -1.6061704855019343e-08 9.813326151686397e-09 -1.6061704855019343e-08 -8.741257624933496e-05" pbc="T T T"
In       1.91822294       1.35638853       3.32245991       0.00000052       0.00000023       0.00000057
In       5.75466958       4.06916588       9.96737961      -0.00000045       0.00000003       0.00000022
Rh       0.00000041       0.00000023      -0.00000003      -0.00000467      -0.00000207       0.00000264
Se       1.99222177       1.40871350       6.64491968       0.00370537       0.00261988       0.00000001
Se       5.68067075       4.01684078       6.64491976      -0.00370134      -0.00261688      -0.00000021
Se       4.75855864       1.40871345       5.04777435      -0.00185357       0.00262146       0.00320992
Se       2.91433392       4.01684127       8.24206538       0.00185439      -0.00262271      -0.00321198
Se       2.91433383       4.01684101       5.04777419       0.00185356      -0.00262152       0.00320934
Se       4.75855885       1.40871320       8.24206541      -0.00185388       0.00262164      -0.00321054
