9
Lattice="4.661478436997905 -1.566843830681774e-08 2.6913058475948177 1.5538261101241886 4.394884247440164 2.691305883568583 -6.657287493825258e-08 -3.0154733883185727e-09 5.382611810497247" Properties=species:S:1:pos:R:3:forces:R:3 energy=-45.446659088134766 free_energy=-45.446659088134766 stress="0.00048715906450524926 -3.8716859052101427e-08 -7.1999641804154635e-09 -3.8716859052101427e-08 0.0004869664553552866 1.840236052430555e-08 -7.1999641804154635e-09 1.840236052430555e-08 0.0004870326374657452" pbc="T T T"
In       1.55382570       1.09872311       2.69130562      -0.00000362       0.00001146      -0.00000532
In       4.66147952       3.29616214       8.07391701       0.00001206      -0.00000364       0.00000070
Rh       0.00000012      -0.00000014       0.00000004      -0.00000049       0.00000460       0.00001667
O        1.55316833       1.09825628       5.38261135      -0.00535369      -0.00378093      -0.00000730
O        4.66213628       3.29662759       5.38261232       0.00535414       0.00377814       0.00001026
O        3.88489484       1.09825679       4.03638961       0.00268409      -0.00378388      -0.00464106
O        2.33040877       3.29662706       6.72883401      -0.00268155       0.00376779       0.00463185
O        2.33041043       3.29662855       4.03639012      -0.00268184       0.00378582      -0.00463670
O        3.88489400       1.09825557       6.72883403       0.00267051      -0.00377938       0.00463116
