9
Lattice="5.392055493861708 -1.0839881282267063e-07 3.11310478414294 1.7973516358288226 5.08367882037676 3.1131049456720894 -1.980368831382904e-08 1.8382866945103429e-07 6.226209602586892" Properties=species:S:1:pos:R:3:forces:R:3 energy=-37.14738082885742 free_energy=-37.14738082885742 stress="9.899620636133477e-05 -1.0679122652845763e-07 -5.217682996772055e-08 -1.0679122652845763e-07 9.904705075314268e-05 3.3476965199952247e-08 -5.217682996772055e-08 3.3476965199952247e-08 9.907466301228851e-05" pbc="T T T"
In       1.79735239       1.27092079       3.11310484      -0.00000048       0.00000178       0.00000016
In       5.39205509       3.81275872       9.33931471      -0.00000224      -0.00000062       0.00000039
Rh      -0.00000046       0.00000013       0.00000025       0.00000330       0.00000000      -0.00000594
S        1.87116470       1.32311292       6.22620962      -0.00112265      -0.00079396      -0.00000010
S        5.31824288       3.76056532       6.22620989       0.00112087       0.00079066      -0.00000029
S        4.45647246       1.32311392       4.73358108       0.00056356      -0.00079551      -0.00097626
S        2.73293470       3.76056477       7.71883773      -0.00056568       0.00080049       0.00097865
S        2.73293418       3.76056537       4.73358108      -0.00056085       0.00079510      -0.00097275
S        4.45647237       1.32311382       7.71883814       0.00056401      -0.00079781       0.00097597
