9
Lattice="5.784473767252171 -1.2093264741500897e-08 3.3396674449973287 1.9281579266746642 5.453654062093938 3.339667417875251 1.9503132227790577e-08 -1.9426783577662182e-08 6.679334856214217" Properties=species:S:1:pos:R:3:forces:R:3 energy=-36.41255569458008 free_energy=-36.41255569458008 stress="-0.00016952125588431954 7.519773248532147e-09 -1.6214911635614726e-09 7.519773248532147e-09 -0.00016955075261648744 -3.669451686949543e-10 -1.6214911635614726e-09 -3.669451686949543e-10 -0.00016954918100964278" pbc="T T T"
In       1.92815778       1.36341351       3.33966767      -0.00000088      -0.00000062      -0.00000047
In       5.78447371       4.09024057      10.01900244       0.00000083      -0.00000084       0.00000131
Ru      -0.00000010      -0.00000020      -0.00000029       0.00000050       0.00000031       0.00000124
Se       1.99789636       1.41272604       6.67933516       0.00154820       0.00109573       0.00000029
Se       5.71473538       4.04092792       6.67933506      -0.00154819      -0.00109510      -0.00000036
Se       4.78552560       1.41272590       5.06989619      -0.00077480       0.00109558       0.00134204
Se       2.92710622       4.04092819       8.28877335       0.00077467      -0.00109531      -0.00134268
Se       2.92710623       4.04092816       5.06989609       0.00077495      -0.00109497       0.00134195
Se       4.78552567       1.41272608       8.28877320      -0.00077529       0.00109527      -0.00134340
