9
Lattice="5.306210745844317 -9.447198369236459e-09 3.0635417047690927 1.7687368178555438 5.00274343967222 3.0635418580884695 -9.556746217368365e-08 1.202007688108322e-07 6.127083575065902" Properties=species:S:1:pos:R:3:forces:R:3 energy=-38.756404876708984 free_energy=-38.756404876708984 stress="0.00038243408198468387 9.188940275350888e-09 -3.668840520276717e-08 9.188940275350888e-09 0.0003824749728664756 6.270069263791811e-08 -3.668840520276717e-08 6.270069263791811e-08 0.0003824325103778392" pbc="T T T"
In       1.76873670       1.25068593       3.06354167      -0.00000014       0.00000086      -0.00000078
In       5.30621081       3.75205713       9.19062550      -0.00000080       0.00000030       0.00000018
Ru      -0.00000066       0.00000057      -0.00000013      -0.00000031      -0.00000032      -0.00000043
S        1.86521993       1.31890997       6.12708385      -0.00437880      -0.00309840       0.00000073
S        5.20972789       3.68383331       6.12708356       0.00438082       0.00309658      -0.00000014
S        4.37360044       1.31891010       4.67886906       0.00218979      -0.00309741      -0.00379324
S        2.70134711       3.68383387       7.57529758      -0.00219053       0.00309849       0.00379604
S        2.70134670       3.68383400       4.67886931      -0.00218740       0.00309542      -0.00379169
S        4.37360089       1.31890948       7.57529785       0.00218734      -0.00309536       0.00378925
