9
Lattice="4.788607836986139 1.9100591719090505e-08 2.764703993527561 1.596202639152883 4.514742721736909 2.764703978257885 4.047575948772648e-08 9.919207120058206e-09 5.5294079169490695" Properties=species:S:1:pos:R:3:forces:R:3 energy=-49.42710876464844 free_energy=-49.42710876464844 stress="-4.118061042390764e-06 -7.196735651859854e-08 1.715184971828876e-08 -7.196735651859854e-08 -4.161833203397691e-06 -3.527795300328762e-08 1.715184971828876e-08 -3.527795300328762e-08 -4.086878561793128e-06" pbc="T T T"
In       1.59620210       1.12868532       2.76470399      -0.00000508      -0.00000126       0.00000069
In       4.78860677       3.38605787       8.29411123      -0.00000905       0.00000580      -0.00000678
Ru       0.00000009       0.00000013      -0.00000014      -0.00000084      -0.00000660       0.00000046
O        1.52927937       1.08136307       5.52940807       0.00107348       0.00075421       0.00000199
O        4.85553157       3.43337904       5.52940843      -0.00106573      -0.00075459       0.00000206
O        4.02396836       1.08136327       4.08909873      -0.00053179       0.00074971       0.00092328
O        2.36084279       3.43337938       6.96971745       0.00053613      -0.00075001      -0.00091973
O        2.36084258       3.43337916       4.08909828       0.00053453      -0.00075042       0.00091985
O        4.02396852       1.08136370       6.96971753      -0.00053175       0.00075334      -0.00092140
