9
Lattice="6.563170748495122 -1.864525043637074e-09 3.789248407894801 2.1877235515366777 6.187816872616762 3.789248459054585 -4.8685306071435226e-08 2.8231968413396548e-08 7.578496900115024" Properties=species:S:1:pos:R:3:forces:R:3 energy=-28.053693771362305 free_energy=-28.053693771362305 stress="-0.00013499004126060754 3.440963958212251e-09 3.7819136711192414e-10 3.440963958212251e-09 -0.00013499014312401414 -5.072962494523381e-09 3.7819136711192414e-10 -5.072962494523381e-09 -0.00013499798660632223" pbc="T T T"
In       2.18772350       1.54695422       3.78924851      -0.00000011      -0.00000039      -0.00000023
In       6.56317075       4.64086264      11.36774538      -0.00000003       0.00000073      -0.00000009
Sb      -0.00000011       0.00000013       0.00000001       0.00000016      -0.00000097      -0.00000036
Te       2.41152744       1.70520756       7.57849658      -0.00252640      -0.00178696       0.00000082
Te       6.33936680       4.48260926       7.57849660       0.00252689       0.00178690       0.00000049
Te       5.35740677       1.70520791       5.87769269       0.00126353      -0.00178696      -0.00218751
Te       3.39348697       4.48260985       9.27930132      -0.00126278       0.00178581       0.00218739
Te       3.39348751       4.48260897       5.87769263      -0.00126357       0.00178747      -0.00218759
Te       5.35740734       1.70520706       9.27930127       0.00126234      -0.00178553       0.00218709
