9
Lattice="5.902100838172754 7.946105839337328e-08 3.407579519538468 1.967367003934039 5.564554196162658 3.407579549052907 -1.9551076311148668e-08 2.2322993209513472e-08 6.815159072940356" Properties=species:S:1:pos:R:3:forces:R:3 energy=-31.63179588317871 free_energy=-31.63179588317871 stress="-0.00014240044401958585 5.2521837545782546e-08 -1.2205443766788449e-08 5.2521837545782546e-08 -0.0001424346846761182 3.5989991431506496e-08 -1.2205443766788449e-08 3.5989991431506496e-08 -0.00014244641351979226" pbc="T T T"
In       1.96736683       1.39113869       3.40757955      -0.00000067      -0.00000045       0.00000034
In       5.90210114       4.17341557      10.22273825       0.00000033       0.00000008       0.00000022
Sb       0.00000089       0.00000041      -0.00000027      -0.00002117      -0.00001145       0.00001406
S        1.99856069       1.41319596       6.81515906       0.00044745       0.00031596       0.00000030
S        5.87090638       4.15135775       6.81515899      -0.00042331      -0.00029996       0.00000071
S        4.90282023       1.41319604       5.13838423      -0.00021657       0.00030345       0.00037473
S        2.96664746       4.15135858       8.49193420       0.00022078      -0.00031385      -0.00038397
S        2.96664733       4.15135815       5.13838415       0.00021619      -0.00030804       0.00037712
S        4.90282042       1.41319614       8.49193438      -0.00022337       0.00031397      -0.00038368
