9
Lattice="4.67247342446412 4.65826326124007e-08 2.6976537982262636 1.55749118030675 4.405250162345813 2.697653807059451 -1.134478911272821e-07 -6.940140500051265e-08 5.395307792950043" Properties=species:S:1:pos:R:3:forces:R:3 energy=-44.6068000793457 free_energy=-44.6068000793457 stress="-3.4187702112831175e-05 4.451277035855128e-08 5.532422520104774e-08 4.451277035855128e-08 -3.428773197811097e-05 -2.0807966905067588e-08 5.532422520104774e-08 -2.0807966905067588e-08 -3.418272171984427e-05" pbc="T T T"
In       1.55748891       1.10131288       2.69765458      -0.00002450       0.00000377       0.00001068
In       4.67247213       3.30393796       8.09296069      -0.00001818       0.00000501      -0.00001359
Sb      -0.00000025       0.00000010      -0.00000009       0.00000505      -0.00000092      -0.00000895
O        1.58282372       1.11922416       5.39530756      -0.00275064      -0.00195354      -0.00000074
O        4.64714165       3.28602447       5.39530885       0.00276059       0.00194430       0.00000953
O        3.88106260       1.11922510       4.06841899       0.00138417      -0.00194442      -0.00237697
O        2.34890294       3.28602598       6.72219669      -0.00137189       0.00194824       0.00238228
O        2.34890316       3.28602467       4.06841800      -0.00137132       0.00194246      -0.00238740
O        3.88106293       1.11922511       6.72219620       0.00138652      -0.00194478       0.00238544
