9
Lattice="5.904198591076023 1.6030591421323076e-07 3.408790766625293 1.968066333046526 5.5665320282174875 3.408790792808124 -4.641852034815447e-08 -7.555636413578226e-10 6.817581613649819" Properties=species:S:1:pos:R:3:forces:R:3 energy=-31.631805419921875 free_energy=-31.631805419921875 stress="5.3937077609589323e-05 -2.484091154997259e-08 -9.607919793097608e-09 -2.484091154997259e-08 5.391227750806138e-05 -1.6241891387380747e-08 -9.607919793097608e-09 -1.6241891387380747e-08 5.3990763262845576e-05" pbc="T T T"
In       1.96806626       1.39163297       3.40879056      -0.00000084      -0.00000044      -0.00000014
In       5.90419841       4.17489933      10.22637273       0.00000026       0.00000017       0.00000074
Sb       0.00000010       0.00000017      -0.00000006      -0.00000038      -0.00000350      -0.00000265
S        1.99873695       1.41332091       6.81758074       0.00048721       0.00034603      -0.00000278
S        5.87352760       4.15321154       6.81758079      -0.00048536      -0.00034261      -0.00000220
S        4.90483027       1.41332081       5.13974845      -0.00024268       0.00034386       0.00042331
S        2.96743526       4.15321067       8.49541556       0.00024289      -0.00034374      -0.00041568
S        2.96743478       4.15321203       5.13974888       0.00024259      -0.00034079       0.00042093
S        4.90482994       1.41332033       8.49541499      -0.00024354       0.00034165      -0.00042123
