9
Lattice="4.673285039340587 -2.2485719033133666e-08 2.698122400871714 1.5577616108023813 4.4060156181066015 2.6981224836257605 -1.3942301537805557e-07 2.7656341719209726e-09 5.396245043231157" Properties=species:S:1:pos:R:3:forces:R:3 energy=-44.60680389404297 free_energy=-44.60680389404297 stress="0.00020511564798653126 -1.3800732290292217e-07 3.456812436297696e-08 -1.3800732290292217e-07 0.000205345539143309 -3.648215063378757e-09 3.456812436297696e-08 -3.648215063378757e-09 0.00020539060642477125" pbc="T T T"
In       1.55776209       1.10150333       2.69812219       0.00000466      -0.00000875       0.00000022
In       4.67328423       3.30451170       8.09436820      -0.00000739       0.00000180       0.00000518
Sb       0.00000011      -0.00000011      -0.00000042       0.00000137       0.00001163       0.00000940
O        1.58291707       1.11929155       5.39624461      -0.00373346      -0.00264239      -0.00000315
O        4.64812934       3.28672469       5.39624557       0.00372380       0.00263840       0.00000339
O        3.88182624       1.11929188       4.06896860       0.00187334      -0.00264430      -0.00324547
O        2.34921990       3.28672411       6.72352082      -0.00186837       0.00264233       0.00323474
O        2.34922130       3.28672424       4.06896900      -0.00186214       0.00264978      -0.00324452
O        3.88182586       1.11929115       6.72352090       0.00186765      -0.00264817       0.00323915
