9
Lattice="5.876542436032038 -6.073314648943217e-09 3.3928234723593715 1.9588474076471387 5.540457706373259 3.392823585469574 -1.0601903533085972e-07 6.356436803477807e-08 6.785647128348995" Properties=species:S:1:pos:R:3:forces:R:3 energy=-30.34282684326172 free_energy=-30.34282684326172 stress="-0.0003590317501220852 -4.835623812482481e-08 1.0204682654446628e-09 -4.835623812482481e-08 -0.0003590253181755543 8.642553339655024e-09 1.0204682654446628e-09 8.642553339655024e-09 -0.00035899417707696557" pbc="T T T"
In       1.95884758       1.38511388       3.39282336       0.00000017       0.00000009       0.00000009
In       5.87654158       4.15534364      10.17847085       0.00000057      -0.00000012      -0.00000024
Sb      -0.00000044      -0.00000007      -0.00000065       0.00000226       0.00000071       0.00000322
Se       2.30642647       1.63088987       6.78564687       0.00755733       0.00534390      -0.00000065
Se       5.52896426       3.90956803       6.78564696      -0.00755751      -0.00534371      -0.00000130
Se       4.72332895       1.63089009       5.39024850      -0.00377849       0.00534327       0.00654298
Se       3.11206109       3.90956738       8.18104620       0.00377619      -0.00534165      -0.00654344
Se       3.11206096       3.90956779       5.39024812       0.00377712      -0.00534350       0.00654253
Se       4.72332863       1.63089047       8.18104655      -0.00377759       0.00534107      -0.00654323
