9
Lattice="5.878859519594833 4.562621330074682e-08 3.3941609866012485 1.959619762020371 5.542641836764274 3.394161195939324 -1.0602104486580817e-07 1.8141743820872627e-07 6.788322156836528" Properties=species:S:1:pos:R:3:forces:R:3 energy=-30.342914581298828 free_energy=-30.342914581298828 stress="-0.00017587357433512807 -1.5661427710256248e-08 -6.3133076544374944e-09 -1.5661427710256248e-08 -0.00017586949979886413 1.2876098409719816e-08 -6.3133076544374944e-09 1.2876098409719816e-08 -0.0001758530706865713" pbc="T T T"
In       1.95961998       1.38566076       3.39416112      -0.00000066       0.00000008      -0.00000123
In       5.87885946       4.15698112      10.18248318       0.00000005      -0.00000050      -0.00000095
Sb      -0.00000028       0.00000029      -0.00000028       0.00000208      -0.00000030       0.00000172
Se       2.30878266       1.63255537       6.78832184      -0.00493485      -0.00348826       0.00000084
Se       5.52969858       3.91008711       6.78832169       0.00493272       0.00348869       0.00000134
Se       4.72446766       1.63255602       5.39362514       0.00246722      -0.00348933      -0.00427245
Se       3.11400917       3.91008762       8.18302057      -0.00246669       0.00348823       0.00427160
Se       3.11401070       3.91008558       5.39362440      -0.00246740       0.00348929      -0.00427330
Se       4.72446882       1.63255434       8.18301969       0.00246746      -0.00348780       0.00427230
