9
Lattice="6.4174045022170905 7.464457232578919e-08 3.705090183384458 2.139134894042895 6.050386972485825 3.705090201406564 -1.4076538691291235e-08 1.211885395226134e-08 7.410180391150191" Properties=species:S:1:pos:R:3:forces:R:3 energy=-37.29801940917969 free_energy=-37.29801940917969 stress="-0.00024305778788402677 2.133279108917918e-09 -5.855171902879874e-09 2.133279108917918e-09 -0.00024307820422109216 1.0669840566635003e-09 -5.855171902879874e-09 1.0669840566635003e-09 -0.0002430864260531962" pbc="T T T"
In       2.13913475       1.51259670       3.70509012       0.00000018      -0.00000003       0.00000015
In       6.41740468       4.53779020      11.11527056      -0.00000005       0.00000018      -0.00000018
Ta       0.00000012       0.00000005       0.00000014      -0.00000123      -0.00000044      -0.00000039
Te       2.24889731       1.59021037       7.41018048      -0.00382428      -0.00270423      -0.00000065
Te       6.30764209       4.46017663       7.41018043       0.00382519       0.00270461      -0.00000019
Te       5.29295614       1.59021033       5.65269218       0.00191148      -0.00270344      -0.00331149
Te       3.26358326       4.46017669       9.16766857      -0.00191197       0.00270411       0.00331249
Te       3.26358316       4.46017678       5.65269217      -0.00191102       0.00270265      -0.00331128
Te       5.29295604       1.59021048       9.16766846       0.00191171      -0.00270344       0.00331153
