9
Lattice="5.891746628037805 -1.0333148871520952e-07 3.4016016253920083 1.9639154463846622 5.554792031768573 3.401601623439475 6.24055643999373e-08 4.1736063923968454e-08 6.803203142694395" Properties=species:S:1:pos:R:3:forces:R:3 energy=-40.33953094482422 free_energy=-40.33953094482422 stress="-8.142564911395311e-05 2.8847887634242397e-08 1.449525832697418e-08 2.8847887634242397e-08 -8.14653467386961e-05 -2.3278996508224736e-08 1.449525832697418e-08 -2.3278996508224736e-08 -8.14496524981223e-05" pbc="T T T"
In       1.96391575       1.38869776       3.40160159      -0.00000027       0.00000006      -0.00000015
In       5.89174629       4.16609385      10.20480493      -0.00000059      -0.00000065       0.00000042
Ta      -0.00000095      -0.00000066       0.00000039       0.00000869       0.00000507      -0.00000209
Se       2.05706619       1.45456553       6.80320307      -0.00154837      -0.00109419      -0.00000027
Se       5.79859614       4.10022708       6.80320308       0.00154084       0.00108882      -0.00000021
Se       4.86321379       1.45456546       5.18307278       0.00077002      -0.00108823      -0.00133343
Se       2.99244898       4.10022673       8.42333347      -0.00077108       0.00109091       0.00133582
Se       2.99244862       4.10022669       5.18307284      -0.00077140       0.00109034      -0.00133598
Se       4.86321374       1.45456545       8.42333344       0.00077219      -0.00109217       0.00133589
