9
Lattice="5.572995066255657 3.2817037266030705e-07 3.2175697722618333 1.8576650794772882 5.254270614435416 3.2175702087558613 -6.401037418738522e-08 4.893316609632981e-07 6.435139655392891" Properties=species:S:1:pos:R:3:forces:R:3 energy=-43.614540100097656 free_energy=-43.614540100097656 stress="-4.2276678868802264e-05 -4.035847211980581e-09 -1.0512918890981382e-07 -4.035847211980581e-09 -4.229507612762973e-05 1.874392836498373e-07 -1.0512918890981382e-07 1.874392836498373e-07 -4.22959856223315e-05" pbc="T T T"
In       1.85766467       1.31356830       3.21757117      -0.00000072       0.00000046       0.00000375
In       5.57299510       3.94070348       9.65270999      -0.00000038       0.00000094       0.00000279
Ta       0.00000024       0.00000011       0.00000030      -0.00000093       0.00000090      -0.00000857
S        1.94786596       1.37734969       6.43513964      -0.00052711      -0.00037247      -0.00000069
S        5.48279432       3.87692183       6.43513981       0.00052670       0.00037229      -0.00000141
S        4.59906144       1.37735036       4.90447091       0.00026518      -0.00037539      -0.00046131
S        2.83159849       3.87692128       7.96580810      -0.00026651       0.00037870       0.00046346
S        2.83159721       3.87692177       4.90447064      -0.00025964       0.00036541      -0.00044820
S        4.59906290       1.37734894       7.96580786       0.00026326      -0.00037128       0.00045007
