9
Lattice="4.674032074993011 -2.333806155819737e-07 2.698554147640353 1.5580105186986224 4.406719694789132 2.698554066116794 -5.4652264685434754e-08 -1.3849055820131443e-07 5.397108389941243" Properties=species:S:1:pos:R:3:forces:R:3 energy=-56.32841873168945 free_energy=-56.32841873168945 stress="6.972918345127255e-05 -1.1048817327719007e-07 7.060090467803093e-08 -1.1048817327719007e-07 6.980053149163723e-05 -1.319779929787046e-08 7.060090467803093e-08 -1.319779929787046e-08 6.971498805796728e-05" pbc="T T T"
In       1.55800887       1.10168203       2.69855469      -0.00001898       0.00002922       0.00000766
In       4.67403195       3.30504342       8.09566183      -0.00000375       0.00004431      -0.00000367
Ta      -0.00000036       0.00000050      -0.00000010      -0.00000313       0.00001023       0.00000038
O        1.58903088       1.12361409       5.39710856      -0.00063848      -0.00046226       0.00000121
O        4.64301341       3.28310216       5.39710854       0.00065929       0.00042921       0.00000103
O        3.87951584       1.12361202       4.07469625       0.00031489      -0.00047633      -0.00054747
O        2.35252675       3.28310558       6.71952097      -0.00031590       0.00045541       0.00055808
O        2.35252657       3.28310439       4.07469478      -0.00031373       0.00044665      -0.00056815
O        3.87951618       1.12361281       6.71952068       0.00031978      -0.00047591       0.00055027
