9
Lattice="4.798985429016886 1.5084998629867018e-07 2.770695820004824 1.5996619574884996 4.524526964961487 2.770695810316678 1.1724531567635979e-07 7.10394631528456e-08 5.541391436934766" Properties=species:S:1:pos:R:3:forces:R:3 energy=-45.81029510498047 free_energy=-45.81029510498047 stress="-0.00036216183798387647 -2.42126475313853e-07 -2.2221544782041747e-07 -2.42126475313853e-07 -0.0003619168419390917 -1.9702260090070922e-07 -2.2221544782041747e-07 -1.9702260090070922e-07 -0.0003627203404903412" pbc="T T T"
In       1.59966150       1.13113001       2.77069597      -0.00000340      -0.00001672       0.00000126
In       4.79898909       3.39339677       8.31209046       0.00003989       0.00001508       0.00003659
Y        0.00000007       0.00000031       0.00000027       0.00000353      -0.00000586      -0.00000066
O        1.76211846       1.24600545       5.54139162       0.00418313       0.00295964       0.00000344
O        4.63652887       3.27852205       5.54139027      -0.00418837      -0.00295238      -0.00001716
O        3.91792666       1.24600577       4.29673487      -0.00209148       0.00295867       0.00362563
O        2.48071831       3.27852228       6.78604608       0.00206619      -0.00295049      -0.00364211
O        2.48072064       3.27852160       4.29673597       0.00208594      -0.00295043       0.00362830
O        3.91792634       1.24600457       6.78604678      -0.00209532       0.00294234      -0.00363505
