9
Lattice="6.041584841643986 1.1424739416132296e-07 3.4881106091008016 2.013861805287293 5.6960606857088125 3.4881104641411027 1.3007924084376137e-07 -8.555871183559503e-08 6.976220992897735" Properties=species:S:1:pos:R:3:forces:R:3 energy=-35.17878341674805 free_energy=-35.17878341674805 stress="-0.00012963991321157664 8.19121215300811e-09 -1.8860749406712785e-08 8.19121215300811e-09 -0.00012964356574229896 2.5070406195482065e-08 -1.8860749406712785e-08 2.5070406195482065e-08 -0.00012965279165655375" pbc="T T T"
In       2.01386134       1.42401456       3.48811054      -0.00000041      -0.00000128      -0.00000075
In       6.04158505       4.27204635      10.46433100      -0.00000080       0.00000332      -0.00000323
Y       -0.00000031       0.00000031      -0.00000127       0.00000165      -0.00000274       0.00000814
S        2.21982763       1.56965472       6.97622128      -0.00229221      -0.00162119      -0.00000094
S        5.83561915       4.12640603       6.97622134       0.00229186       0.00162270       0.00000105
S        4.93167133       1.56965452       5.41053755       0.00114634      -0.00162375      -0.00198539
S        3.12377567       4.12640593       8.54190530      -0.00114549       0.00162134       0.00198536
S        3.12377555       4.12640578       5.41053740      -0.00114653       0.00162203      -0.00198718
S        4.93167175       1.56965464       8.54190516       0.00114574      -0.00162045       0.00198296
