9
Lattice="6.691424462270028 2.170780441648423e-08 3.863295608439154 2.2304748181119707 6.308735302157051 3.8632956484687 -1.849661831371409e-08 3.5946901771479854e-08 7.726591248915354" Properties=species:S:1:pos:R:3:forces:R:3 energy=-32.70412826538086 free_energy=-32.70412826538086 stress="8.285720105050132e-05 -6.7139662718318505e-09 -1.4490186828197693e-09 -6.7139662718318505e-09 8.284645446110517e-05 -4.347382009939338e-09 -1.4490186828197693e-09 -4.347382009939338e-09 8.284465729957446e-05" pbc="T T T"
In       2.23047493       1.57718376       3.86329614       0.00000026      -0.00000004       0.00000032
In       6.69142424       4.73155206      11.58988662      -0.00000030       0.00000023      -0.00000031
Y        0.00000008      -0.00000026      -0.00000012       0.00000085       0.00000162       0.00000059
Te       2.48809822       1.75935068       7.72659083       0.00502688       0.00355528       0.00000169
Te       6.43380110       4.54938448       7.72659142      -0.00502781      -0.00355603       0.00000058
Te       5.44737477       1.75935085       6.01805154      -0.00251159       0.00355324       0.00435437
Te       3.47452396       4.54938517       9.43513072       0.00251378      -0.00355705      -0.00435567
Te       3.47452419       4.54938411       6.01805174       0.00251281      -0.00355320       0.00435390
Te       5.44737554       1.75935057       9.43513107      -0.00251491       0.00355595      -0.00435545
