9
Lattice="6.303924630275451 8.841498786183676e-08 3.6395724470426245 2.101308200073779 5.943397256417431 3.639572608775391 -6.361880775131401e-08 1.5309607095984048e-07 7.279145004276162" Properties=species:S:1:pos:R:3:forces:R:3 energy=-33.25784683227539 free_energy=-33.25784683227539 stress="-9.956565918400884e-05 1.8491174147428069e-09 -1.0245871706615617e-08 1.8491174147428069e-09 -9.957001020666212e-05 4.283255083947779e-09 -1.0245871706615617e-08 4.283255083947779e-09 -9.958054579328746e-05" pbc="T T T"
In       2.10130790       1.48584919       3.63957262      -0.00000054      -0.00000057       0.00000089
In       6.30392460       4.45754810      10.91871743      -0.00000017       0.00000071      -0.00000030
Y        0.00000025       0.00000018       0.00000037      -0.00000103      -0.00000005      -0.00000154
Se       2.35312937       1.66391385       7.27914479      -0.00027521      -0.00019541      -0.00000001
Se       6.05210363       4.27948362       7.27914512       0.00027508       0.00019424       0.00000124
Se       5.12735950       1.66391396       5.67744217       0.00013828      -0.00019445      -0.00023849
Se       3.27787249       4.27948435       8.88084793      -0.00013756       0.00019545       0.00023831
Se       3.27787285       4.27948336       5.67744194      -0.00013705       0.00019442      -0.00023757
Se       5.12736047       1.66391339       8.88084785       0.00013818      -0.00019436       0.00023746
