9
Lattice="5.349138333322783 -6.811046922232968e-07 3.088325286045212 1.7830454760344359 5.043215606386431 3.0883252737848976 1.235280742109631e-06 8.584596103457043e-07 6.176648432521476" Properties=species:S:1:pos:R:3:forces:R:3 energy=-36.53371810913086 free_energy=-36.53371810913086 stress="-3.970812394982204e-05 2.6968452857545344e-06 -2.5680626549728913e-06 2.6968452857545344e-06 -4.036452082800679e-05 -1.876439910120098e-06 -2.5680626549728913e-06 -1.876439910120098e-06 -3.2185649615712464e-05" pbc="T T T"
Ir       1.78309300       1.26083222       3.08829434       0.00114854       0.00068572      -0.00075673
Ir       5.34910392       3.78239487       9.26500000      -0.00089600      -0.00044574       0.00066046
As      -0.00000056      -0.00000053       0.00000030      -0.00001615      -0.00001456       0.00000295
Se       2.01919321       1.42778142       6.17666336       0.00090712       0.00055100       0.00037029
Se       5.11299171       3.61543301       6.17663689      -0.00090075      -0.00057535      -0.00032898
Se       4.33953802       1.42779812       4.83697949      -0.00055858       0.00100932       0.00036666
Se       2.79264235       3.61541172       7.51632156       0.00045028      -0.00112493      -0.00032917
Se       2.79265757       3.61542389       4.83697882       0.00084303      -0.00081916       0.00035203
Se       4.33952093       1.42778836       7.51632124      -0.00097765       0.00073378      -0.00033733
