9
Lattice="4.414857414982779 4.139028690609185e-08 2.5489191111086966 1.4716191746229108 4.162367437802234 2.5489191158334217 6.696807271260874e-08 5.314015245648817e-08 5.097838106225282" Properties=species:S:1:pos:R:3:forces:R:3 energy=-51.97283935546875 free_energy=-51.97283935546875 stress="0.00014889604062773287 7.085931486017216e-08 -3.9153874809017e-08 7.085931486017216e-08 0.00014909409219399095 -2.0216813823026314e-07 -3.9153874809017e-08 -2.0216813823026314e-07 0.0001487403060309589" pbc="T T T"
Ir       1.47161980       1.04059248       2.54891946       0.00001302       0.00001551       0.00000951
Ir       4.41485741       3.12177753       7.64675914       0.00000165       0.00003559       0.00003360
As       0.00000006       0.00000021       0.00000003       0.00000168      -0.00000320       0.00000224
N        1.51481072       1.07113217       5.09783757       0.00162435       0.00113463      -0.00001069
N        4.37166617       3.09123471       5.09783748      -0.00161839      -0.00114626      -0.00001504
N        3.65745249       1.07113235       3.86078343      -0.00081241       0.00114125       0.00140804
N        2.22902403       3.09123472       6.33489271       0.00080359      -0.00115204      -0.00140828
N        2.22902450       3.09123411       3.86078276       0.00080872      -0.00115687       0.00139141
N        3.65745141       1.07113191       6.33489277      -0.00082266       0.00113147      -0.00141090
