9
Lattice="5.299291556733496 1.3385272675238513e-08 3.059547463245474 1.7664305543473016 4.996219813460771 3.0595474237263565 2.0299995707281013e-08 -3.404656863688764e-08 6.119094891330311" Properties=species:S:1:pos:R:3:forces:R:3 energy=-37.321067810058594 free_energy=-37.321067810058594 stress="-0.00027366570429876447 -1.5487660931512437e-08 2.138389199046742e-08 -1.5487660931512437e-08 -0.00027317245258018374 -3.72201967024921e-08 2.138389199046742e-08 -3.72201967024921e-08 -0.0002735628804657608" pbc="T T T"
Ir       1.76642109       1.24906738       3.05955199      -0.00023647       0.00034626       0.00011137
Ir       5.29928743       3.74714968       9.17864716      -0.00010178      -0.00041025       0.00012312
Be      -0.00000023      -0.00000008       0.00000058      -0.00001793       0.00000297      -0.00000081
Se       1.62462530       1.14879141       6.11909238       0.00225186       0.00181013      -0.00006027
Se       5.44109804       3.84742524       6.11909203      -0.00221968      -0.00188524      -0.00006804
Se       4.48698253       1.14879430       4.46651508      -0.00103500       0.00188023       0.00196552
Se       2.57874474       3.84743106       7.77167413       0.00115681      -0.00174958      -0.00197959
Se       2.57874627       3.84742816       4.46651315       0.00120056      -0.00180876       0.00192291
Se       4.48698340       1.14879210       7.77167262      -0.00099802       0.00181425      -0.00201416
