9
Lattice="4.23241825495257 7.108461670586368e-08 2.4435878140804728 1.4108061575777715 3.9903624294864533 2.443587804425367 -2.8563772647792412e-08 -3.2022703655570404e-08 4.887175677634853" Properties=species:S:1:pos:R:3:forces:R:3 energy=-46.70888900756836 free_energy=-46.70888900756836 stress="-0.00022286095190793276 -6.659818296839148e-08 -8.569360332444376e-09 -6.659818296839148e-08 -0.00022286332387011498 -1.2604713717223603e-08 -8.569360332444376e-09 -1.2604713717223603e-08 -0.00022291700588539243" pbc="T T T"
Ir       1.41080068       0.99759117       2.44358432      -0.00013177       0.00001056      -0.00009687
Ir       4.23241391       2.99277152       7.33075788      -0.00011718       0.00000084      -0.00012700
Be       0.00000003      -0.00000019      -0.00000010      -0.00000134       0.00000368       0.00000226
O        1.35246335       0.95633324       4.88717698       0.00373256       0.00259006       0.00004300
O        4.29076464       3.03402545       4.88717871      -0.00366116      -0.00265270       0.00006516
O        3.55618904       0.95633528       3.61485514      -0.00179330       0.00261480       0.00323540
O        2.08703886       3.03402803       6.15949837       0.00190407      -0.00262147      -0.00316942
O        2.08703829       3.03402912       3.61485546       0.00188455      -0.00258547       0.00322866
O        3.55618856       0.95633599       6.15949836      -0.00181678       0.00263947      -0.00318038
