9
Lattice="4.8526392614620555 -3.490755405516364e-08 2.801672783687918 1.617546405210857 4.5751124988866465 2.80167275314378 -4.5607132499577705e-08 -6.965788883547782e-08 5.6033456463696965" Properties=species:S:1:pos:R:3:forces:R:3 energy=-39.489627838134766 free_energy=-39.489627838134766 stress="1.5300876839319244e-05 -1.0048033516341093e-08 3.4313600849600334e-08 -1.0048033516341093e-08 1.5334540876210667e-05 -7.306522320504882e-08 3.4313600849600334e-08 -7.306522320504882e-08 1.5260853615473025e-05" pbc="T T T"
Ir       1.61754487       1.14377076       2.80167162      -0.00002847      -0.00011742      -0.00001726
Ir       4.85263445       3.43133450       8.40502138      -0.00007826       0.00000023       0.00005054
Be      -0.00000027      -0.00000023       0.00000005      -0.00000609      -0.00000154       0.00000279
S        1.65404103       1.16958227       5.60334600      -0.00072357      -0.00053667       0.00000624
S        4.81614551       3.40553164       5.60334382       0.00073203       0.00055814      -0.00002685
S        4.02562039       1.16958360       4.23411340       0.00039162      -0.00050777      -0.00064749
S        2.44456823       3.40553189       6.97257737      -0.00033841       0.00056064       0.00063285
S        2.44456921       3.40553238       4.23411347      -0.00032111       0.00057004      -0.00064176
S        4.02561904       1.16958276       6.97257777       0.00037259      -0.00052558       0.00064084
