9
Lattice="4.130267778244447 -2.0593264162677266e-07 2.384611210421882 1.3767557582210566 3.8940541016299464 2.384611164878059 -1.0243757542031707e-07 -1.282138688476105e-07 4.769222598270851" Properties=species:S:1:pos:R:3:forces:R:3 energy=-51.041988372802734 free_energy=-51.041988372802734 stress="-2.9559167160186917e-05 1.8187972017358334e-08 5.655267543147602e-08 1.8187972017358334e-08 -2.9485183404176496e-05 1.1846371705814818e-07 5.655267543147602e-08 1.1846371705814818e-07 -2.936076998594217e-05" pbc="T T T"
Ir       1.37675527       0.97351375       2.38461364      -0.00001037       0.00000246       0.00005131
Ir       4.13026783       2.92053932       7.15383409      -0.00000095      -0.00001679       0.00001816
B       -0.00000000      -0.00000009      -0.00000009       0.00000162       0.00000279      -0.00000101
O        1.30282417       0.92123616       4.76922258      -0.00197756      -0.00138617      -0.00001907
O        4.20419928       2.97281818       4.76922249       0.00196636       0.00138730      -0.00001223
O        3.47885492       0.92123577       3.51288955       0.00097591      -0.00138170      -0.00172091
O        2.02816811       2.97281791       6.02555426      -0.00098485       0.00140929       0.00170004
O        2.02816785       2.97281798       3.51288957      -0.00097990       0.00138098      -0.00171530
O        3.47885585       0.92123575       6.02555373       0.00100911      -0.00139689       0.00169861
