9
Lattice="4.24407275657227 -1.1139030948910785e-07 2.450316392235453 1.4146907817149157 4.001349264895014 2.4503164478735986 2.570466433755862e-07 2.4990200106008215e-07 4.90063233925306" Properties=species:S:1:pos:R:3:forces:R:3 energy=-49.741233825683594 free_energy=-49.741233825683594 stress="0.0005839561927132308 1.3755842473983648e-06 -1.0501986480448977e-06 1.3755842473983648e-06 0.0005896894144825637 -6.90207855313929e-07 -1.0501986480448977e-06 -6.90207855313929e-07 0.0005876278155483305" pbc="T T T"
Ir       1.41461546       1.00038331       2.45031244      -0.00199748       0.00118789      -0.00019243
Ir       4.24402299       3.00103736       7.35093009      -0.00160634       0.00085593      -0.00042594
C       -0.00002610       0.00001462      -0.00000159      -0.00093223       0.00052679      -0.00011640
O        1.25662277       0.88853338       4.90063476       0.00420022       0.00193828       0.00009397
O        4.40218891       3.11277637       4.90064168      -0.00274152      -0.00310373       0.00020204
O        3.61580159       0.88854064       3.53857477      -0.00092140       0.00212085       0.00331861
O        2.04301518       3.11278399       6.26271195       0.00249511      -0.00288010      -0.00274312
O        2.04301178       3.11278700       3.53856175       0.00241721      -0.00281811       0.00299662
O        3.61580296       0.88854144       6.26269490      -0.00091431       0.00217277      -0.00313336
