9
Lattice="4.61365092909541 2.013140270114005e-07 2.6636926742128546 1.5378838107610977 4.349792299538069 2.6636927124416268 1.3956036289702279e-08 5.668894787501981e-08 5.327385324253102" Properties=species:S:1:pos:R:3:forces:R:3 energy=-41.8379020690918 free_energy=-41.8379020690918 stress="-0.0002527210453990847 -7.783999933508312e-08 8.941544393792356e-08 -7.783999933508312e-08 -0.0002536376123316586 6.425623588768303e-09 8.941544393792356e-08 6.425623588768303e-09 -0.0002526535536162555" pbc="T T T"
Ir       1.53788213       1.08743836       2.66369882      -0.00000570       0.00000215       0.00000824
Ir       4.61364117       3.26235356       7.99108527      -0.00000310      -0.00000044       0.00000543
C       -0.00000418      -0.00000291       0.00000626      -0.00004168      -0.00001958       0.00005721
S        1.58515383       1.12086219       5.32738393       0.00322080       0.00224400       0.00000775
S        4.56638469       3.22892979       5.32738233      -0.00321174      -0.00224268       0.00000031
S        3.82107553       1.12086759       4.03646851      -0.00161368       0.00226998       0.00275540
S        2.33046328       3.22893079       6.61829590       0.00161904      -0.00223053      -0.00279403
S        2.33046492       3.22892721       4.03646728       0.00163090      -0.00226164       0.00275791
S        3.82107771       1.12086373       6.61829441      -0.00159490       0.00223851      -0.00279903
