9
Lattice="5.352171945562019 -1.7960835538246944e-07 3.090077549462377 1.7840571502391058 5.046075875398175 3.0900775418618265 -3.3279712385399467e-07 -2.4463178033832215e-07 6.180155675346252" Properties=species:S:1:pos:R:3:forces:R:3 energy=-34.227996826171875 free_energy=-34.227996826171875 stress="1.271331166208256e-05 3.548950360254821e-07 1.0542478321440285e-06 3.548950360254821e-07 1.3034193216299172e-05 7.381682962659397e-07 1.0542478321440285e-06 7.381682962659397e-07 1.3728707926929928e-05" pbc="T T T"
Ir       1.78406783       1.26151847       3.09008700       0.00031819      -0.00000840       0.00030515
Ir       5.35216706       3.78455319       9.27021024      -0.00014934      -0.00009400      -0.00066918
Ga       0.00000011      -0.00000020       0.00000031      -0.00000776       0.00000602       0.00001090
Se       1.99693637       1.41204672       6.18014988      -0.00211899      -0.00151365      -0.00018299
Se       5.13929076       3.63403121       6.18016764       0.00206560       0.00158064       0.00035695
Se       4.35369598       1.41204429       4.81947331       0.00082431      -0.00159083      -0.00189993
Se       2.78253266       3.63402995       7.54083936      -0.00082978       0.00154206       0.00194402
Se       2.78252067       3.63402464       4.81947454      -0.00118728       0.00138421      -0.00185710
Se       4.35370367       1.41205356       7.54084090       0.00108499      -0.00130601       0.00199242
