9
Lattice="4.429565742829578 -5.7698319676249596e-08 2.5574109127150138 1.4765219059639154 4.176234443363045 2.557410832891896 -7.524237397252283e-08 -1.5096731397734402e-07 5.11482195575362" Properties=species:S:1:pos:R:3:forces:R:3 energy=-44.09661865234375 free_energy=-44.09661865234375 stress="5.824000618304126e-05 -3.76630566734093e-08 4.2784128595485527e-07 -3.76630566734093e-08 5.82081192987971e-05 2.3443074326223723e-07 4.2784128595485527e-07 2.3443074326223723e-07 5.774828969151713e-05" pbc="T T T"
Ir       1.47652017       1.04406034       2.55740456      -0.00003068       0.00004191      -0.00017501
Ir       4.42956702       3.13217843       7.67221968       0.00001711       0.00006581      -0.00029194
Ga       0.00000003       0.00000008      -0.00000083      -0.00000060       0.00000589      -0.00001838
O        1.50190129       1.06200571       5.11482500       0.00236034       0.00167775       0.00008429
O        4.40418706       3.11422703       5.11482989      -0.00233835      -0.00171757       0.00016155
O        3.67861536       1.06200141       3.85809964      -0.00116825       0.00160033       0.00213569
O        2.22747457       3.11422920       6.37154938       0.00122589      -0.00170445      -0.00199664
O        2.22747207       3.11423012       3.85809793       0.00115934      -0.00165266       0.00210303
O        3.67861280       1.06200453       6.37154951      -0.00122461       0.00168300      -0.00200313
