9
Lattice="4.362167016236491 4.526066819586127e-07 2.5184999864794553 1.454056240342772 4.112694743220973 2.5184997413208814 -1.0818561392692074e-06 -1.0652448253682311e-06 5.037001846789033" Properties=species:S:1:pos:R:3:forces:R:3 energy=-48.50701141357422 free_energy=-48.50701141357422 stress="0.0006854524835944176 -3.1401509659190197e-06 3.3361504847562173e-06 -3.1401509659190197e-06 0.0006786197773180902 2.011071728702518e-06 3.3361504847562173e-06 2.011071728702518e-06 0.0006767984014004469" pbc="T T T"
Ir       1.45405388       1.02815854       2.51846038       0.00014271      -0.00028892      -0.00080021
Ir       4.36222808       3.08449167       7.55541206       0.00085517      -0.00044424      -0.00136754
Ga       0.00000040      -0.00000110      -0.00000159       0.00001241       0.00001370      -0.00003746
N        1.53921281       1.08842180       5.03704469      -0.00554715      -0.00342642       0.00061064
N        4.27698117       3.02430950       5.03706653       0.00511725       0.00395951       0.00086165
N        3.59254617       1.08839689       3.85151994       0.00258563      -0.00382660      -0.00443485
N        2.22365474       3.02429352       6.22248595      -0.00283150       0.00371822       0.00462765
N        2.22364503       3.02429536       3.85153099      -0.00304875       0.00385620      -0.00422324
N        3.59256621       1.08841006       6.22248791       0.00271430      -0.00356142       0.00476323
