9
Lattice="4.975370752884842 1.6916420143430016e-07 2.8725317323336372 1.6584570496167064 4.690824704341975 2.872531779966956 6.308801654730108e-08 1.0294859542901612e-07 5.745063355395655" Properties=species:S:1:pos:R:3:forces:R:3 energy=-36.172977447509766 free_energy=-36.172977447509766 stress="5.475804573507048e-05 -7.446064387295337e-08 -7.377121846730006e-07 -7.446064387295337e-08 5.4129701311467215e-05 -3.427678620937513e-07 -7.377121846730006e-07 -3.427678620937513e-07 5.442504334496334e-05" pbc="T T T"
Ir       1.65844989       1.17271091       2.87252741      -0.00021154       0.00014923      -0.00017092
Ir       4.97536788       3.51811438       8.61761126      -0.00007046      -0.00014082       0.00049709
Ga       0.00000064      -0.00000011      -0.00000054       0.00001720      -0.00000009      -0.00001772
S        1.80017035       1.27291484       5.74506710      -0.00056823      -0.00032664       0.00013741
S        4.83365980       3.41790784       5.74505350       0.00062303       0.00027125      -0.00028915
S        4.07529168       1.27291880       4.43152477       0.00047661      -0.00021478      -0.00050578
S        2.55853834       3.41790898       7.05860077      -0.00040416       0.00028362       0.00045352
S        2.55854708       3.41791242       4.43152312      -0.00012955       0.00040141      -0.00052641
S        4.07528597       1.27291189       7.05860006       0.00026704      -0.00042315       0.00042172
