9
Lattice="4.07208085934891 -2.298098330727326e-08 2.3510168915162115 1.3573602470601345 3.839194526677988 2.35101692221305 -3.7252596670408896e-08 1.125421785308961e-08 4.7020338475558034" Properties=species:S:1:pos:R:3:forces:R:3 energy=-44.24706268310547 free_energy=-44.24706268310547 stress="-0.00010751567606348544 -1.6912034084271e-07 6.020444232035516e-08 -1.6912034084271e-07 -0.00010812266555149108 -6.338763824942362e-08 6.020444232035516e-08 -6.338763824942362e-08 -0.00010780674347188324" pbc="T T T"
Ir       1.35736178       0.95980778       2.35101224       0.00004426       0.00034806      -0.00005410
Ir       4.07207834       2.87940459       7.05307186      -0.00008250       0.00034248       0.00068628
N        0.00000017       0.00000485      -0.00000361       0.00000729       0.00012566      -0.00007313
O        1.31587076       0.93045611       4.70203217       0.00699139       0.00477815      -0.00006911
O        4.11357031       2.90873008       4.70202683      -0.00695503      -0.00506240      -0.00023207
O        3.41414729       0.93046164       3.49059263      -0.00345838       0.00491947       0.00597465
O        2.01529150       2.90872974       5.91347248       0.00336847      -0.00505638      -0.00607473
O        2.01530066       2.90873003       3.49059264       0.00361460      -0.00508040       0.00593936
O        3.41414348       0.93045329       5.91347316      -0.00352895       0.00468534      -0.00609666
