9
Lattice="4.922964178736526 -1.2034726969560324e-07 2.842274226493378 1.640987934680029 4.641414681673581 2.842274246298204 -2.873391898555454e-07 -1.7892364717173141e-07 5.684548950672831" Properties=species:S:1:pos:R:3:forces:R:3 energy=-39.205936431884766 free_energy=-39.205936431884766 stress="-7.013205322436988e-05 8.278841789888247e-08 7.482381079171319e-07 8.278841789888247e-08 -6.913032848387957e-05 6.118054898252012e-07 7.482381079171319e-07 6.118054898252012e-07 -6.994224531808868e-05" pbc="T T T"
Ir       1.64098933       1.16035226       2.84227211       0.00005034      -0.00006887      -0.00002422
Ir       4.92296304       3.48107141       8.52680001      -0.00003035       0.00035775      -0.00076216
P       -0.00000001       0.00000025      -0.00000058      -0.00000013       0.00000173      -0.00000769
S        1.74573329       1.23441218       5.68454938       0.00230226       0.00138900      -0.00003528
S        4.81822076       3.40699869       5.68456425      -0.00224158      -0.00148892       0.00046701
S        4.05009473       1.23440912       4.35412507      -0.00125991       0.00125983       0.00205725
S        2.51385911       3.40699936       7.01497882       0.00131679      -0.00146598      -0.00183010
S        2.51384789       3.40699646       4.35412348       0.00093497      -0.00155681       0.00200912
S        4.05009922       1.23441759       7.01497730      -0.00107257       0.00157210      -0.00187355
