9
Lattice="4.307318800597882 -9.650975769859994e-08 2.4868315978174294 1.4357728414758562 4.060978972643171 2.4868315996646584 2.724973453422202e-08 2.1530854688555782e-08 4.973663148436921" Properties=species:S:1:pos:R:3:forces:R:3 energy=-54.03150177001953 free_energy=-54.03150177001953 stress="8.439548400929198e-05 9.274130974290529e-08 1.0426187202483561e-07 9.274130974290529e-08 8.464985148748383e-05 1.2936877169522631e-07 1.0426187202483561e-07 1.2936877169522631e-07 8.405508560827002e-05" pbc="T T T"
Ir       1.43577332       1.01524532       2.48683018       0.00000001       0.00000697      -0.00001185
Ir       4.30731832       3.04573397       7.46049591      -0.00000105      -0.00000024       0.00000952
P       -0.00000001      -0.00000003       0.00000024      -0.00000248       0.00000023      -0.00000770
O        1.36428930       0.96469855       4.97366396      -0.00424099      -0.00300038       0.00001077
O        4.37880219       3.09628023       4.97366228       0.00424111       0.00300169      -0.00001244
O        3.62517377       0.96469823       3.66834106       0.00211871      -0.00300205      -0.00367785
O        2.11791787       3.09628036       6.27898546      -0.00212085       0.00300109       0.00368202
O        2.11791760       3.09628033       3.66834106      -0.00212038       0.00299883      -0.00367546
O        3.62517426       0.96469857       6.27898524       0.00212497      -0.00300682       0.00368416
