9
Lattice="5.3355230960743825 2.3632213997753214e-08 3.080465774085947 1.778507729689227 5.030379587550193 3.0804657589875157 3.14799311347337e-08 3.767918413882372e-09 6.1609314936470385" Properties=species:S:1:pos:R:3:forces:R:3 energy=-41.46488952636719 free_energy=-41.46488952636719 stress="0.00012225026148371398 -1.5564809530133061e-07 -6.655864837057379e-08 -1.5564809530133061e-07 0.00012129911920055747 -7.118862299648754e-08 -6.655864837057379e-08 -7.118862299648754e-08 0.00012180319026811048" pbc="T T T"
Ir       1.77849826       1.25760285       3.08047797      -0.00026726       0.00024009       0.00030340
Ir       5.33552511       3.77277542       9.24141323       0.00007470      -0.00027740       0.00041380
Ru       0.00000006      -0.00000008      -0.00000074       0.00000550       0.00000110      -0.00002017
Se       1.96672553       1.39069148       6.16092638       0.00196618       0.00158533      -0.00013590
Se       5.14730613       3.63968712       6.16092388      -0.00194478      -0.00161478      -0.00019902
Se       4.35216211       1.39069334       4.78369974      -0.00091976       0.00162548       0.00169778
Se       2.76186712       3.63969333       7.53815716       0.00090042      -0.00145620      -0.00186148
Se       2.76187358       3.63968792       4.78369814       0.00103834      -0.00157079       0.00167778
Se       4.35216552       1.39068706       7.53815637      -0.00085312       0.00146696      -0.00187629
