9
Lattice="5.120278198215075 9.071898571334781e-08 2.956194025323742 1.7067594788569893 4.827444591180811 2.9561940358523833 -3.176229530986957e-08 -9.564417567038601e-09 5.912388105661376" Properties=species:S:1:pos:R:3:forces:R:3 energy=-42.340946197509766 free_energy=-42.340946197509766 stress="-2.0553054127958603e-05 -1.0378258963328335e-07 2.985126741350541e-07 -1.0378258963328335e-07 -2.0282466721255332e-05 2.61993221783996e-07 2.985126741350541e-07 2.61993221783996e-07 -2.0959316316293553e-05" pbc="T T T"
Ir       1.70675080       1.20685143       2.95619255      -0.00021413      -0.00024393      -0.00001868
Ir       5.12027690       3.62058239       8.86856728      -0.00002507      -0.00001730      -0.00037349
Rh       0.00000026       0.00000014       0.00000073       0.00000402       0.00000581       0.00000653
S        1.85036460       1.30840522       5.91238788       0.00004923       0.00002891      -0.00001225
S        4.97667300       3.51904130       5.91239487      -0.00003684       0.00002068       0.00017595
S        4.19509824       1.30840257       4.55866043       0.00002503      -0.00004345       0.00013065
S        2.63194621       3.51904371       7.26611974       0.00012368       0.00009286      -0.00003064
S        2.63194005       3.51904367       4.55866096      -0.00002110       0.00006872       0.00014251
S        4.19510056       1.30840829       7.26612025       0.00009489       0.00008780      -0.00002044
