9
Lattice="4.561108777455418 -1.2610535955149194e-07 2.6333572886944854 1.5203694582318612 4.300254431057125 2.6333573152987952 -6.711195355756077e-08 -1.4871847029494028e-08 5.266714693630271" Properties=species:S:1:pos:R:3:forces:R:3 energy=-45.49888610839844 free_energy=-45.49888610839844 stress="0.00018546564388088882 2.1021349994043703e-07 3.132284831508514e-08 2.1021349994043703e-07 0.00018578566960059106 -2.251589492630046e-08 3.132284831508514e-08 -2.251589492630046e-08 0.00018598993483465165" pbc="T T T"
Ir       1.52036750       1.07506344       2.63335819      -0.00006002       0.00000271       0.00001889
Ir       4.56109836       3.22519107       7.90007194      -0.00021022       0.00000797       0.00000511
Rh       0.00000008       0.00000009       0.00000019       0.00000191       0.00000042      -0.00000373
O        1.56041776       1.10338275       5.26671503       0.00060916       0.00040808       0.00000181
O        4.52106122       3.19687159       5.26671470      -0.00058043      -0.00043958      -0.00000300
O        3.78089946       1.10338200       3.98471859      -0.00028715       0.00043088       0.00051206
O        2.30058408       3.19687238       6.54871324       0.00039861      -0.00040907      -0.00046661
O        2.30058308       3.19687232       3.98471634       0.00038892      -0.00041571       0.00047073
O        3.78090108       1.10338124       6.54870902      -0.00026107       0.00041446      -0.00053498
