9
Lattice="5.086638810900126 -8.885995803961646e-08 2.9367722531588067 1.6955462296267552 4.795728944870279 2.9367721784993246 -1.0141464850381112e-08 -9.860992108036713e-08 5.873544523883124" Properties=species:S:1:pos:R:3:forces:R:3 energy=-44.197113037109375 free_energy=-44.197113037109375 stress="9.125225915340707e-05 -5.0570645448999585e-09 -9.496179842471975e-08 -5.0570645448999585e-09 9.14948177523911e-05 -5.538519420866805e-09 -9.496179842471975e-08 -5.538519420866805e-09 9.126366057898849e-05" pbc="T T T"
Ir       1.69554353       1.19892795       2.93677153      -0.00006830      -0.00011712      -0.00002202
Ir       5.08663769       3.59680035       8.81032253      -0.00002675       0.00010589       0.00015705
Ru       0.00000003      -0.00000034      -0.00000019       0.00000571       0.00000238      -0.00000746
S        1.83531084       1.29775792       5.87354483       0.00434554       0.00300860       0.00001463
S        4.94687519       3.49797026       5.87354194      -0.00433028      -0.00302005      -0.00007458
S        4.16898527       1.29775967       4.52619744      -0.00212270       0.00304270       0.00374824
S        2.61320029       3.49797034       7.22089059       0.00214368      -0.00301486      -0.00377887
S        2.61320322       3.49797142       4.52619691       0.00221735      -0.00299257       0.00374681
S        4.16898395       1.29775743       7.22089023      -0.00216413       0.00298512      -0.00378394
