9
Lattice="5.344614208123079 -8.123281745350621e-08 3.0857142174101306 1.781537990740143 5.038950691116016 3.085714220955977 -3.65574326536085e-07 -2.541573320350066e-07 6.171429068013564" Properties=species:S:1:pos:R:3:forces:R:3 energy=-40.24431228637695 free_energy=-40.24431228637695 stress="6.721927638864145e-05 1.1187557902303524e-07 1.1109880233561853e-06 1.1187557902303524e-07 6.714081246173009e-05 8.030733056330064e-07 1.1109880233561853e-06 8.030733056330064e-07 6.748431042069569e-05" pbc="T T T"
Ir       1.78153568       1.25973639       3.08572263      -0.00004537      -0.00002047       0.00025996
Ir       5.34460675       3.77920795       9.25711679      -0.00017127      -0.00012354      -0.00068642
Rh       0.00000001       0.00000010      -0.00000027       0.00000523       0.00000219       0.00001863
Se       1.98588743       1.40423446       6.17142398      -0.00115669      -0.00081709      -0.00015552
Se       5.14026451       3.63471576       6.17144287       0.00116605       0.00082073       0.00036174
Se       4.35166734       1.40423142       4.80554440       0.00049391      -0.00090650      -0.00098270
Se       2.77449123       3.63471864       7.53731771      -0.00033423       0.00089014       0.00108603
Se       2.77447800       3.63471413       4.80554430      -0.00069141       0.00076273      -0.00098482
Se       4.35167643       1.40424262       7.53731769       0.00073376      -0.00060850       0.00108311
