9
Lattice="4.664283896530689 1.5507252550965514e-07 2.69292564465485 1.5547613720210878 4.397529305760289 2.69292577114002 -1.8007757592816126e-07 2.7577983506562295e-08 5.385851601213184" Properties=species:S:1:pos:R:3:forces:R:3 energy=-48.828758239746094 free_energy=-48.828758239746094 stress="-7.502210792154074e-06 -1.8225641440494655e-07 5.804199076919758e-08 -1.8225641440494655e-07 -7.068385002639843e-06 -3.8499610610642776e-08 5.804199076919758e-08 -3.8499610610642776e-08 -8.000677553354762e-06" pbc="T T T"
Ir       1.55476004       1.09936804       2.69292672      -0.00001800      -0.00028072       0.00001885
Ir       4.66429756       3.29814901       8.07877640       0.00026473       0.00002971      -0.00001451
Ru      -0.00000030      -0.00000047       0.00000070       0.00001704      -0.00001322       0.00000104
O        1.54002271       1.08896514       5.38585032       0.00043154       0.00039119      -0.00001459
O        4.67901642       3.30857170       5.38585225      -0.00054747      -0.00025558       0.00001277
O        3.89427102       1.08896124       4.02662838      -0.00025603       0.00032395       0.00044215
O        2.32477044       3.30857135       6.74507277       0.00017986      -0.00025892      -0.00049621
O        2.32477141       3.30857126       4.02663023       0.00018200      -0.00025672       0.00049222
O        3.89427099       1.08896084       6.74507406      -0.00025401       0.00032037      -0.00044197
