9
Lattice="4.270339626581991 -1.789743541783733e-07 2.465481686310952 1.4234463971856157 4.026114801284424 2.4654816452089374 -1.8953933228369968e-07 -1.8436404524527533e-07 4.93096370091367" Properties=species:S:1:pos:R:3:forces:R:3 energy=-49.83116912841797 free_energy=-49.83116912841797 stress="-0.00021117858705110848 1.4897368671995537e-08 2.888167038861411e-09 1.4897368671995537e-08 -0.0002108866610797122 1.1346426731506654e-07 2.888167038861411e-09 1.1346426731506654e-07 -0.000211064558243379" pbc="T T T"
Ir       1.42343595       1.00653244       2.46548106      -0.00024599       0.00008704      -0.00003240
Ir       4.27032956       3.01958888       7.39644210      -0.00024293       0.00007949      -0.00006053
S        0.00000045      -0.00000012      -0.00000007       0.00001107      -0.00000409       0.00000236
O        1.33212134       0.94194837       4.93096399       0.00184238       0.00120425       0.00001401
O        4.36166993       3.08416145       4.93096470      -0.00170851      -0.00132108       0.00002485
O        3.60428366       0.94194918       3.61913248      -0.00080419       0.00123572       0.00158596
O        2.08951009       3.08416407       6.24279804       0.00098401      -0.00126588      -0.00150311
O        2.08950936       3.08416367       3.61912976       0.00097179      -0.00126839       0.00152576
O        3.60428288       0.94194965       6.24279577      -0.00080836       0.00125337      -0.00155640
