9
Lattice="5.935391971257234 -4.567093111361326e-07 3.426799940174367 1.9784638464222393 5.595939249317845 3.42679944378099 2.0353761993292444e-07 -4.6403255771048914e-07 6.853599527811267" Properties=species:S:1:pos:R:3:forces:R:3 energy=-31.851062774658203 free_energy=-31.851062774658203 stress="2.6032332243630663e-05 2.2501751573145157e-08 1.882080979953571e-08 2.2501751573145157e-08 2.6072691980516538e-05 4.719180601853168e-09 1.882080979953571e-08 4.719180601853168e-09 2.6053141482407227e-05" pbc="T T T"
K        1.97846419       1.39898440       3.42679968      -0.00000121      -0.00000033      -0.00000027
K        5.93539192       4.19695372      10.28039906       0.00000009       0.00000017      -0.00000038
As       0.00000063      -0.00000067       0.00000024      -0.00000235       0.00001541      -0.00000254
S        1.96068095       1.38640955       6.85359948      -0.00066590      -0.00047094      -0.00000023
S        5.95317600       4.20952903       6.85359962       0.00066030       0.00046766      -0.00000075
S        4.95505151       1.38640970       5.12479886       0.00033265      -0.00047117      -0.00057518
S        2.95880378       4.20952882       8.58240074      -0.00033003       0.00046647       0.00057030
S        2.95880377       4.20952905       5.12479800      -0.00032878       0.00046390      -0.00057006
S        4.95505155       1.38640947       8.58239986       0.00033468      -0.00047117       0.00057912
