9
Lattice="5.827663801993883 1.5716486887730163e-07 3.3646036149231406 1.9425547390235023 5.4943736999393336 3.3646036319277175 1.6595277968657814e-07 1.3817237275633446e-07 6.729206942407609" Properties=species:S:1:pos:R:3:forces:R:3 energy=-31.032657623291016 free_energy=-31.032657623291016 stress="5.091122875455767e-05 -6.0742406660097e-09 4.17218304349376e-09 -6.0742406660097e-09 5.0965398258995265e-05 1.5438789136013042e-09 4.17218304349376e-09 1.5438789136013042e-09 5.090295599075034e-05" pbc="T T T"
K        1.94255446       1.37359339       3.36460325      -0.00000091      -0.00000052      -0.00000056
K        5.82766381       4.12078062      10.09381036      -0.00000096       0.00000032      -0.00000048
As      -0.00000219      -0.00000043      -0.00000370       0.00000552       0.00000176       0.00000981
Se       2.25193287       1.59235820       6.72920516       0.00313213       0.00221494      -0.00000124
Se       5.51828978       3.90201992       6.72920589      -0.00313306      -0.00221542      -0.00000173
Se       4.70169649       1.59235757       5.31483374      -0.00156710       0.00221533       0.00271112
Se       3.06851870       3.90201881       8.14358225       0.00156516      -0.00221458      -0.00271398
Se       3.06852158       3.90201491       5.31483555       0.00156574      -0.00221726       0.00271094
Se       4.70169955       1.59235321       8.14358433      -0.00156665       0.00221524      -0.00271389
