9
Lattice="6.722343593924007 -9.511339541429086e-08 3.8811471286674646 2.240781145738745 6.337886442497785 3.8811470638232293 -2.11011182291885e-08 -9.433842581538982e-08 7.7622942938832" Properties=species:S:1:pos:R:3:forces:R:3 energy=-28.423154830932617 free_energy=-28.423154830932617 stress="5.227844667388126e-05 -1.5983808054897963e-08 8.01009569784128e-09 -1.5983808054897963e-08 5.2291467000031844e-05 -6.657983053770522e-09 8.01009569784128e-09 -6.657983053770522e-09 5.227650763117708e-05" pbc="T T T"
K        2.24078116       1.58447129       3.88114685       0.00000005      -0.00000013      -0.00000004
K        6.72234359       4.75341490      11.64344161      -0.00000008       0.00000001      -0.00000003
Bi      -0.00000018      -0.00000020      -0.00000072       0.00000158       0.00000092       0.00000366
Te       2.53752224       1.79429918       7.76229426      -0.00217545      -0.00153923      -0.00000133
Te       6.42560277       4.54358735       7.76229414       0.00217560       0.00153886      -0.00000089
Te       5.45358217       1.79429954       6.07870630       0.00108790      -0.00153883      -0.00188519
Te       3.50954218       4.54358705       9.44588256      -0.00108889       0.00153919       0.00188448
Te       3.50954267       4.54358671       6.07870648      -0.00108907       0.00153953      -0.00188589
Te       5.45358232       1.79429918       9.44588250       0.00108829      -0.00154030       0.00188528
