9
Lattice="6.131081572952072 4.204833813583529e-09 3.5397809780862475 2.0436937699780424 5.780438371926652 3.539781136806211 -1.505028181479857e-07 8.796985398846098e-08 7.079562216850972" Properties=species:S:1:pos:R:3:forces:R:3 energy=-30.383270263671875 free_energy=-30.383270263671875 stress="-4.3373056541895494e-05 7.450113059803698e-08 2.2916227138125578e-08 7.450113059803698e-08 -4.334660843596794e-05 -1.2868405896426793e-08 2.2916227138125578e-08 -1.2868405896426793e-08 -4.3454037950141355e-05" pbc="T T T"
K        2.04369373       1.44510974       3.53978094      -0.00000071      -0.00000055      -0.00000088
K        6.13108148       4.33532881      10.61934339      -0.00000002      -0.00000013      -0.00000178
Bi       0.00000149       0.00000067      -0.00000371      -0.00000610      -0.00000409       0.00001316
Se       2.42479022       1.71458642       7.07956078       0.00402567       0.00284731      -0.00000674
Se       5.74998468       4.06585152       7.07956093      -0.00402477      -0.00284788      -0.00000718
Se       4.91868518       1.71458779       5.63971226      -0.00201680       0.00285684       0.00349048
Se       3.25608607       4.06585506       8.51941584       0.00201024      -0.00284196      -0.00348723
Se       3.25609015       4.06585037       5.63971199       0.00201933      -0.00285350       0.00348815
Se       4.91868769       1.71458348       8.51941489      -0.00200689       0.00284393      -0.00348803
