9
Lattice="6.044672784633258 -4.1644222171581023e-07 3.489894224608121 2.014890850502152 5.698971678874513 3.4898936791566055 5.445621956439508e-07 -2.829752240482867e-07 6.979787506006679" Properties=species:S:1:pos:R:3:forces:R:3 energy=-30.747676849365234 free_energy=-30.747676849365234 stress="-3.648172423709184e-05 -1.430217224651642e-07 1.5054745006182202e-08 -1.430217224651642e-07 -3.63843901141081e-05 -5.391812152311104e-08 1.5054745006182202e-08 -5.391812152311104e-08 -3.6323428503237665e-05" pbc="T T T"
K        2.01489110       1.42474282       3.48989379      -0.00000015      -0.00000030      -0.00000003
K        6.04467326       4.27422809      10.46968172      -0.00000029       0.00000028      -0.00000039
Bi       0.00000056       0.00000053       0.00000013       0.00000761      -0.00000231       0.00000688
S        1.99018537       1.40727324       6.97978680       0.00137657       0.00097141       0.00000007
S        6.06938056       4.29169857       6.97978815      -0.00138229      -0.00097629       0.00000034
S        5.04957944       1.40727313       5.21344484      -0.00068399       0.00096828       0.00118613
S        3.00998341       4.29169751       8.74612971       0.00068554      -0.00096714      -0.00118560
S        3.00998330       4.29169714       5.21344481       0.00068060      -0.00096175       0.00117758
S        5.04957999       1.40727283       8.74613139      -0.00068393       0.00096783      -0.00118500
