9
Lattice="5.644869850320876 -2.8271584465095656e-07 3.2590671260811748 1.8816230419213684 5.322034541713418 3.259067082730989 -3.5256280131612087e-07 -3.0239228072389115e-07 6.51813486281894" Properties=species:S:1:pos:R:3:forces:R:3 energy=-29.354915618896484 free_energy=-29.354915618896484 stress="-0.00016527652041986585 -2.999673753834031e-08 1.9597599987264402e-08 -2.999673753834031e-08 -0.0001652563369134441 2.3191388365262355e-08 1.9597599987264402e-08 2.3191388365262355e-08 -0.0001652810169616714" pbc="T T T"
K        1.88162318       1.33050851       3.25906714       0.00000014      -0.00000016      -0.00000056
K        5.64486965       3.99152552       9.77720211      -0.00000222       0.00000074      -0.00000012
Ga      -0.00000080      -0.00000110       0.00000055       0.00000825       0.00000923       0.00000083
S        1.87657686       1.32694075       6.51813429       0.00168052       0.00118774       0.00000133
S        5.64991659       3.99509429       6.51813426      -0.00169156      -0.00119669       0.00000106
S        4.70658053       1.32694070       4.88423049      -0.00083990       0.00118950       0.00145778
S        2.81991085       3.99509452       8.15203855       0.00084461      -0.00119336      -0.00146014
S        2.81991166       3.99509336       4.88423041       0.00084281      -0.00119022       0.00145930
S        4.70658142       1.32693927       8.15203848      -0.00084266       0.00119322      -0.00145949
