9
Lattice="5.284332830529463 -2.658462266930046e-07 3.0509106083894313 1.7614440443813189 4.982116191224617 3.050910576900119 -1.4087444090981715e-07 -1.3817966538021397e-07 6.101821460780581" Properties=species:S:1:pos:R:3:forces:R:3 energy=-37.002235412597656 free_energy=-37.002235412597656 stress="3.915435081580654e-05 5.298425165278786e-08 1.2466656151843836e-08 5.298425165278786e-08 3.9218452002387494e-05 2.132474108407223e-08 1.2466656151843836e-08 2.132474108407223e-08 3.913727050530724e-05" pbc="T T T"
K        1.76144370       1.24552904       3.05091099       0.00000113      -0.00000004      -0.00000015
K        5.28433270       3.73658686       9.15273143      -0.00000064       0.00000069      -0.00000023
Ga       0.00000025       0.00000048      -0.00000025      -0.00000164      -0.00000240       0.00000514
O        1.56662593       1.10777083       6.10182126      -0.00005341      -0.00004026      -0.00000018
O        5.47915114       3.87434471       6.10182191       0.00005728       0.00004283       0.00000144
O        4.50101964       1.10777028       4.40764794       0.00002620      -0.00004199      -0.00004914
O        2.54475700       3.87434516       7.79599478      -0.00002587       0.00003895       0.00004682
O        2.54475663       3.87434520       4.40764746      -0.00002843       0.00004035      -0.00004858
O        4.50101973       1.10777053       7.79599467       0.00002515      -0.00003800       0.00004542
