9
Lattice="5.542873981091068 2.9138423772518455e-08 3.2001801197030253 1.8476247518708122 5.225871699489509 3.200180008790881 2.1389246919794832e-07 1.540577670200281e-08 6.400359868933342" Properties=species:S:1:pos:R:3:forces:R:3 energy=-40.93659973144531 free_energy=-40.93659973144531 stress="2.1127623767824844e-05 -2.3141284444250232e-08 -4.4137163257573775e-08 -2.3141284444250232e-08 2.123449303326197e-05 1.0429917374210618e-08 -4.4137163257573775e-08 1.0429917374210618e-08 2.120744284184184e-05" pbc="T T T"
K        1.84762485       1.30646757       3.20017978      -0.00000116      -0.00000145      -0.00000096
K        5.54287379       3.91940449       9.60054105       0.00000067       0.00000081      -0.00000048
Sb       0.00000017       0.00000026      -0.00000043       0.00001352      -0.00001616      -0.00001945
O        1.55022539       1.09617426       6.40035985      -0.00093836      -0.00066376       0.00000050
O        5.84027416       4.12969736       6.40036025       0.00093716       0.00066313       0.00000038
O        4.76776170       1.09617347       4.54271435       0.00046557      -0.00065824      -0.00080508
O        2.62273711       4.12969745       8.25800518      -0.00047675       0.00067389       0.00082457
O        2.62273696       4.12969763       4.54271432      -0.00047058       0.00066626      -0.00081515
O        4.76776205       1.09617435       8.25800538       0.00047004      -0.00066465       0.00081563
