9
Lattice="5.960324026859151 -4.081763249221257e-08 3.441194911997575 1.9867745820044718 5.619447963262664 3.4411950074891275 -1.5047113967858499e-07 1.0553423928562775e-08 6.882390084618856" Properties=species:S:1:pos:R:3:forces:R:3 energy=-31.640600204467773 free_energy=-31.640600204467773 stress="2.6502026230446063e-05 -4.3950567629735815e-08 2.2434408109006654e-08 -4.3950567629735815e-08 2.6410942155052908e-05 -2.7157215143347457e-08 2.2434408109006654e-08 -2.7157215143347457e-08 2.6425572286825627e-05" pbc="T T T"
K        1.98677461       1.40486193       3.44119479      -0.00000037       0.00000015       0.00000038
K        5.96032388       4.21458588      10.32358500       0.00000053      -0.00000013       0.00000088
Sb      -0.00000006      -0.00000017      -0.00000116      -0.00000507      -0.00000075       0.00001855
S        1.99704793       1.41212651       6.88238989      -0.00117004      -0.00082833       0.00000080
S        5.95005003       4.20732132       6.88238992       0.00117499       0.00083250       0.00000032
S        4.96179960       1.41212681       5.17069031       0.00059190      -0.00083762      -0.00102407
S        2.98529841       4.20732177       8.59409044      -0.00058526       0.00082558       0.00101298
S        2.98529935       4.20732110       5.17069023      -0.00059196       0.00083661      -0.00102544
S        4.96179983       1.41212667       8.59409034       0.00058588      -0.00082785       0.00101537
