9
Lattice="6.612372422873721 1.7147795397709614e-07 3.8176552516149136 2.2041243324857684 6.23420470050891 3.8176551999012327 2.8476128793279063e-08 -4.320039253523532e-08 7.635310453907661" Properties=species:S:1:pos:R:3:forces:R:3 energy=-28.44802474975586 free_energy=-28.44802474975586 stress="3.674343679449521e-05 1.3010393651313734e-08 1.5238231787506606e-09 1.3010393651313734e-08 3.672632374218665e-05 6.921558881600731e-09 1.5238231787506606e-09 6.921558881600731e-09 3.673099126899615e-05" pbc="T T T"
K        2.20412390       1.55855104       3.81765512       0.00000061       0.00000052       0.00000008
K        6.61237287       4.67565371      11.45296584      -0.00000033       0.00000023       0.00000006
Sb       0.00000011       0.00000214      -0.00000008       0.00000040      -0.00000449       0.00000013
Te       2.45019348       1.73254872       7.63531051      -0.00100890      -0.00071242       0.00000048
Te       6.36630114       4.50165503       7.63531042       0.00100797       0.00071441       0.00000001
Te       5.38727565       1.73254902       5.93958533       0.00050419      -0.00071213      -0.00087383
Te       3.42922199       4.50165538       9.33103419      -0.00050365       0.00071260       0.00087227
Te       3.42922187       4.50165587       5.93958646      -0.00050370       0.00071326      -0.00087263
Te       5.38727615       1.73254846       9.33103586       0.00050337      -0.00071192       0.00087340
