9
Lattice="5.999194484421574 9.428576351551392e-08 3.4636360928366043 1.999731681904261 5.656094329281569 3.463635922743186 6.613897294565982e-08 -1.6155404373625815e-07 6.927272071117242" Properties=species:S:1:pos:R:3:forces:R:3 energy=-30.68623924255371 free_energy=-30.68623924255371 stress="-1.9823317416012287e-05 3.112193525112161e-08 2.010109234618085e-08 3.112193525112161e-08 -1.9822035028482787e-05 8.050455413410873e-09 2.010109234618085e-08 8.050455413410873e-09 -1.9780538423219696e-05" pbc="T T T"
K        1.99973143       1.41402310       3.46363638      -0.00000048      -0.00000131       0.00000233
K        5.99919465       4.24207057      10.39090864      -0.00000076      -0.00000226       0.00000123
Sb       0.00000058       0.00000062      -0.00000101      -0.00000319      -0.00000694       0.00000801
Se       2.35008091       1.66175691       6.92727393      -0.00111401      -0.00078866       0.00000107
Se       5.64885170       3.99433916       6.92727390       0.00112367       0.00079265       0.00000044
Se       4.82415588       1.66175294       5.49886375       0.00056010      -0.00079165      -0.00096680
Se       3.17476989       3.99433567       8.35568218      -0.00055879       0.00078809       0.00096607
Se       3.17476698       3.99434069       5.49886011      -0.00056261       0.00079608      -0.00097342
Se       4.82415281       1.66175759       8.35567848       0.00055610      -0.00078598       0.00096102
