9
Lattice="4.897458978154319 2.000058113324245e-08 2.8275493303502772 1.63248592895873 4.617368529205846 2.827550050795838 -1.140952179255497e-06 7.558698846248036e-08 5.655100636887512" Properties=species:S:1:pos:R:3:forces:R:3 energy=-43.89916229248047 free_energy=-43.89916229248047 stress="0.00017220932932104915 -2.6873514968883683e-08 -9.60155119855699e-08 -2.6873514968883683e-08 0.0001721833396004513 -1.6033977701113145e-08 -9.60155119855699e-08 -1.6033977701113145e-08 0.00017243236652575433" pbc="T T T"
K        1.63248664       1.15434273       2.82755045      -0.00000062      -0.00000110       0.00000023
K        4.89745721       3.46302604       8.48265072       0.00000416       0.00000274      -0.00000157
Y        0.00000202       0.00000132       0.00000080      -0.00000512      -0.00000304      -0.00000055
O        1.87458976       1.32553637       5.65509999      -0.00137982      -0.00097474       0.00000048
O        4.65535106       3.29183076       5.65510122       0.00138322       0.00097936      -0.00000406
O        3.96016237       1.32553716       4.45099536       0.00069053      -0.00097674      -0.00119925
O        2.56978256       3.29183125       6.85920393      -0.00069471       0.00097850       0.00119972
O        2.56978136       3.29183115       4.45099519      -0.00068913       0.00097525      -0.00119588
O        3.96016128       1.32553793       6.85920282       0.00069155      -0.00098047       0.00120077
