9
Lattice="6.070123806536829 2.7164360765921787e-07 3.504587391054905 2.0233747530632775 5.722967589615872 3.504587573307754 -1.3816395180709603e-07 1.2551652657498375e-07 7.009175021416809" Properties=species:S:1:pos:R:3:forces:R:3 energy=-35.27503967285156 free_energy=-35.27503967285156 stress="-7.913381523394492e-06 -2.0514805854077167e-08 2.390318698530791e-08 -2.0514805854077167e-08 -7.882097634137608e-06 -1.8764458431519415e-08 2.390318698530791e-08 -1.8764458431519415e-08 -7.813040610926691e-06" pbc="T T T"
K        2.02337466       1.43074186       3.50458760       0.00000041       0.00000038      -0.00000019
K        6.07012376       4.29222612      10.51376245      -0.00000019      -0.00000038       0.00000025
Y       -0.00000027      -0.00000020      -0.00000016       0.00000232       0.00000133      -0.00000057
S        2.25657289       1.59563866       7.00917519       0.00095329       0.00067334      -0.00000062
S        5.83692537       4.12732970       7.00917456      -0.00095450      -0.00067348       0.00000002
S        4.94183740       1.59563857       5.45883755      -0.00047756       0.00067345       0.00082532
S        3.15166103       4.12732957       8.55951236       0.00047662      -0.00067428      -0.00082450
S        3.15166129       4.12732920       5.45883817       0.00047683      -0.00067414       0.00082506
S        4.94183747       1.59563851       8.55951219      -0.00047718       0.00067376      -0.00082475
