9
Lattice="6.321993699240742 -1.3306896762125896e-07 3.6500050746225114 2.1073312270935745 5.960432744128182 3.6500048676908707 1.4108712177561646e-07 -1.5367470159786712e-07 7.300009904874848" Properties=species:S:1:pos:R:3:forces:R:3 energy=-34.28923034667969 free_energy=-34.28923034667969 stress="6.892254987178603e-06 1.3046871139010818e-08 -7.236889976169891e-10 1.3046871139010818e-08 6.890630629641237e-06 -9.677196821655798e-09 -7.236889976169891e-10 -9.677196821655798e-09 6.8462122726487e-06" pbc="T T T"
K        2.10733134       1.49010812       3.65000501      -0.00000016       0.00000006       0.00000001
K        6.32199380       4.47032429      10.95001492       0.00000039       0.00000004      -0.00000025
Y        0.00000063       0.00000046       0.00000082      -0.00000080       0.00000011      -0.00000181
Se       2.40575177       1.70112326       7.30000995       0.00028965       0.00020426       0.00000084
Se       6.02357175       4.25930842       7.30000968      -0.00029297      -0.00020761       0.00000158
Se       5.11911808       1.70112358       5.73344727      -0.00014347       0.00020563       0.00025249
Se       3.31020758       4.25930860       8.86657233       0.00014753      -0.00020608      -0.00025234
Se       3.31020740       4.25930923       5.73344694       0.00014443      -0.00020422       0.00025172
Se       5.11911795       1.70112381       8.86657247      -0.00014461       0.00020782      -0.00025226
