9
Lattice="6.7545498351324795 -7.975702853901552e-08 3.8997409540288976 2.251516516791305 6.368250595638244 3.899740988191804 -1.8458834415368742e-07 -8.868293670787093e-08 7.799482227774361" Properties=species:S:1:pos:R:3:forces:R:3 energy=-33.55575942993164 free_energy=-33.55575942993164 stress="2.884566674765665e-05 -7.070772856110352e-09 1.5099003158880464e-09 -7.070772856110352e-09 2.8831063900724985e-05 -2.4677282439711234e-09 1.5099003158880464e-09 -2.4677282439711234e-09 2.8848797228420153e-05" pbc="T T T"
K        2.25151633       1.59206258       3.89974093       0.00000011       0.00000013      -0.00000033
K        6.75454978       4.77618772      11.69922317      -0.00000014      -0.00000023      -0.00000028
Y        0.00000008       0.00000020      -0.00000002      -0.00000014       0.00000033      -0.00000087
Te       2.51697395       1.77976948       7.79948167       0.00042447       0.00030120       0.00000200
Te       6.48909243       4.58848104       7.79948201      -0.00042558      -0.00030146       0.00000016
Te       5.49606235       1.77976935       6.07950439      -0.00021063       0.00030008       0.00036753
Te       3.51000330       4.58848137       9.51946008       0.00021295      -0.00030229      -0.00036852
Te       3.51000378       4.58848085       6.07950456       0.00021116      -0.00029955       0.00036817
Te       5.49606261       1.77976911       9.51945990      -0.00021226       0.00030182      -0.00036785
