9
Lattice="5.6249703321584095 -1.4381102190495244e-07 3.247577862686459 1.8749901517003196 5.30327185974231 3.2475775568631335 1.5489971523802567e-07 -2.650248922153939e-07 6.49515545707872" Properties=species:S:1:pos:R:3:forces:R:3 energy=-30.87115478515625 free_energy=-30.87115478515625 stress="-3.770022885873914e-05 2.7197179619520284e-08 2.9823578273635576e-08 2.7197179619520284e-08 -3.763840868487023e-05 -4.378904794322125e-09 2.9823578273635576e-08 -4.378904794322125e-09 -3.7726000300608575e-05" pbc="T T T"
Li       1.87498983       1.32581864       3.24757685      -0.00000009       0.00000456      -0.00000295
Li       5.62497024       3.97745370       9.74273242      -0.00000134      -0.00000080      -0.00000258
As      -0.00000032      -0.00000050      -0.00000043       0.00000663       0.00000601       0.00000198
S        1.93535670       1.36850274       6.49515429       0.00027585       0.00019336      -0.00000467
S        5.56460571       3.93476741       6.49515449      -0.00027919      -0.00020522      -0.00000483
S        4.65729255       1.36850262       4.92364544      -0.00013852       0.00019562       0.00024259
S        2.84266805       3.93476665       8.06666754       0.00013953      -0.00020814      -0.00023913
S        2.84266789       3.93476967       4.92364577       0.00013715      -0.00019324       0.00024498
S        4.65729228       1.36850476       8.06666714      -0.00014019       0.00020730      -0.00023556
