9
Lattice="5.581797031238768 1.62937326868033e-07 3.222652117936666 1.860599213087971 5.262568663025759 3.2226520329686994 5.190753973345162e-08 -6.735983920113082e-08 6.445304145966684" Properties=species:S:1:pos:R:3:forces:R:3 energy=-30.95465850830078 free_energy=-30.95465850830078 stress="-9.766399671207182e-06 2.7814067493636685e-08 1.8573294013890518e-08 2.7814067493636685e-08 -9.773479177965783e-06 -2.434166468390231e-08 1.8573294013890518e-08 -2.434166468390231e-08 -9.819356819207314e-06" pbc="T T T"
Li       1.86059946       1.31564226       3.22265240       0.00000101      -0.00000037       0.00000043
Li       5.58179745       3.94692701       9.66795765       0.00000035       0.00000073       0.00000125
As      -0.00000055       0.00000051      -0.00000070       0.00000427      -0.00000254       0.00000283
Se       2.13341594       1.50855268       6.44530410      -0.00100082      -0.00070867      -0.00000040
Se       5.30898029       3.75401612       6.44530385       0.00099975       0.00070558      -0.00000080
Se       4.51508936       1.50855255       5.07024350       0.00049809      -0.00070469      -0.00086254
Se       2.92730693       3.75401589       7.82036368      -0.00050031       0.00070700       0.00086617
Se       2.92730713       3.75401583       5.07024412      -0.00050087       0.00070818      -0.00086883
Se       4.51508918       1.50855213       7.82036451       0.00049867      -0.00070515       0.00086182
