9
Lattice="4.33637969204595 1.2948558361750853e-06 2.503610013955667 1.4454601793122435 4.088381392627525 2.5036116400707016 -1.640752998566322e-07 1.8755574842069653e-06 5.00722031209792" Properties=species:S:1:pos:R:3:forces:R:3 energy=-41.39663314819336 free_energy=-41.39663314819336 stress="0.0005320669151842594 -2.7778693834079604e-07 -1.9294088549060007e-09 -2.7778693834079604e-07 0.0005323896766640246 -4.3755882472851226e-08 -1.9294088549060007e-09 -4.3755882472851226e-08 0.0005325519596226513" pbc="T T T"
Li       1.44546230       1.02209519       2.50361036       0.00000529      -0.00000078       0.00000123
Li       4.33637788       3.06628825       7.51083204      -0.00000076       0.00000204       0.00000249
As      -0.00000121      -0.00000115      -0.00000125       0.00000507       0.00000496       0.00000363
O        1.48143808       1.04753289       5.00721894      -0.00235653      -0.00166649       0.00000435
O        4.30040679       3.04085492       5.00722022       0.00232738       0.00164276       0.00000438
O        3.59566023       1.04753620       3.78657063       0.00119323      -0.00166452      -0.00204057
O        2.18617538       3.04084989       6.22787156      -0.00117251       0.00165731       0.00203490
O        2.18617900       3.04084591       3.78657358      -0.00118273       0.00167406      -0.00204420
O        3.59566086       1.04753571       6.22787068       0.00118133      -0.00164980       0.00203460
