9
Lattice="5.975682575500131 3.911589130976571e-08 3.4500617437417076 1.9918941334592426 5.633927986445702 3.45006190872465 -1.7710942664257027e-07 7.682674264207034e-08 6.900123794245948" Properties=species:S:1:pos:R:3:forces:R:3 energy=-29.543712615966797 free_energy=-29.543712615966797 stress="5.023518679081462e-05 1.974205865451495e-08 1.3028131462533565e-08 1.974205865451495e-08 5.018386218580417e-05 4.465992908819771e-09 1.3028131462533565e-08 4.465992908819771e-09 5.0216945965075865e-05" pbc="T T T"
Li       1.99189408       1.40848208       3.45006148      -0.00000008      -0.00000006      -0.00000075
Li       5.97568254       4.22544626      10.35018566       0.00000018       0.00000125       0.00000008
Bi      -0.00000015      -0.00000005       0.00000016      -0.00000033       0.00000094       0.00000107
Se       2.36050929       1.66913160       6.90012463       0.00683984       0.00483516       0.00000071
Se       5.60706875       3.96479681       6.90012429      -0.00684083      -0.00483666      -0.00000090
Se       4.79542832       1.66913111       5.49432260      -0.00342053       0.00483759       0.00592595
Se       3.17214789       3.96479606       8.30592509       0.00342017      -0.00483674      -0.00592504
Se       3.17214803       3.96479696       5.49432194       0.00342222      -0.00483735       0.00592521
Se       4.79542735       1.66913160       8.30592400      -0.00342061       0.00483595      -0.00592618
