9
Lattice="5.798072271259601 -6.666740068555728e-08 3.3475183217176636 1.9326907205776958 5.466474905840115 3.3475182760852262 6.286627137292284e-08 -1.1434746578483068e-08 6.695036534547809" Properties=species:S:1:pos:R:3:forces:R:3 energy=-29.95248794555664 free_energy=-29.95248794555664 stress="0.00010421209299238399 -4.409208109734664e-09 -1.153834219280725e-07 -4.409208109734664e-09 0.00010419863974675536 1.0926657978416188e-07 -1.153834219280725e-07 1.0926657978416188e-07 0.00010422676132293418" pbc="T T T"
Li       1.93269020       1.36661840       3.34751799      -0.00000116      -0.00000099      -0.00000059
Li       5.79807217       4.09985500      10.04255419      -0.00000082      -0.00000330      -0.00000224
Bi      -0.00000031      -0.00000074       0.00000077       0.00000578       0.00002205      -0.00003554
S        1.99155021       1.40823876       6.69503646      -0.00461033      -0.00325853      -0.00000061
S        5.73921316       4.05823598       6.69503682       0.00459608       0.00324982       0.00000110
S        4.80229691       1.40823913       5.07225116       0.00230190      -0.00325373      -0.00398543
S        2.92846705       4.05823589       8.31782194      -0.00230549       0.00326288       0.00399542
S        2.92846555       4.05823716       5.07225086      -0.00229265       0.00324291      -0.00396842
S        4.80229753       1.40823948       8.31782246       0.00230680      -0.00326112       0.00399637
