9
Lattice="6.635126874604113 1.455917683618748e-07 3.8307921273596386 2.2117091194578578 6.255657438468124 3.8307920858055695 2.606917372011676e-08 -3.245946131964952e-08 7.661584209566138" Properties=species:S:1:pos:R:3:forces:R:3 energy=-27.60776138305664 free_energy=-27.60776138305664 stress="-5.533561125048436e-05 8.91857787621575e-09 3.09751291283078e-09 8.91857787621575e-09 -5.53337849851232e-05 -2.4506641160826348e-09 3.09751291283078e-09 -2.4506641160826348e-09 -5.533149669645354e-05" pbc="T T T"
Li       2.21170906       1.56391435       3.83079213       0.00000035       0.00000015      -0.00000035
Li       6.63512686       4.69174327      11.49237624       0.00000001       0.00000000       0.00000039
Bi       0.00000019      -0.00000006      -0.00000016      -0.00000159      -0.00000006      -0.00000002
Te       2.48514322       1.75726153       7.66158425      -0.00066999      -0.00047396       0.00000003
Te       6.36169294       4.49839616       7.66158434       0.00066999       0.00047417       0.00000023
Te       5.39255540       1.75726141       5.98298879       0.00033464      -0.00047338      -0.00057988
Te       3.45428046       4.49839608       9.34017953      -0.00033438       0.00047348       0.00057979
Te       3.45428050       4.49839601       5.98298894      -0.00033419       0.00047350      -0.00058030
Te       5.39255545       1.75726142       9.34017959       0.00033514      -0.00047399       0.00058010
