9
Lattice="5.577738813456709 1.2184271816197742e-07 3.2203089745097024 1.859246464691137 5.258742940797719 3.2203088382588256 1.5740050226374919e-07 -5.557356782835077e-08 6.4406176763938126" Properties=species:S:1:pos:R:3:forces:R:3 energy=-28.677595138549805 free_energy=-28.677595138549805 stress="-0.00025394547265022993 -5.976613692837418e-08 -3.536551673732902e-08 -5.976613692837418e-08 -0.0002540768764447421 -1.0088404778230142e-08 -3.536551673732902e-08 -1.0088404778230142e-08 -0.0002538409025873989" pbc="T T T"
Li       1.85924650       1.31468500       3.22030911       0.00000082      -0.00000247       0.00000098
Li       5.57773926       3.94405788       9.66092675       0.00000109       0.00000306       0.00000020
Ga      -0.00000018      -0.00000047      -0.00000032       0.00000459       0.00000519       0.00000337
Se       2.09131254       1.47878053       6.44061778      -0.00597847      -0.00422920       0.00000146
Se       5.34567385       3.77996429       6.44061840       0.00596863       0.00422406       0.00000288
Se       4.53208213       1.47878085       5.03143891       0.00298836      -0.00422680      -0.00517479
Se       2.90490227       3.77996314       7.84979666      -0.00298437       0.00422524       0.00517051
Se       2.90490267       3.77996129       5.03143845      -0.00298753       0.00422701      -0.00517592
Se       4.53208269       1.47877948       7.84979629       0.00298686      -0.00422613       0.00517118
