9
Lattice="5.361315287907246 1.8546425206490105e-07 3.0953572351039202 1.787105289316977 5.054696680708043 3.095357203077377 2.779029031089973e-07 1.572826716825216e-07 6.190713988865763" Properties=species:S:1:pos:R:3:forces:R:3 energy=-29.209110260009766 free_energy=-29.209110260009766 stress="-5.0762890168698505e-05 -1.1028912183519424e-07 -6.49828137966324e-08 -1.1028912183519424e-07 -5.074881119071506e-05 -1.2270140459236245e-08 -6.49828137966324e-08 -1.2270140459236245e-08 -5.0710350478766486e-05" pbc="T T T"
Li       1.78710607       1.26367374       3.09535702       0.00000346      -0.00000121       0.00000070
Li       5.36131472       3.79102274       9.28606991      -0.00000434       0.00000072      -0.00000508
Ga      -0.00000011       0.00000035       0.00000005       0.00000266      -0.00000072       0.00000022
S        1.85515217       1.31178904       6.19071250      -0.00070547      -0.00050796      -0.00000796
S        5.29326987       3.74290654       6.19071480       0.00070844       0.00050067       0.00000098
S        4.43373734       1.31178952       4.70196579       0.00034595      -0.00050817      -0.00061873
S        2.71468191       3.74290553       7.67946293      -0.00035518       0.00050302       0.00062061
S        2.71468221       3.74290782       4.70196646      -0.00035219       0.00050806      -0.00061487
S        4.43373917       1.31179279       7.67946419       0.00035673      -0.00049442       0.00062411
