9
Lattice="4.330400684180556 -3.941991590045296e-08 2.5001579598635666 1.4434668823092542 4.082740988768109 2.500157916999022 -6.532858874774994e-08 -9.869243356257214e-08 5.000316032879541" Properties=species:S:1:pos:R:3:forces:R:3 energy=-38.6512565612793 free_energy=-38.6512565612793 stress="0.00016890709230210632 3.413317983813613e-08 2.2381186681741383e-08 3.413317983813613e-08 0.0001689444325165823 -2.2734171878369125e-08 2.2381186681741383e-08 -2.2734171878369125e-08 0.00016886796220205724" pbc="T T T"
Li       1.44346669       1.02068543       2.50015796      -0.00000035       0.00000106       0.00000073
Li       4.33040040       3.06205548       7.50047372       0.00000044      -0.00000010      -0.00000024
Ga       0.00000032       0.00000005       0.00000037      -0.00000626       0.00000313      -0.00001288
O        1.52802372       1.08047613       5.00031598      -0.00179615      -0.00126934      -0.00000068
O        4.24584404       3.00226469       5.00031628       0.00179684       0.00127144       0.00000021
O        3.56638909       1.08047582       3.82346531       0.00089693      -0.00126759      -0.00155373
O        2.20747871       3.00226479       6.17716681      -0.00089774       0.00127088       0.00155615
O        2.20747834       3.00226474       3.82346497      -0.00089534       0.00126525      -0.00155025
O        3.56638865       1.08047624       6.17716618       0.00090171      -0.00127481       0.00156086
