9
Lattice="6.348435072904299 -3.080158476362567e-08 3.66527070097803 2.116144985511895 5.9853619956224815 3.665270717864705 -3.6590278768360965e-08 -5.191375318379197e-09 7.330541465332226" Properties=species:S:1:pos:R:3:forces:R:3 energy=-26.93092918395996 free_energy=-26.93092918395996 stress="-2.5377030397066846e-05 1.5621242077656916e-09 2.054151293506834e-09 1.5621242077656916e-09 -2.5368217393406667e-05 3.0889729663030607e-10 2.054151293506834e-09 3.0889729663030607e-10 -2.5370103685418144e-05" pbc="T T T"
Li       2.11614483       1.49634063       3.66527069      -0.00000031       0.00000052       0.00000020
Li       6.34843515       4.48902139      10.99581226       0.00000009       0.00000001       0.00000010
Ga       0.00000018       0.00000007      -0.00000050       0.00000025      -0.00000003       0.00000199
Te       2.28781149       1.61772702       7.33054154      -0.00415467      -0.00293726       0.00000007
Te       6.17676872       4.36763481       7.33054139       0.00415395       0.00293737       0.00000031
Te       5.20452927       1.61772717       5.64657382       0.00207800      -0.00293836      -0.00359909
Te       3.26005049       4.36763516       9.01450928      -0.00207695       0.00293732       0.00359674
Te       3.26005061       4.36763485       5.64657367      -0.00207758       0.00293751      -0.00359784
Te       5.20452931       1.61772668       9.01450937       0.00207713      -0.00293708       0.00359748
