9
Lattice="4.464995845198737 2.1582767298677154e-07 2.5778642556054243 1.4883323623190505 4.20963618303487 2.5778638911210185 1.2527256420983303e-06 4.3941037582900335e-07 5.155726341426473" Properties=species:S:1:pos:R:3:forces:R:3 energy=-38.329490661621094 free_energy=-38.329490661621094 stress="-0.0001792601397028193 -1.371219013890368e-07 -6.177648970151495e-08 -1.371219013890368e-07 -0.00017892681353259832 3.0598945954807277e-07 -6.177648970151495e-08 3.0598945954807277e-07 -0.0001789815869415179" pbc="T T T"
Li       1.48833127       1.05240933       2.57786444      -0.00001331      -0.00000118       0.00001884
Li       4.46499638       3.15722663       7.73359229      -0.00000768      -0.00000161       0.00002204
N       -0.00000402      -0.00000011       0.00001073      -0.00004773       0.00000229       0.00009856
O        1.26279171       0.89292517       5.15572231       0.00635815       0.00449395      -0.00002336
O        4.69053952       3.31670792       5.15572236      -0.00634003      -0.00449026      -0.00002025
O        3.83360149       0.89293226       3.67147340      -0.00314772       0.00447226       0.00545120
O        2.11972813       3.31671413       6.63998045       0.00318003      -0.00447667      -0.00552011
O        2.11973141       3.31670654       3.67146881       0.00318122      -0.00448990       0.00548172
O        3.83360490       0.89292597       6.63998180      -0.00316441       0.00449073      -0.00550961
