9
Lattice="6.53299880315102 1.5483742896126466e-08 3.7718285374423495 2.1776662518227035 6.1593703157249085 3.771828590256998 -4.009045723145142e-08 3.63362365435896e-08 7.543657144323472" Properties=species:S:1:pos:R:3:forces:R:3 energy=-27.78156280517578 free_energy=-27.78156280517578 stress="-9.088277874980122e-05 3.834411010927852e-09 -1.5284166821061262e-08 3.834411010927852e-09 -9.088957449421287e-05 1.7658400963682652e-08 -1.5284166821061262e-08 1.7658400963682652e-08 -9.088720253203064e-05" pbc="T T T"
Li       2.17766625       1.53984258       3.77182864       0.00000019      -0.00000013       0.00000031
Li       6.53299875       4.61952779      11.31548556      -0.00000014       0.00000027      -0.00000011
Sb       0.00000008       0.00000005      -0.00000014       0.00000015       0.00000091      -0.00000098
Te       2.39931285       1.69657046       7.54365703      -0.00165564      -0.00117144       0.00000036
Te       6.31135199       4.46279976       7.54365723       0.00165647       0.00117137      -0.00000000
Te       5.33334222       1.69657049       5.84969449       0.00082784      -0.00117126      -0.00143385
Te       3.37732277       4.46280012       9.23761983      -0.00082808       0.00117083       0.00143461
Te       3.37732270       4.46279989       5.84969445      -0.00082804       0.00117038      -0.00143383
Te       5.33334244       1.69657030       9.23761999       0.00082732      -0.00117098       0.00143348
