9
Lattice="5.745336219746977 1.007777083402807e-07 3.31707119407918 1.9151120603472913 5.416754757071603 3.3170713809949164 -1.7340411550396925e-07 1.063088264623418e-07 6.634142688503138" Properties=species:S:1:pos:R:3:forces:R:3 energy=-30.487442016601562 free_energy=-30.487442016601562 stress="6.476998532889411e-05 5.4089483114694303e-08 1.3789494879290487e-08 5.4089483114694303e-08 6.472527456935495e-05 -6.470763480592723e-09 1.3789494879290487e-08 -6.470763480592723e-09 6.470926746260375e-05" pbc="T T T"
Li       1.91511157       1.35418852       3.31707127      -0.00000212      -0.00000107       0.00000004
Li       5.74533655       4.06256648       9.95121363       0.00000097       0.00000063      -0.00000022
Sb      -0.00000022      -0.00000004      -0.00000088       0.00000208       0.00000144       0.00001790
S        1.99045061       1.40746209       6.63414400      -0.00602609      -0.00425845       0.00000387
S        5.66999660       4.00929393       6.63414381       0.00602096       0.00425944       0.00000509
S        4.75011094       1.40746139       5.04085190       0.00301510      -0.00426117      -0.00522053
S        2.91033728       4.00929445       8.22743277      -0.00300726       0.00425422       0.00520915
S        2.91033773       4.00929268       5.04085168      -0.00301358       0.00425965      -0.00522155
S        4.75011134       1.40746035       8.22743250       0.00300986      -0.00425506       0.00520599
