9
Lattice="4.540274640059018 1.461225897683736e-07 2.6213286521630543 1.5134248710873106 4.280612671704906 2.6213289062515583 -4.02573399836984e-07 2.653118622479753e-08 5.242658001603694" Properties=species:S:1:pos:R:3:forces:R:3 energy=-40.65565490722656 free_energy=-40.65565490722656 stress="0.00013226507871877402 -4.478317805478582e-08 7.894451670154012e-08 -4.478317805478582e-08 0.00013215812214184552 -2.1231420532785705e-07 7.894451670154012e-08 -2.1231420532785705e-07 0.00013235435471870005" pbc="T T T"
Li       1.51342417       1.07015361       2.62132904      -0.00000146      -0.00000054       0.00000042
Li       4.54027463       3.21045888       7.86398650       0.00000148      -0.00000077      -0.00000081
Sb       0.00000063       0.00000087       0.00000019      -0.00001915      -0.00002145      -0.00001121
O        1.64339860       1.16205925       5.24265815       0.00213319       0.00150788      -0.00000155
O        4.41029852       3.11855332       5.24265817      -0.00210857      -0.00148970      -0.00000120
O        3.71857538       1.16205929       4.04455421      -0.00106505       0.00150657       0.00184321
O        2.33512455       3.11855285       6.44076020       0.00105464      -0.00149572      -0.00182897
O        2.33512464       3.11855307       4.04455566       0.00106019      -0.00149971       0.00183231
O        3.71857477       1.16206037       6.44075937      -0.00105572       0.00149298      -0.00183201
