9
Lattice="5.801253373757975 -1.6558984638556375e-07 3.349355106031231 1.9337509487175026 5.4694739745264584 3.3493551402373924 -1.9396305054680257e-07 -9.525880726573927e-08 6.69871054801635" Properties=species:S:1:pos:R:3:forces:R:3 energy=-30.078113555908203 free_energy=-30.078113555908203 stress="-5.0666931201703846e-05 1.1356870999179591e-08 8.912359739099429e-09 1.1356870999179591e-08 -5.06250471516978e-05 2.5721185181737383e-08 8.912359739099429e-09 2.5721185181737383e-08 -5.0647806347114965e-05" pbc="T T T"
Li       1.93375102       1.36736892       3.34935491       0.00000008       0.00000043      -0.00000099
Li       5.80125349       4.10210509      10.04806626       0.00000090      -0.00000117       0.00000078
Sb       0.00000034       0.00000027      -0.00000032      -0.00000468      -0.00000244       0.00000182
Se       2.25432530       1.59404950       6.69871101       0.00007837       0.00005613      -0.00000003
Se       5.48067825       3.87542399       6.69870994      -0.00007546      -0.00005428      -0.00000143
Se       4.67409038       1.59404915       5.30165842      -0.00003877       0.00005648       0.00006695
Se       3.06091344       3.87542380       8.09576151       0.00003751      -0.00005534      -0.00006691
Se       3.06091407       3.87542498       5.30165916       0.00004055      -0.00005582       0.00006802
Se       4.67409021       1.59404917       8.09576228      -0.00003852       0.00005601      -0.00006829
