9
Lattice="4.735767495181822 1.0484474757680537e-07 2.7341966341870063 1.5785892074534453 4.464924569174272 2.7341967319712173 -1.0759050194826155e-07 4.368275428194426e-08 5.468393454726185" Properties=species:S:1:pos:R:3:forces:R:3 energy=-44.491661071777344 free_energy=-44.491661071777344 stress="2.5003286282299086e-05 3.960989758411415e-08 -5.104476485939813e-08 3.960989758411415e-08 2.5016510335262865e-05 2.412138755403248e-08 -5.104476485939813e-08 2.412138755403248e-08 2.4920873329392634e-05" pbc="T T T"
Li       1.57858912       1.11623109       2.73419665      -0.00000008      -0.00000090       0.00000051
Li       4.73576747       3.34869359       8.20258995       0.00000029       0.00000074      -0.00000075
Y       -0.00000009      -0.00000010       0.00000034       0.00000153       0.00000084      -0.00000194
O        1.80613241       1.27712876       5.46839336      -0.00734100      -0.00519034       0.00000043
O        4.50822436       3.18779618       5.46839368       0.00733969       0.00518945       0.00000112
O        3.83270104       1.27712840       4.29835324       0.00366905      -0.00518987      -0.00635710
O        2.48165531       3.18779619       6.63843361      -0.00367022       0.00519067       0.00635689
O        2.48165545       3.18779624       4.29835304      -0.00366905       0.00519076      -0.00635582
O        3.83270126       1.27712861       6.63843331       0.00366990      -0.00519139       0.00635657
