9
Lattice="6.249436742819828 -4.507596609721149e-08 3.6081139221147707 2.0831454739580906 5.892025552871873 3.6081140338041076 -1.857215705702492e-07 5.465883784341192e-09 7.2162281659087" Properties=species:S:1:pos:R:3:forces:R:3 energy=-32.628746032714844 free_energy=-32.628746032714844 stress="2.752047475951258e-05 3.021688854687454e-08 -3.44646067240717e-09 3.021688854687454e-08 2.757916081463918e-05 2.4275973231624448e-08 -3.44646067240717e-09 2.4275973231624448e-08 2.75615238933824e-05" pbc="T T T"
Li       2.08314540       1.47300638       3.60811385      -0.00000127       0.00000084       0.00000196
Li       6.24943681       4.41901892      10.82434095       0.00000187       0.00000004       0.00000074
Y        0.00000033       0.00000225       0.00000194      -0.00000300      -0.00001264      -0.00001356
Se       2.35236009       1.66336967       7.21622705       0.00653778       0.00462664       0.00000049
Se       5.98022324       4.22865595       7.21622685      -0.00653601      -0.00462126       0.00000124
Se       5.07325597       1.66337045       5.64531820      -0.00326918       0.00462696       0.00566396
Se       3.25932313       4.22865740       8.78713936       0.00326541      -0.00461761      -0.00566102
Se       3.25932544       4.22865390       5.64531729       0.00326946      -0.00462443       0.00566518
Se       5.07325773       1.66336720       8.78713898      -0.00326507       0.00462143      -0.00565910
