9
Lattice="6.677875600460789 -1.1172078092384578e-07 3.8554732558420275 2.2259584459073967 6.295961512466028 3.8554732250949897 -1.3597789938700692e-08 -4.727234562316034e-08 7.710946535236071" Properties=species:S:1:pos:R:3:forces:R:3 energy=-32.47067642211914 free_energy=-32.47067642211914 stress="-9.584483632352203e-05 -1.8684600533447338e-08 -7.475534857803723e-09 -1.8684600533447338e-08 -9.582599886925891e-05 3.743139576073418e-09 -7.475534857803723e-09 3.743139576073418e-09 -9.581757331034169e-05" pbc="T T T"
Li       2.22595852       1.57399022       3.85547330      -0.00000017       0.00000006      -0.00000035
Li       6.67787552       4.72197103      11.56641968       0.00000044      -0.00000014       0.00000017
Y        0.00000015       0.00000002      -0.00000012       0.00000094       0.00000176       0.00000038
Te       2.47180837       1.74783232       7.71094649      -0.00392275      -0.00277295      -0.00000045
Te       6.43202563       4.54812896       7.71094659       0.00392362       0.00277345      -0.00000076
Te       5.44197125       1.74783260       5.99612208       0.00196148      -0.00277499      -0.00339725
Te       3.46186269       4.54812870       9.42577098      -0.00196301       0.00277511       0.00339758
Te       3.46186274       4.54812890       5.99612207      -0.00196188       0.00277294      -0.00339666
Te       5.44197130       1.74783267       9.42577097       0.00196129      -0.00277524       0.00339740
