9
Lattice="5.959459367952126 -5.736047159484167e-08 3.4406953665155 1.9864863216599085 5.618632420155215 3.440695505502447 -1.9252634557700585e-07 3.4086888875899436e-08 6.881391066496347" Properties=species:S:1:pos:R:3:forces:R:3 energy=-34.262939453125 free_energy=-34.262939453125 stress="-3.2146057492354885e-05 -6.390622075969077e-08 7.296403925494133e-09 -6.390622075969077e-08 -3.211516741430387e-05 2.555477252030869e-08 7.296403925494133e-09 2.555477252030869e-08 -3.211829607607797e-05" pbc="T T T"
Li       1.98648606       1.40465906       3.44069574      -0.00000078       0.00000284       0.00000105
Li       5.95945919       4.21397405      10.32208552       0.00000086      -0.00000131      -0.00000299
Y        0.00000057      -0.00000011       0.00000033      -0.00000272       0.00000077       0.00000048
S        2.22648723       1.57436494       6.88139098       0.00052523       0.00037089      -0.00000149
S        5.71945867       4.04426729       6.88139132      -0.00052527      -0.00037287       0.00000038
S        4.84621473       1.57436500       5.36889115      -0.00026232       0.00037195       0.00045669
S        3.09973049       4.04426660       8.39389060       0.00026449      -0.00037182      -0.00045418
S        3.09972992       4.04426667       5.36889117       0.00026167      -0.00037236       0.00045497
S        4.84621515       1.57436595       8.39389095      -0.00026113       0.00037197      -0.00045497
