9
Lattice="5.519483341748368 -1.517850112236582e-08 3.1866751101591015 1.8398277346814396 5.203818619432358 3.186675164876146 -8.435609926638362e-08 7.365721149717139e-09 6.373350366427293" Properties=species:S:1:pos:R:3:forces:R:3 energy=-31.898700714111328 free_energy=-31.898700714111328 stress="1.194237484014593e-05 -2.7070552022223637e-08 -2.5489867994110682e-08 -2.7070552022223637e-08 1.1872013601532672e-05 3.4644170199271684e-08 -2.5489867994110682e-08 3.4644170199271684e-08 1.1923780220968183e-05" pbc="T T T"
Mg       1.83982700       1.30095462       3.18667504      -0.00000020      -0.00000117      -0.00000105
Mg       5.51948340       3.90286429       9.56002518      -0.00000006       0.00000223      -0.00000054
As       0.00000032       0.00000046      -0.00000064      -0.00000556      -0.00000817       0.00001213
S        1.90423879       1.34649954       6.37335024      -0.00271749      -0.00192219       0.00000017
S        5.45507197       3.85731877       6.37335013       0.00272804       0.00192827      -0.00000003
S        4.56736396       1.34649997       4.83579466       0.00136355      -0.00193000      -0.00235885
S        2.79194724       3.85731847       7.91090691      -0.00136054       0.00192118       0.00235748
S        2.79194680       3.85731879       4.83579432      -0.00136542       0.00192958      -0.00235987
S        4.56736445       1.34649947       7.91090691       0.00135756      -0.00192004       0.00235075
