9
Lattice="4.434257899892992 1.5174300282232774e-07 2.560119491581604 1.4780860704517789 4.180658769163319 2.5601195595539936 -4.6989906583809004e-08 5.0021954866034287e-08 5.12023906455213" Properties=species:S:1:pos:R:3:forces:R:3 energy=-46.39324951171875 free_energy=-46.39324951171875 stress="0.000117519884952344 2.938820209408277e-08 7.790124811890564e-08 2.938820209408277e-08 0.00011739326873794198 -5.846807837883716e-08 7.790124811890564e-08 -5.846807837883716e-08 0.00011766448005801067" pbc="T T T"
Mg       1.47808637       1.04516421       2.56011924      -0.00000230      -0.00000206      -0.00000079
Mg       4.43425769       3.13549432       7.68035907       0.00000012      -0.00000061      -0.00000114
As      -0.00000026      -0.00000010      -0.00000042       0.00000148       0.00000607       0.00000526
O        1.47480057       1.04284181       5.12023930      -0.00154877      -0.00109428       0.00000058
O        4.43754318       3.13781679       5.12023964       0.00154650       0.00109643       0.00000205
O        3.69685801       1.04284186       3.83733416       0.00077254      -0.00109470      -0.00134814
O        2.21548619       3.13781777       6.40314387      -0.00077170       0.00109160       0.00133729
O        2.21548643       3.13781777       3.83733424      -0.00076896       0.00109327      -0.00133944
O        3.69685765       1.04284138       6.40314327       0.00077081      -0.00109577       0.00134289
