9
Lattice="6.046431214428112 7.572032515649413e-08 3.490908662522901 2.0154770647217277 5.7006303471106134 3.4909087978725006 -8.05264857416256e-08 1.0882787177710493e-07 6.98181746452175" Properties=species:S:1:pos:R:3:forces:R:3 energy=-27.543331146240234 free_energy=-27.543331146240234 stress="-0.0002651676768437028 1.4338146669956586e-08 -5.0183412980686626e-09 1.4338146669956586e-08 -0.00026514590717852116 2.2661510445942668e-09 -5.0183412980686626e-09 2.2661510445942668e-09 -0.0002651993418112397" pbc="T T T"
Mg       2.01547725       1.42515687       3.49090884       0.00000037      -0.00000212      -0.00000036
Mg       6.04643106       4.27547370      10.47272705       0.00000013       0.00000190       0.00000142
B        0.00000030       0.00000001      -0.00000026      -0.00000506       0.00000144       0.00000225
Te       1.88763293       1.33475791       6.98181757       0.00688499       0.00486815       0.00000017
Te       6.17427542       4.36587251       6.98181755      -0.00688201      -0.00486618      -0.00000063
Te       5.10261470       1.33475778       5.12564647      -0.00344226       0.00486761       0.00596058
Te       2.95929307       4.36587280       8.83798830       0.00344260      -0.00486919      -0.00596425
Te       2.95929334       4.36587316       5.12564647       0.00344369      -0.00486934       0.00596392
Te       5.10261473       1.33475735       8.83798790      -0.00344245       0.00486767      -0.00596309
