9
Lattice="5.291068746059803 3.9269133034902176e-08 3.054800248957083 1.7636895898355731 4.988468094508556 3.0548002995462897 -6.372652869848237e-08 1.68973410882613e-08 6.109600608291819" Properties=species:S:1:pos:R:3:forces:R:3 energy=-34.34846496582031 free_energy=-34.34846496582031 stress="-0.00013884897634852678 -6.759271808931544e-09 -1.2603914356645873e-08 -6.759271808931544e-09 -0.00013892468996345997 8.722797484317368e-10 -1.2603914356645873e-08 8.722797484317368e-10 -0.00013886095257475972" pbc="T T T"
Mg       1.76369018       1.24711734       3.05479966       0.00000196       0.00000099      -0.00000143
Mg       5.29106862       3.74135220       9.16440139      -0.00000074       0.00000431       0.00000013
B        0.00000004      -0.00000006       0.00000012       0.00000078      -0.00000156       0.00000066
S        1.64410880       1.16256027       6.10960035       0.00096452       0.00067994      -0.00000095
S        5.41064902       3.82590722       6.10960026      -0.00096112      -0.00068015      -0.00000106
S        4.46901433       1.16256028       4.47864047      -0.00048301       0.00067788       0.00083518
S        2.58574375       3.82590706       7.74056082       0.00048032      -0.00068346      -0.00083303
S        2.58574433       3.82590771       4.47864066       0.00048012      -0.00068015       0.00083399
S        4.46901407       1.16256056       7.74056100      -0.00048253       0.00068241      -0.00083327
