9
Lattice="4.0684804984001985 -2.4174022877366467e-07 2.348938421917328 1.3561600238207552 3.8357992575979356 2.3489382736498725 -6.1888594835782e-08 -2.2535159707933383e-07 4.6978769510288085" Properties=species:S:1:pos:R:3:forces:R:3 energy=-48.560550689697266 free_energy=-48.560550689697266 stress="0.0003862168232444674 -1.509686420320122e-08 -4.7520224200070516e-08 -1.509686420320122e-08 0.00038606004090979695 -5.5937037224396136e-09 -4.7520224200070516e-08 -5.5937037224396136e-09 0.0003857665869873017" pbc="T T T"
Mg       1.35616018       0.95894960       2.34893845      -0.00000056      -0.00000033      -0.00000029
Mg       4.06848016       2.87684900       7.04681526       0.00000167       0.00000019       0.00000034
B        0.00000031       0.00000008       0.00000009      -0.00000757       0.00000241       0.00000222
O        1.23571075       0.87377850       4.69787694      -0.00628579      -0.00443506      -0.00000040
O        4.18892991       2.96202029       4.69787688       0.00628924       0.00443888       0.00000052
O        3.45062496       0.87377881       3.41909512       0.00314707      -0.00444061      -0.00544375
O        1.97401531       2.96202010       5.97665855      -0.00314426       0.00443596       0.00543743
O        1.97401544       2.96202031       3.41909471      -0.00314507       0.00443733      -0.00543773
O        3.45062490       0.87377850       5.97665880       0.00314543      -0.00443918       0.00544226
