9
Lattice="5.5557254918823356 -5.662219965534033e-08 3.207599636100041 1.8519084725634791 5.237988120027035 3.207599586471039 4.072143873044533e-08 -3.1988434440263e-08 6.415199201668421" Properties=species:S:1:pos:R:3:forces:R:3 energy=-31.01443862915039 free_energy=-31.01443862915039 stress="-1.6054427760536782e-05 -5.0474979751413684e-09 -1.5040019007983574e-08 -5.0474979751413684e-09 -1.6032810890465043e-05 7.282003000597115e-09 -1.5040019007983574e-08 7.282003000597115e-09 -1.6037065506679937e-05" pbc="T T T"
Mg       1.85190874       1.30949673       3.20759956       0.00000111      -0.00000066       0.00000038
Mg       5.55572575       3.92849085       9.62279934       0.00000016      -0.00000061      -0.00000038
B        0.00000010       0.00000005       0.00000003      -0.00000010      -0.00000095       0.00000121
Se       1.76032265       1.24473612       6.41519915      -0.00045133      -0.00031853       0.00000037
Se       5.64731101       3.99325214       6.41519870       0.00045130       0.00031903      -0.00000030
Se       4.67556401       1.24473597       4.73208366       0.00022572      -0.00031999      -0.00039114
Se       2.73206971       3.99325217       8.09831475      -0.00022582       0.00031918       0.00039055
Se       2.73206998       3.99325189       4.73208378      -0.00022621       0.00031952      -0.00039154
Se       4.67556408       1.24473617       8.09831480       0.00022504      -0.00031701       0.00039105
