9
Lattice="4.4179610070895645 4.0290673431903805e-08 2.550711020482222 1.4726537105651294 4.1652936948487715 2.550711014335408 2.5182903245131543e-08 1.0278721659303767e-08 5.101421997346386" Properties=species:S:1:pos:R:3:forces:R:3 energy=-41.94922637939453 free_energy=-41.94922637939453 stress="-0.00012648764823097736 -1.9728322087075867e-08 1.5019545607231066e-09 -1.9728322087075867e-08 -0.00012658763444051147 -2.8800361207004244e-08 1.5019545607231066e-09 -2.8800361207004244e-08 -0.00012652420264203101" pbc="T T T"
Mg       1.47265363       1.04132360       2.55071102       0.00000036       0.00000108      -0.00000075
Mg       4.41796111       3.12397013       7.65213295      -0.00000001       0.00000002      -0.00000076
Ga      -0.00000012      -0.00000007       0.00000005      -0.00000045      -0.00000023       0.00000388
O        1.53787840       1.08744442       5.10142193      -0.00197881      -0.00139937       0.00000010
O        4.35273669       3.07784937       5.10142195       0.00197831       0.00139877       0.00000074
O        3.64902176       1.08744430       3.88255277       0.00099085      -0.00140086      -0.00171384
O        2.24159272       3.07784949       6.32029130      -0.00098766       0.00139681       0.00171158
O        2.24159281       3.07784950       3.88255275      -0.00099024       0.00140038      -0.00171334
O        3.64902193       1.08744425       6.32029138       0.00098777      -0.00139681       0.00171214
