9
Lattice="5.810773709403761 1.2282963343613442e-07 3.354851633645121 1.9369245792676923 5.4784503370193605 3.3548518178287003 -3.1126250153010447e-07 5.482043279733884e-09 6.7097038064126515" Properties=species:S:1:pos:R:3:forces:R:3 energy=-27.02121925354004 free_energy=-27.02121925354004 stress="-4.668459223466925e-05 2.4166366685562934e-09 -1.119359094303718e-08 2.4166366685562934e-09 -4.6662011300213635e-05 -5.3603117500244934e-09 -1.119359094303718e-08 -5.3603117500244934e-09 -4.661534330807626e-05" pbc="T T T"
Mg       1.93692513       1.36961294       3.35485177       0.00000162      -0.00000049      -0.00000180
Mg       5.81077303       4.10883874      10.06455493      -0.00000120       0.00000372       0.00000061
Ga       0.00000014      -0.00000013      -0.00000040       0.00000101       0.00000012       0.00000365
Se       2.05237863       1.45125064       6.70970409      -0.00459024      -0.00324787       0.00000118
Se       5.69531948       4.02719959       6.70970358       0.00459045       0.00324647       0.00000162
Se       4.78458421       1.45125100       5.13226411       0.00229588      -0.00324866      -0.00397788
Se       2.96311325       4.02719997       8.28714418      -0.00229378       0.00324501       0.00397500
Se       2.96311395       4.02719914       5.13226350      -0.00229673       0.00324658      -0.00397715
Se       4.78458403       1.45124996       8.28714327       0.00229304      -0.00324485       0.00397465
