9
Lattice="6.278169936935045 -7.818596042384119e-08 3.6247032044301375 2.0927232443438513 5.919115423803111 3.624703194476702 2.1328026072886096e-08 2.8907881127450553e-09 7.249406371919039" Properties=species:S:1:pos:R:3:forces:R:3 energy=-25.074417114257812 free_energy=-25.074417114257812 stress="-0.00018680647190194577 7.623481401708432e-09 -4.431266464877126e-09 7.623481401708432e-09 -0.00018680955690797418 2.6732167590637346e-09 -4.431266464877126e-09 2.6732167590637346e-09 -0.00018681805522646755" pbc="T T T"
Mg       2.09272321       1.47977873       3.62470309      -0.00000037      -0.00000074      -0.00000002
Mg       6.27816955       4.43933645      10.87410922      -0.00000094      -0.00000079      -0.00000081
Ga       0.00000014      -0.00000012       0.00000016      -0.00000134      -0.00000050       0.00000086
Te       2.23635960       1.58134491       7.24940636      -0.00316475      -0.00223766       0.00000013
Te       6.13453346       4.33777049       7.24940643       0.00316581       0.00223907       0.00000000
Te       5.15999029       1.58134496       5.56144765       0.00158346      -0.00223859      -0.00274161
Te       3.21090330       4.33777030       8.93736534      -0.00158163       0.00223810       0.00274132
Te       3.21090302       4.33777043       5.56144755      -0.00158308       0.00223871      -0.00274123
Te       5.15999019       1.58134524       8.93736530       0.00158283      -0.00223757       0.00274141
