9
Lattice="5.4478247338199255 3.020469687177659e-08 3.145303145851635 1.8159415987941416 5.136258440644837 3.1453031590551723 1.1087018112616178e-09 1.6954947573667855e-08 6.29060628978293" Properties=species:S:1:pos:R:3:forces:R:3 energy=-36.85432434082031 free_energy=-36.85432434082031 stress="-4.795633503817953e-05 5.1745900897515185e-09 4.109113493910854e-09 5.1745900897515185e-09 -4.797174551640637e-05 -4.034911960104637e-09 4.109113493910854e-09 -4.034911960104637e-09 -4.794668348040432e-05" pbc="T T T"
Mg       1.81594168       1.28406489       3.14530300       0.00000069      -0.00000003      -0.00000027
Mg       5.44782441       3.85219439       9.43590946      -0.00000105       0.00000133      -0.00000021
Ir       0.00000008       0.00000006      -0.00000004       0.00000014       0.00000143       0.00000051
S        1.88575158       1.33342767       6.29060628       0.00001329       0.00000787      -0.00000010
S        5.37801491       3.80283042       6.29060641      -0.00001347      -0.00000936       0.00000052
S        4.50494893       1.33342775       4.77841183      -0.00000718       0.00000948       0.00001019
S        2.75881732       3.80283046       7.80280080       0.00000638      -0.00000948      -0.00001061
S        2.75881735       3.80283073       4.77841201       0.00000727      -0.00000918       0.00001150
S        4.50494898       1.33342758       7.80280073      -0.00000659       0.00000781      -0.00001180
