9
Lattice="4.554904971718286 -9.465421903406247e-08 2.629775556824917 1.5183016092831005 4.294404988724362 2.6297754853180564 9.423763747409831e-08 -2.09415925547066e-08 5.259550950425416" Properties=species:S:1:pos:R:3:forces:R:3 energy=-48.91716003417969 free_energy=-48.91716003417969 stress="-2.121144007105613e-06 -1.676195324762375e-07 2.735469983861094e-08 -1.676195324762375e-07 -1.8507274717194377e-06 1.658086290490246e-08 2.735469983861094e-08 1.658086290490246e-08 -1.5433266753461794e-06" pbc="T T T"
Mg       1.51830242       1.07360074       2.62977518       0.00000138      -0.00000059      -0.00000161
Mg       4.55490454       3.22080410       7.88932670       0.00000076       0.00000115       0.00000079
Ir      -0.00000014       0.00000002      -0.00000019       0.00001130      -0.00000583       0.00000574
O        1.52512005       1.07842196       5.25955139       0.00074168       0.00051943      -0.00000059
O        4.54808715       3.21598242       5.25955058      -0.00074767      -0.00052512      -0.00000064
O        3.79234530       1.07842255       3.95056856      -0.00036628       0.00051265       0.00063454
O        2.28086128       3.21598288       6.56853316       0.00036516      -0.00050911      -0.00063160
O        2.28086146       3.21598175       3.95056789       0.00036191      -0.00051654       0.00062488
O        3.79234450       1.07842317       6.56853452      -0.00036839       0.00052369      -0.00063173
