9
Lattice="5.824045916930921 4.957671589558159e-08 3.36251450040388 1.9413487248705004 5.490963147671565 3.3625144325903467 5.492689997780513e-08 -4.421510397227557e-08 6.725028905671601" Properties=species:S:1:pos:R:3:forces:R:3 energy=-34.020729064941406 free_energy=-34.020729064941406 stress="-0.00011114856897620484 -1.98778522531029e-08 -5.779370759739777e-09 -1.98778522531029e-08 -0.00011109398474218324 -1.0142291451131769e-08 -5.779370759739777e-09 -1.0142291451131769e-08 -0.00011106320016551763" pbc="T T T"
Mg       1.94134880       1.37274092       3.36251457       0.00000076      -0.00000047       0.00000031
Mg       5.82404597       4.11822251      10.08754355       0.00000050       0.00000127      -0.00000020
Ir       0.00000001       0.00000023       0.00000022      -0.00000044      -0.00000151      -0.00000126
Se       2.01160203       1.42241723       6.72502905      -0.00536123      -0.00379075      -0.00000009
Se       5.75379277       4.06854558       6.72502891       0.00536178       0.00379084      -0.00000105
Se       4.81824481       1.42241727       5.10461288       0.00268030      -0.00379179      -0.00464331
Se       2.94714993       4.06854545       8.34544430      -0.00268230       0.00379327       0.00464542
Se       2.94714978       4.06854550       5.10461335      -0.00268184       0.00379255      -0.00464484
Se       4.81824470       1.42241793       8.34544448       0.00268264      -0.00379322       0.00464506
