9
Lattice="4.564042353752404 5.965513770383266e-08 2.6350511210544885 1.5213474789973696 4.303020536785503 2.6350511704124386 -2.3265568497134426e-08 4.399967589613036e-08 5.270102282406129" Properties=species:S:1:pos:R:3:forces:R:3 energy=-50.31092071533203 free_energy=-50.31092071533203 stress="0.0003986984374932945 9.827689240182735e-08 1.0185467402834547e-07 9.827689240182735e-08 0.0003986097581218928 2.4050201830050355e-08 1.0185467402834547e-07 2.4050201830050355e-08 0.0003986322844866663" pbc="T T T"
Mg       1.52134764       1.07575473       2.63505124      -0.00000010      -0.00000132       0.00000090
Mg       4.56404230       3.22726570       7.90515331       0.00000076       0.00000057       0.00000035
Mo       0.00000001      -0.00000002       0.00000018      -0.00000015      -0.00000123      -0.00000160
O        1.55469680       1.09933664       5.27010215      -0.00296879      -0.00210077      -0.00000123
O        4.53069291       3.20368418       5.27010225       0.00297046       0.00210035       0.00000013
O        3.78669405       1.09933679       3.98145801       0.00148332      -0.00209892      -0.00257266
O        2.29869586       3.20368399       6.55874640      -0.00148439       0.00209886       0.00257576
O        2.29869574       3.20368395       3.98145835      -0.00148433       0.00210053      -0.00257307
O        3.78669402       1.09933666       6.55874640       0.00148326      -0.00209820       0.00257111
