9
Lattice="5.567416733906153 -5.0246367367923015e-08 3.214349624714484 1.8558055249695176 5.24901097211485 3.214349634459777 -4.207230526524116e-08 -1.7814074108295052e-08 6.428699322300308" Properties=species:S:1:pos:R:3:forces:R:3 energy=-40.2749137878418 free_energy=-40.2749137878418 stress="0.0001107657008105889 -2.7632735211113868e-08 -7.740437624192964e-09 -2.7632735211113868e-08 0.00011081044067395851 1.2962459550180938e-08 -7.740437624192964e-09 1.2962459550180938e-08 0.00011077030649175867" pbc="T T T"
Mg       1.85580578       1.31225317       3.21434978       0.00000107       0.00000234       0.00000072
Mg       5.56741641       3.93675780       9.64304955      -0.00000346      -0.00000268       0.00000144
Mo       0.00000001       0.00000000       0.00000050      -0.00000111       0.00000004      -0.00000768
S        1.89147896       1.33747764       6.42869891      -0.00290686      -0.00205662      -0.00000407
S        5.53174327       3.91153296       6.42869902       0.00291103       0.00205776      -0.00000191
S        4.62167730       1.33747779       4.85241825       0.00145353      -0.00205505      -0.00251861
S        2.80154526       3.91153280       8.00498002      -0.00145788       0.00206124       0.00252472
S        2.80154505       3.91153363       4.85241832      -0.00145238       0.00205329      -0.00251825
S        4.62167686       1.33747784       8.00497995       0.00145587      -0.00206020       0.00252382
