9
Lattice="4.072355712174552 1.383852928826392e-07 2.351175653380714 1.3574519476127682 3.8394536384639313 2.351175803924182 -2.5061245921395304e-08 1.6665638571023668e-07 4.7023513501688265" Properties=species:S:1:pos:R:3:forces:R:3 energy=-43.76166534423828 free_energy=-43.76166534423828 stress="-8.492792403558269e-05 4.918022256106269e-08 9.90374857678944e-08 4.918022256106269e-08 -8.510987390764058e-05 1.1563046342644157e-07 9.90374857678944e-08 1.1563046342644157e-07 -8.493821223964915e-05" pbc="T T T"
Mg       1.35745194       0.95986466       2.35118108       0.00000163       0.00002370       0.00011300
Mg       4.07235591       2.87959153       7.05353255       0.00000156       0.00002357       0.00011270
N        0.00000147       0.00001833       0.00008919       0.00002527       0.00041304       0.00195861
O        1.29206556       0.91362801       4.70234954       0.00237381       0.00167584      -0.00002807
O        4.13773239       2.92581816       4.70234986      -0.00258791      -0.00184071      -0.00002305
O        3.42633549       0.91361028       3.47011353      -0.00090283       0.00127137       0.00153422
O        2.00350197       2.92580092       5.93453313       0.00158513      -0.00224978      -0.00275886
O        2.00347627       2.92583729       3.47012091       0.00099456      -0.00142211       0.00169480
O        3.42630983       0.91364625       5.93454106      -0.00149143       0.00210482      -0.00260437
