9
Lattice="5.425933134188227 1.148178407337882e-07 3.132663895966005 1.8086444754968647 5.115618863594968 3.1326639147018946 1.7887331072813407e-08 3.559496597931553e-08 6.265327760950204" Properties=species:S:1:pos:R:3:forces:R:3 energy=-34.60541534423828 free_energy=-34.60541534423828 stress="-2.5905466827680357e-05 9.201146156101458e-08 -2.8500419801957833e-08 9.201146156101458e-08 -2.5975903554353863e-05 4.054524183061403e-08 -2.8500419801957833e-08 4.054524183061403e-08 -2.6032153982669115e-05" pbc="T T T"
Mg       1.80864460       1.27890496       3.13266384       0.00000150       0.00000089      -0.00000096
Mg       5.42593313       3.83671407       9.39799114      -0.00000026      -0.00000098      -0.00000246
P        0.00000005       0.00000009      -0.00000005      -0.00000416       0.00000185      -0.00000611
S        1.76195467       1.24589009       6.26532799      -0.00035608      -0.00025117       0.00000115
S        5.47262302       3.86972891       6.26532873       0.00035667       0.00025332       0.00000339
S        4.54495597       1.24589011       4.65856052       0.00017422      -0.00024462      -0.00030214
S        2.68962135       3.86972921       7.87209480      -0.00017500       0.00024778       0.00030279
S        2.68962151       3.86972912       4.65856051      -0.00017095       0.00024158      -0.00029874
S        4.54495638       1.24588970       7.87209445       0.00017476      -0.00024825       0.00030273
