9
Lattice="4.566089604382704 -1.5565490466183583e-08 2.636233046053164 1.5220298361501274 4.304950664873254 2.6362330760213815 -4.38861543892747e-08 5.671250748708423e-09 5.2724661681194105" Properties=species:S:1:pos:R:3:forces:R:3 energy=-50.277610778808594 free_energy=-50.277610778808594 stress="0.0005570630310103297 1.0265494410077736e-07 -2.0646027110160503e-08 1.0265494410077736e-07 0.0005570768262259662 -5.716894513341231e-09 -2.0646027110160503e-08 -5.716894513341231e-09 0.0005570272332988679" pbc="T T T"
Mg       1.52202987       1.07623759       2.63623296      -0.00000197      -0.00000132      -0.00000105
Mg       4.56608953       3.22871261       7.90869905       0.00000147      -0.00000249      -0.00000163
Ru      -0.00000013      -0.00000008      -0.00000001       0.00000136      -0.00000433      -0.00000014
O        1.51370259       1.07034974       5.27246607      -0.00281313      -0.00199126      -0.00000099
O        4.57441661       3.23460114       5.27246590       0.00281587       0.00199313      -0.00000013
O        3.80923898       1.07034933       3.94713831       0.00140318      -0.00198677      -0.00242937
O        2.27888118       3.23460139       6.59779417      -0.00140320       0.00198801       0.00243527
O        2.27888086       3.23460135       3.94713825      -0.00140639       0.00198752      -0.00243628
O        3.80923809       1.07034961       6.59779437       0.00140281      -0.00198239       0.00243503
