9
Lattice="4.5734533263745405 1.1281655901269028e-08 2.64048434197734 1.5244844373194335 4.31189293838057 2.640484368723439 4.177346134720041e-08 6.22954840702153e-08 5.280968611600917" Properties=species:S:1:pos:R:3:forces:R:3 energy=-45.660972595214844 free_energy=-45.660972595214844 stress="0.00017254712292924523 -5.350773690793176e-08 7.129153711815661e-09 -5.350773690793176e-08 0.0001725733745843172 -9.990134941517681e-09 7.129153711815661e-09 -9.990134941517681e-09 0.00017252223915420473" pbc="T T T"
Mg       1.52448461       1.07797278       2.64048388       0.00000030      -0.00000159      -0.00000377
Mg       4.57345363       3.23391917       7.92145321       0.00000277      -0.00000308       0.00000101
Rh      -0.00000004       0.00000016      -0.00000003      -0.00000224      -0.00000144      -0.00000460
O        1.54620153       1.09333041       5.28096820      -0.00017008      -0.00011703      -0.00000390
O        4.55173612       3.21856300       5.28096830       0.00017214       0.00012298      -0.00000079
O        3.80035262       1.09332979       3.97953481       0.00008430      -0.00012209      -0.00014797
O        2.29758535       3.21856261       6.58240296      -0.00008620       0.00012018       0.00015227
O        2.29758550       3.21856380       3.97953518      -0.00008567       0.00012563      -0.00014567
O        3.80035197       1.09333043       6.58240262       0.00008470      -0.00012356       0.00015430
