9
Lattice="5.403134518063626 -4.0798427751607313e-08 3.119501191917573 1.8010448549514317 5.094123945973173 3.119501098279412 -2.3449387295825756e-09 -1.1634095778112636e-07 6.239002387896665" Properties=species:S:1:pos:R:3:forces:R:3 energy=-37.365806579589844 free_energy=-37.365806579589844 stress="-0.00021138285228516906 9.060582506492665e-09 6.8336181158201725e-09 9.060582506492665e-09 -0.0002113942609867081 3.041847884688309e-09 6.8336181158201725e-09 3.041847884688309e-09 -0.00021137864678166807" pbc="T T T"
Mg       1.80104434       1.27353088       3.11950050      -0.00000126      -0.00000061      -0.00000217
Mg       5.40313431       3.82059300       9.35850346      -0.00000019       0.00000138       0.00000028
Ru      -0.00000016       0.00000024       0.00000002      -0.00000110       0.00000196      -0.00000100
S        1.88571779       1.33340360       6.23900265      -0.00502330      -0.00355214       0.00000053
S        5.31846176       3.76072009       6.23900238       0.00502402       0.00355220      -0.00000065
S        4.46027594       1.33340348       4.75258078       0.00251251      -0.00355238      -0.00435001
S        2.74390363       3.76071990       7.72542414      -0.00251186       0.00355220       0.00435054
S        2.74390400       3.76072030       4.75258075      -0.00251108       0.00355101      -0.00434959
S        4.46027587       1.33340360       7.72542405       0.00251234      -0.00355333       0.00435174
