9
Lattice="5.825225490302463 -5.991810097791167e-08 3.36319552631164 1.941741786317166 5.492075298500648 3.363195504301341 -4.8270159744112815e-08 -6.108914783626171e-08 6.726391136229653" Properties=species:S:1:pos:R:3:forces:R:3 energy=-34.869102478027344 free_energy=-34.869102478027344 stress="-7.467424438800663e-05 -1.2033989804649536e-08 1.0836920694146102e-08 -1.2033989804649536e-08 -7.474818266928196e-05 -1.8946708646438992e-09 1.0836920694146102e-08 -1.8946708646438992e-09 -7.473638834198937e-05" pbc="T T T"
Mg       1.94174228       1.37301915       3.36319536       0.00000202       0.00000178      -0.00000145
Mg       5.82522531       4.11905641      10.08958739       0.00000033      -0.00000138       0.00000154
Ru      -0.00000021      -0.00000019       0.00000035       0.00000111       0.00000091       0.00000037
Se       2.00388528       1.41696107       6.72639130      -0.00676809      -0.00478416       0.00000091
Se       5.76308183       4.07511414       6.72639086       0.00676644       0.00478426      -0.00000014
Se       4.82328285       1.41696106       5.09861135       0.00338232      -0.00478297      -0.00586005
Se       2.94368458       4.07511411       8.35417049      -0.00338261       0.00478280       0.00585925
Se       2.94368447       4.07511409       5.09861114      -0.00338282       0.00478382      -0.00585953
Se       4.82328252       1.41696087       8.35417045       0.00338135      -0.00478499       0.00585911
