9
Lattice="5.798620160875571 -8.587443141042062e-08 3.347834759638363 1.932873306921758 5.46699154514755 3.3478347580337307 -5.140043699330933e-08 -3.8310862421723127e-08 6.695669608304911" Properties=species:S:1:pos:R:3:forces:R:3 energy=-32.97496795654297 free_energy=-32.97496795654297 stress="-0.00014972352073527873 8.454773769983603e-09 -7.844754179586744e-09 8.454773769983603e-09 -0.0001497353514423594 3.6726690577637555e-09 -7.844754179586744e-09 3.6726690577637555e-09 -0.00014972651842981577" pbc="T T T"
Mg       1.93287346       1.36674760       3.34783441      -0.00000005      -0.00000065      -0.00000208
Mg       5.79862022       4.10024307      10.04350465       0.00000017      -0.00000244       0.00000214
Rh      -0.00000012       0.00000001       0.00000028       0.00000111       0.00000055      -0.00000700
Se       2.00124707       1.41509523       6.69566975      -0.00583266      -0.00412458      -0.00000076
Se       5.73024625       4.05189662       6.69566917       0.00583090       0.00412551      -0.00000142
Se       4.79799688       1.41509555       5.08096563       0.00291620      -0.00412242      -0.00504982
Se       2.93349673       4.05189573       8.31037356      -0.00291920       0.00412694       0.00505453
Se       2.93349656       4.05189609       5.08096574      -0.00291628       0.00412309      -0.00505026
Se       4.79799662       1.41509581       8.31037328       0.00291968      -0.00412604       0.00505476
