9
Lattice="5.428902924377776 1.4448221754687391e-08 3.1343785164544093 1.809634291686443 5.118418802389031 3.1343785685222794 -6.56660119472367e-08 1.7336969557932104e-08 6.268757146645691" Properties=species:S:1:pos:R:3:forces:R:3 energy=-35.697166442871094 free_energy=-35.697166442871094 stress="-0.00012209465785417706 -4.330661607099273e-09 5.166239658294103e-10 -4.330661607099273e-09 -0.00012203659571241587 3.66784291827571e-08 5.166239658294103e-10 3.66784291827571e-08 -0.00012209615670144558" pbc="T T T"
Mg       1.80963399       1.27960517       3.13437856      -0.00000052       0.00000181      -0.00000039
Mg       5.42890278       3.83881417       9.40313571      -0.00000124       0.00000150      -0.00000039
Rh       0.00000003       0.00000012      -0.00000013       0.00000043      -0.00000006       0.00000061
S        1.88593636       1.33355818       6.26875718      -0.00197875      -0.00140136       0.00000041
S        5.35260108       3.78486029       6.26875710       0.00198102       0.00139868       0.00000039
S        4.48593492       1.33355844       4.76764709       0.00099036      -0.00140101      -0.00171554
S        2.75260222       3.78486038       7.76986717      -0.00099030       0.00140011       0.00171649
S        2.75260235       3.78486036       4.76764714      -0.00099027       0.00139904      -0.00171441
S        4.48593480       1.33355826       7.76986708       0.00098899      -0.00139844       0.00171292
