9
Lattice="4.595937609938116 1.0171655433666491e-07 2.6534659850697855 1.5319792364175537 4.3330920548227825 2.65346609383292 -8.791349305105008e-08 7.104286316128847e-08 5.3069321224102115" Properties=species:S:1:pos:R:3:forces:R:3 energy=-45.03353500366211 free_energy=-45.03353500366211 stress="8.597836131229997e-05 5.707338601723677e-08 5.11411191173039e-10 5.707338601723677e-08 8.592380618210882e-05 3.8142566438637004e-08 5.11411191173039e-10 3.8142566438637004e-08 8.596254338044673e-05" pbc="T T T"
Mg       1.53197897       1.08327355       2.65346611       0.00000108       0.00000136       0.00000005
Mg       4.59593776       3.24981907       7.96039816      -0.00000059      -0.00000041       0.00000056
Sb      -0.00000002      -0.00000004      -0.00000013       0.00000027      -0.00000341       0.00000249
O        1.60623243       1.13577810       5.30693230       0.00156534       0.00110716      -0.00000037
O        4.52168436       3.19731398       5.30693253      -0.00156319      -0.00110656      -0.00000018
O        3.79282096       1.13577808       4.04450387      -0.00078517       0.00110853       0.00135553
O        2.33509540       3.19731412       6.56935993       0.00078130      -0.00110763      -0.00135589
O        2.33509575       3.19731422       4.04450394       0.00078332      -0.00110686       0.00135708
O        3.79282139       1.13577791       6.56936001      -0.00078213       0.00110739      -0.00135964
