9
Lattice="6.428068162308991 -3.8999091885646066e-08 3.7112468784200416 2.1426893870775134 6.06044083636997 3.7112468153562563 6.21818018382727e-08 -3.326784845699146e-08 7.422493649138038" Properties=species:S:1:pos:R:3:forces:R:3 energy=-25.681072235107422 free_energy=-25.681072235107422 stress="-0.00012776617950294167 4.877227066657497e-09 1.4731236674947468e-08 4.877227066657497e-09 -0.00012778668315149844 -6.926164530796086e-09 1.4731236674947468e-08 -6.926164530796086e-09 -0.0001277955889236182" pbc="T T T"
Mg       2.14268953       1.51511032       3.71124695       0.00000032       0.00000095      -0.00000008
Mg       6.42806836       4.54533069      11.13374063       0.00000016       0.00000008       0.00000008
Sb      -0.00000005       0.00000015      -0.00000036      -0.00000113      -0.00000297       0.00000298
Te       2.34342650       1.65705263       7.42249376      -0.00742616      -0.00525129      -0.00000022
Te       6.22733113       4.40338819       7.42249357       0.00742711       0.00525208      -0.00000075
Te       5.25635485       1.65705246       5.74071381       0.00371285      -0.00525065      -0.00643197
Te       3.31440249       4.40338808       9.10427371      -0.00371290       0.00525036       0.00643080
Te       3.31440251       4.40338802       5.74071360      -0.00371331       0.00525153      -0.00643244
Te       5.25635514       1.65705252       9.10427372       0.00371305      -0.00525019       0.00643168
