9
Lattice="5.661360788035247 1.3658324953800486e-07 3.268588286710257 1.8871203945585795 5.337581930220234 3.26858828132671 -3.304388915700579e-08 -2.995903945843181e-08 6.537176630654215" Properties=species:S:1:pos:R:3:forces:R:3 energy=-30.791236877441406 free_energy=-30.791236877441406 stress="0.00010583603580016643 -3.0287644392501534e-08 4.267300290905496e-09 -3.0287644392501534e-08 0.00010589547309791669 9.614892881870674e-09 4.267300290905496e-09 9.614892881870674e-09 0.00010589459998300299" pbc="T T T"
Mg       1.88712064       1.33439537       3.26858868       0.00000199      -0.00000042       0.00000270
Mg       5.66136088       4.00318599       9.80576463      -0.00000004      -0.00000185      -0.00000208
Sb       0.00000013       0.00000010      -0.00000004       0.00000083       0.00000201      -0.00000316
S        2.00017473       1.41433728       6.53717663      -0.00086343      -0.00060907      -0.00000017
S        5.54830629       3.92324514       6.53717675       0.00086051       0.00060925       0.00000135
S        4.66127295       1.41433732       5.00079013       0.00042832      -0.00060931      -0.00074857
S        2.88720773       3.92324504       8.07356310      -0.00043046       0.00061086       0.00074792
S        2.88720756       3.92324473       5.00079002      -0.00043088       0.00060800      -0.00074631
S        4.66127361       1.41433721       8.07356286       0.00043339      -0.00060967       0.00074804
