9
Lattice="5.968069548198175 -8.313325489791353e-08 3.445666602953127 1.989356363521457 5.626749969519783 3.445666731412036 -1.0164323236750087e-07 8.545682356251041e-08 6.891333381957411" Properties=species:S:1:pos:R:3:forces:R:3 energy=-28.351940155029297 free_energy=-28.351940155029297 stress="0.00017874565673992038 -7.305966942539044e-09 -3.5016530119946765e-08 -7.305966942539044e-09 0.00017873667820822448 5.2082960166899284e-08 -3.5016530119946765e-08 5.2082960166899284e-08 0.00017870451847556978" pbc="T T T"
Mg       1.98935612       1.40668715       3.44566643      -0.00000177      -0.00000195      -0.00000097
Mg       5.96806945       4.22006227      10.33700008       0.00000129      -0.00000090      -0.00000133
Sb       0.00000004       0.00000007       0.00000020      -0.00000254      -0.00000244       0.00000120
Se       2.13373993       1.50878236       6.89133324      -0.00398487      -0.00281622      -0.00000001
Se       5.82368576       4.11796781       6.89133328       0.00398827       0.00281863      -0.00000038
Se       4.90119941       1.50878219       5.29354031       0.00199432      -0.00282098      -0.00345308
Se       3.05622674       4.11796791       8.48912648      -0.00199311       0.00282043       0.00345326
Se       3.05622648       4.11796794       5.29354012      -0.00199292       0.00281977      -0.00345184
Se       4.90119928       1.50878211       8.48912673       0.00199146      -0.00281636       0.00345333
