9
Lattice="5.490292648193759 7.0475135879316236e-09 3.16982179132846 1.8300975688863186 5.176297476262313 3.169821769082089 1.321106291008086e-08 -1.790450987466863e-08 6.339643559774713" Properties=species:S:1:pos:R:3:forces:R:3 energy=-43.20172882080078 free_energy=-43.20172882080078 stress="-0.00010863289935514331 5.4995648923750196e-08 -9.241846399277165e-09 5.4995648923750196e-08 -0.00010861797636607662 2.045851932308551e-09 -9.241846399277165e-09 2.045851932308551e-09 -0.00010868146637221798" pbc="T T T"
Mg       1.83009766       1.29407450       3.16982166      -0.00000018       0.00000063       0.00000012
Mg       5.49029253       3.88222298       9.50946501      -0.00000043      -0.00000076       0.00000030
Ta       0.00000014       0.00000016      -0.00000010       0.00000141      -0.00000196       0.00000039
S        1.93221122       1.36627964       6.33964366      -0.00302759      -0.00214249      -0.00000026
S        5.38817914       3.81001765       6.33964383       0.00302860       0.00214201       0.00000027
S        4.52418714       1.36627956       4.84316551       0.00151314      -0.00213948      -0.00262088
S        2.79620306       3.81001789       7.83612177      -0.00151418       0.00214183       0.00262102
S        2.79620301       3.81001794       4.84316537      -0.00151300       0.00214121      -0.00262144
S        4.52418711       1.36627961       7.83612175       0.00151202      -0.00214094       0.00262058
