9
Lattice="4.584644990301168 3.594085896360006e-08 2.6469461121671403 1.5282150267122145 4.322444659327709 2.646946118991756 7.453467982041917e-08 6.106243136408133e-08 5.293892095236401" Properties=species:S:1:pos:R:3:forces:R:3 energy=-57.0428466796875 free_energy=-57.0428466796875 stress="0.00032009390997700393 8.921067440326169e-09 -3.019891892108717e-08 8.921067440326169e-09 0.00032006975379772484 -1.9575487897327548e-08 -3.019891892108717e-08 -1.9575487897327548e-08 0.00032009443384595215" pbc="T T T"
Mg       1.52821449       1.08061093       2.64694606      -0.00000203       0.00000037      -0.00000063
Mg       4.58464465       3.24183410       7.94083827      -0.00000299       0.00000155       0.00000144
Ta       0.00000012       0.00000009      -0.00000027       0.00000240       0.00000187       0.00000418
O        1.58473468       1.12057658       5.29389214      -0.00366163      -0.00259024      -0.00000007
O        4.52812566       3.20186816       5.29389207       0.00366104       0.00258684       0.00000011
O        3.79227777       1.12057635       4.01936649       0.00183180      -0.00259292      -0.00316828
O        2.32058254       3.20186811       6.56841811      -0.00182870       0.00258940       0.00316781
O        2.32058262       3.20186826       4.01936643      -0.00183040       0.00259191      -0.00317007
O        3.79227786       1.12057646       6.56841803       0.00182995      -0.00258851       0.00316536
