9
Lattice="5.506729252900131 -3.807587071302258e-08 3.1793114630598303 1.8355764226003028 5.191793799499473 3.1793113922792045 -2.218144408538726e-08 -1.0237284602970769e-07 6.358622964539056" Properties=species:S:1:pos:R:3:forces:R:3 energy=-43.01940155029297 free_energy=-43.01940155029297 stress="-2.6499199520912953e-05 4.912926510058924e-09 -3.238457280119178e-09 4.912926510058924e-09 -2.6461253582965583e-05 1.6556912285636827e-08 -3.238457280119178e-09 1.6556912285636827e-08 -2.652890543686226e-05" pbc="T T T"
Mn       1.83557750       1.29794918       3.17931167       0.00000823       0.00000635       0.00000251
Mn       5.50672916       3.89384467       9.53793415      -0.00000136      -0.00000441      -0.00000100
As       0.00000024      -0.00000013      -0.00000019      -0.00000050      -0.00000067       0.00000014
S        1.90931611       1.35009089       6.35862312       0.00070930       0.00050640       0.00000110
S        5.43298958       3.84170295       6.35862366      -0.00070924      -0.00050557       0.00000401
S        4.55207030       1.35009072       4.83282722      -0.00035974       0.00050586       0.00061172
S        2.79023446       3.84170337       7.88441803       0.00035530      -0.00050360      -0.00061661
S        2.79023465       3.84170241       4.83282714       0.00035605      -0.00050873       0.00061268
S        4.55207075       1.35009045       7.88441837      -0.00035825       0.00050479      -0.00061429
