9
Lattice="4.548254822447536 7.006354515989409e-09 2.6259363538962797 1.516084935841349 4.2881358617087955 2.6259363739537065 -1.7709557059781083e-08 1.2042637317256378e-08 5.251872738466384" Properties=species:S:1:pos:R:3:forces:R:3 energy=-55.73456573486328 free_energy=-55.73456573486328 stress="-3.216172262909822e-05 5.394682034420839e-08 2.7033893346128934e-08 5.394682034420839e-08 -3.223954263376072e-05 6.121253193214216e-08 2.7033893346128934e-08 6.121253193214216e-08 -3.221191946067847e-05" pbc="T T T"
Mn       1.51608527       1.07203382       2.62593602       0.00000219      -0.00000096      -0.00000075
Mn       4.54825505       3.21610232       7.87780843       0.00000083       0.00000155      -0.00000361
As       0.00000007      -0.00000010      -0.00000003       0.00000384      -0.00000376       0.00000808
O        1.47451224       1.04263713       5.25187275       0.00042677       0.00030279       0.00000136
O        4.58982751       3.24549856       5.25187330      -0.00042999      -0.00030565      -0.00000094
O        3.81099863       1.04263714       3.90290135      -0.00021183       0.00030494       0.00037038
O        2.25334087       3.24549843       6.60084407       0.00021064      -0.00030291      -0.00036907
O        2.25334064       3.24549877       3.90290170       0.00021535      -0.00030148       0.00036824
O        3.81099860       1.04263732       6.60084419      -0.00021720       0.00030494      -0.00037611
