9
Lattice="5.622897624202529 4.46463528892603e-08 3.2463813518974134 1.874299314424702 5.301318505896258 3.2463812405884434 1.4081953816012785e-07 -3.675055197067095e-08 6.492762459888217" Properties=species:S:1:pos:R:3:forces:R:3 energy=-39.836002349853516 free_energy=-39.836002349853516 stress="-9.579940524417907e-05 4.845298207101223e-08 -6.30801855194818e-09 4.845298207101223e-08 -9.580574987921864e-05 1.1142960332222174e-08 -6.30801855194818e-09 1.1142960332222174e-08 -9.58579548751004e-05" pbc="T T T"
Mn       1.87429829       1.32532818       3.24638226      -0.00000870      -0.00001135       0.00000969
Mn       5.62289963       3.97598652       9.73914058       0.00001485      -0.00002105      -0.00002850
As       0.00000046       0.00000024      -0.00000055      -0.00000688      -0.00000328       0.00000803
Se       2.11369807       1.49461166       6.49276258      -0.00790155      -0.00557311      -0.00000254
Se       5.38349744       3.80670820       6.49276454       0.00790226       0.00559375       0.00001131
Se       4.56604867       1.49461072       5.07689830       0.00395098      -0.00558475      -0.00683910
Se       2.93114850       3.80670905       7.90862675      -0.00394912       0.00559025       0.00683497
Se       2.93114771       3.80670782       5.07689829      -0.00395735       0.00558391      -0.00683661
Se       4.56604959       1.49461166       7.90862751       0.00395554      -0.00557441       0.00684264
