9
Lattice="4.164056834372544 -3.665426680970875e-08 2.404119362615793 1.3880189090123038 3.9259105397171794 2.4041193647298913 1.0275453668138235e-08 9.855063699466775e-09 4.808238707433984" Properties=species:S:1:pos:R:3:forces:R:3 energy=-56.31749725341797 free_energy=-56.31749725341797 stress="0.0001463277149014175 2.07802330010054e-07 -9.456483240910529e-08 2.07802330010054e-07 0.00014639885921496898 -1.1898166007995314e-07 -9.456483240910529e-08 -1.1898166007995314e-07 0.00014614079555030912" pbc="T T T"
Mn       1.38801912       0.98147800       2.40411913       0.00000260       0.00000258      -0.00000235
Mn       4.16405604       2.94443268       7.21235819      -0.00000773      -0.00000097       0.00000073
As       0.00000003       0.00000011      -0.00000006      -0.00000233      -0.00000188       0.00000695
N        1.47836244       1.04536007       4.80823844      -0.00086331      -0.00061071      -0.00000033
N        4.07371338       2.88055042       4.80823841       0.00086653       0.00061303      -0.00000319
N        3.42487579       1.04536014       3.68441877       0.00043142      -0.00060809      -0.00074321
N        2.12720049       2.88055016       5.93205916      -0.00042346       0.00060040       0.00074553
N        2.12720027       2.88055035       3.68441878      -0.00042909       0.00061071      -0.00074732
N        3.42487555       1.04536018       5.93205893       0.00042555      -0.00060475       0.00074446
