9
Lattice="4.548740818806295 -1.5156884639129245e-07 2.6262171157608027 1.5162468328521517 4.288594062398827 2.626217053146297 -5.7652964012996253e-08 -1.1745364672916915e-07 5.252434331379487" Properties=species:S:1:pos:R:3:forces:R:3 energy=-55.734561920166016 free_energy=-55.734561920166016 stress="0.000359975645551458 -3.313303054142125e-08 4.2720280646335596e-08 -3.313303054142125e-08 0.0003602683136705309 8.62580140648106e-09 4.2720280646335596e-08 8.62580140648106e-09 0.0003603670047596097" pbc="T T T"
Mn       1.51624671       1.07214824       2.62621716      -0.00000125      -0.00000155      -0.00000048
Mn       4.54874084       3.21644527       7.87865136       0.00000118      -0.00000059      -0.00000032
As      -0.00000017      -0.00000057       0.00000000       0.00000317       0.00001527      -0.00000621
O        1.47463120       1.04272133       5.25243434      -0.00215387      -0.00152111      -0.00000256
O        4.59035672       3.24587227       5.25243379       0.00214505       0.00151551      -0.00000026
O        3.81142562       1.04272138       3.90328547       0.00107574      -0.00152194      -0.00186443
O        2.25356240       3.24587269       6.60158321      -0.00107390       0.00152111       0.00186276
O        2.25356217       3.24587236       3.90328576      -0.00107735       0.00152004      -0.00186431
O        3.81142463       1.04272207       6.60158313       0.00108147      -0.00152671       0.00187588
