9
Lattice="5.623415912474031 1.6698292940890417e-08 3.246680667958325 1.874472018337899 5.301807325045233 3.246680612931179 -2.9290668158457568e-08 -8.810584168574709e-08 6.49336138664954" Properties=species:S:1:pos:R:3:forces:R:3 energy=-39.836029052734375 free_energy=-39.836029052734375 stress="-1.3830211173626594e-05 2.260206244386609e-08 2.2241671615574887e-08 2.260206244386609e-08 -1.3776038031210192e-05 6.791260886984674e-10 2.2241671615574887e-08 6.791260886984674e-10 -1.3806513379677199e-05" pbc="T T T"
Mn       1.87447394       1.32545308       3.24667741       0.00001872       0.00000929      -0.00002774
Mn       5.62341190       3.97636030       9.74004095      -0.00003266       0.00004149      -0.00000941
As      -0.00000000      -0.00000016      -0.00000028       0.00000172      -0.00000120       0.00000645
Se       2.11325049       1.49429024       6.49336245      -0.00065753      -0.00048958       0.00001085
Se       5.38463930       3.80751457       6.49336174       0.00066748       0.00047114       0.00000545
Se       4.56679101       1.49429109       5.07680899       0.00033170      -0.00048372      -0.00057364
Se       2.93109737       3.80751355       7.90991654      -0.00032526       0.00046092       0.00058949
Se       2.93109779       3.80751467       5.07680737      -0.00032613       0.00047182      -0.00058392
Se       4.56678979       1.49429157       7.90991549       0.00032160      -0.00048020       0.00058222
