9
Lattice="5.92043034518258 1.7014446416881184e-08 3.4181621801157127 1.9734767590983795 5.581835351992093 3.418162247095101 -4.258390924351417e-08 5.1921259328257016e-08 6.83632443398892" Properties=species:S:1:pos:R:3:forces:R:3 energy=-38.56310272216797 free_energy=-38.56310272216797 stress="1.5082579011505004e-05 1.2233651425219705e-08 2.1083015333545063e-09 1.2233651425219705e-08 1.5053742572490592e-05 -7.091951026438892e-09 2.1083015333545063e-09 -7.091951026438892e-09 1.500914731877856e-05" pbc="T T T"
Mn       1.97347835       1.39545885       3.41816329       0.00001460       0.00000140       0.00000816
Mn       5.92043026       4.18637443      10.25448789      -0.00000295      -0.00001734       0.00001045
Bi      -0.00000017       0.00000008      -0.00000016       0.00000067       0.00000170       0.00000207
Se       2.29516437       1.62292740       6.83632383       0.00085033       0.00060843      -0.00000472
Se       5.59874190       3.95890934       6.83632365      -0.00085685      -0.00059971      -0.00000485
Se       4.77284752       1.62292794       5.40583223      -0.00043194       0.00061291       0.00073127
Se       3.12105897       3.95890858       8.26681569       0.00042718      -0.00060671      -0.00074179
Se       3.12105930       3.95890798       5.40583293       0.00042909      -0.00060893       0.00073653
Se       4.77284776       1.62292707       8.26681603      -0.00043020       0.00060820      -0.00073697
