9
Lattice="6.545627968273525 -2.2771980028202892e-08 3.779120061310112 2.181875962346667 6.171277206702527 3.77912007102383 -1.4590644229647745e-08 1.5796806527310746e-09 7.558240147891971" Properties=species:S:1:pos:R:3:forces:R:3 energy=-35.61423110961914 free_energy=-35.61423110961914 stress="1.480638820794411e-05 -1.969552299030397e-09 9.907820341936713e-09 -1.969552299030397e-09 1.4824629033682868e-05 5.936254265925811e-10 9.907820341936713e-09 5.936254265925811e-10 1.4803666999796405e-05" pbc="T T T"
Mn       2.18187530       1.54281932       3.77912056      -0.00000355      -0.00000040       0.00000297
Mn       6.54562824       4.62845794      11.33735906       0.00000077       0.00000069      -0.00000390
Bi      -0.00000003      -0.00000009       0.00000021       0.00000022       0.00000014       0.00000039
Te       2.43514785       1.72190969       7.55824006      -0.00032698      -0.00023124      -0.00000148
Te       6.29235618       4.44936729       7.55824065       0.00032751       0.00023097       0.00000178
Te       5.32805378       1.72190930       5.88802014       0.00016361      -0.00023320      -0.00028278
Te       3.39945017       4.44936787       9.22846004      -0.00016224       0.00023270       0.00028333
Te       3.39944971       4.44936761       5.88802025      -0.00016528       0.00023153      -0.00028358
Te       5.32805448       1.72190976       9.22846009       0.00016594      -0.00023125       0.00028332
