9
Lattice="5.521479712417346 -3.8247440072501535e-07 3.187828233193715 1.8404930878279253 5.205700686604173 3.1878278678075893 2.0860469654350305e-07 -2.9999898314738056e-07 6.3756561050734915" Properties=species:S:1:pos:R:3:forces:R:3 energy=-41.67687225341797 free_energy=-41.67687225341797 stress="-2.1534329789574258e-05 -2.376736318865369e-08 1.7077185887615087e-08 -2.376736318865369e-08 -2.160853910027072e-05 6.792051365778207e-09 1.7077185887615087e-08 6.792051365778207e-09 -2.16195585380774e-05" pbc="T T T"
Mn       1.84049114       1.30142736       3.18783069      -0.00002115       0.00001634       0.00002051
Mn       5.52148217       3.90427348       9.56348356       0.00002078      -0.00001035      -0.00000424
B       -0.00000034      -0.00000096       0.00000070      -0.00000041      -0.00000140       0.00000227
Se       1.74373617       1.23300872       6.37565526       0.00009257       0.00007662      -0.00000853
Se       5.61823730       3.97269106       6.37565678      -0.00009029      -0.00007771       0.00000409
Se       4.64961126       1.23300774       4.69794876      -0.00004779       0.00006942       0.00008233
Se       2.71236036       3.97269281       8.05336244       0.00004216      -0.00006829      -0.00008801
Se       2.71236068       3.97269235       4.69794857       0.00003948      -0.00007442       0.00008179
Se       4.64961332       1.23300746       8.05336212      -0.00003515       0.00006984      -0.00009020
