9
Lattice="5.325275396886487 2.2599833220177966e-07 3.074549271732578 1.7750919055827796 5.020718536023403 3.074549456113926 -6.729328962227889e-08 1.7823659608713206e-07 6.149098660020565" Properties=species:S:1:pos:R:3:forces:R:3 energy=-45.80685043334961 free_energy=-45.80685043334961 stress="3.865918188239448e-05 -1.4102718104425094e-08 1.5991826529671016e-08 -1.4102718104425094e-08 3.8649290218017995e-05 1.2611887534319521e-08 1.5991826529671016e-08 1.2611887534319521e-08 3.86288738809526e-05" pbc="T T T"
Mn       1.77509201       1.25518044       3.07454991      -0.00000001       0.00000159       0.00000319
Mn       5.32527573       3.76553880       9.22365102       0.00000192      -0.00000046       0.00000942
B       -0.00000005      -0.00000005      -0.00000057      -0.00000109      -0.00000073      -0.00000023
S        1.63815182       1.15834882       6.14909880      -0.00001216      -0.00000790       0.00000169
S        5.46221576       3.86237034       6.14909752       0.00001204       0.00000677      -0.00000183
S        4.50619899       1.15834908       4.49323003       0.00000581      -0.00000933      -0.00001401
S        2.59416689       3.86237043       7.80496621      -0.00000769       0.00000802       0.00000858
S        2.59416862       3.86237005       4.49323026      -0.00000480       0.00001106      -0.00001478
S        4.50619917       1.15834785       7.80496654       0.00000560      -0.00000924       0.00000805
