9
Lattice="6.092386028099767 4.794919323425775e-08 3.5174406598152235 2.0307953231938867 5.743956862702089 3.5174407719013896 -1.5542873601090603e-07 2.737234089765272e-08 7.034881588840984" Properties=species:S:1:pos:R:3:forces:R:3 energy=-37.996826171875 free_energy=-37.996826171875 stress="-7.891160203143954e-05 2.5305745054993167e-08 3.326034914152842e-08 2.5305745054993167e-08 -7.888061372796074e-05 5.268852909523503e-09 3.326034914152842e-08 5.268852909523503e-09 -7.88370962254703e-05" pbc="T T T"
Mn       2.03079893       1.43598754       3.51744165       0.00002813      -0.00001199       0.00000823
Mn       6.09238349       4.30796635      10.55232028      -0.00001955      -0.00000867      -0.00001389
B       -0.00000004      -0.00000019      -0.00000040      -0.00000027       0.00000017       0.00000117
Te       1.91726180       1.35570872       7.03488072       0.00112230       0.00079061      -0.00000502
Te       6.20591905       4.38824928       7.03488245      -0.00112839      -0.00078451       0.00000648
Te       5.13375337       1.35570895       5.17783653      -0.00057234       0.00079583       0.00096139
Te       2.98942794       4.38824869       8.89192573       0.00057331      -0.00078987      -0.00096682
Te       2.98942657       4.38824821       5.17783795       0.00056469      -0.00079266       0.00096821
Te       5.13375373       1.35571019       8.89192723      -0.00056790       0.00080116      -0.00095981
