9
Lattice="4.315378379103 -1.4890974102221184e-08 2.4914849446869396 1.4384594258868661 4.068578004448086 2.4914849789378817 -5.960485928596321e-08 -1.983398906940801e-10 4.982969992612543" Properties=species:S:1:pos:R:3:forces:R:3 energy=-56.71738052368164 free_energy=-56.71738052368164 stress="0.0007731292280368507 4.3715342457062434e-08 -1.5019878674138454e-08 4.3715342457062434e-08 0.000773326144553721 4.923007423940362e-08 -1.5019878674138454e-08 4.923007423940362e-08 0.0007731021614745259" pbc="T T T"
Mn       1.43845962       1.01714415       2.49148526      -0.00000004       0.00000020      -0.00000059
Mn       4.31537866       3.05143344       7.47445502      -0.00000066      -0.00000079       0.00000079
B       -0.00000009      -0.00000028       0.00000033       0.00000138      -0.00000095       0.00000068
O        1.29593279       0.91636341       4.98297009      -0.00768864      -0.00543612      -0.00000136
O        4.45790437       3.15221504       4.98296969       0.00768805       0.00543559      -0.00000014
O        3.66741185       0.91636310       3.61379549       0.00384188      -0.00543511      -0.00665438
O        2.08642606       3.15221517       6.35214400      -0.00384432       0.00543892       0.00665867
O        2.08642594       3.15221468       3.61379573      -0.00384367       0.00543499      -0.00666058
O        3.66741150       0.91636314       6.35214412       0.00384557      -0.00543779       0.00665784
