9
Lattice="6.545613164671379 -8.414506325258943e-08 3.7791116101871776 2.1818710088814357 6.171263272821459 3.7791115524688204 4.831806915203699e-09 -6.727367372271743e-08 7.558223212005454" Properties=species:S:1:pos:R:3:forces:R:3 energy=-35.614227294921875 free_energy=-35.614227294921875 stress="1.2821804375562351e-05 -1.6373814304415646e-08 -4.5359422884416745e-09 -1.6373814304415646e-08 1.2846760000684299e-05 1.6767481847423937e-09 -4.5359422884416745e-09 1.6767481847423937e-09 1.2846175195591059e-05" pbc="T T T"
Mn       2.18187107       1.54281545       3.77911179      -0.00000031      -0.00000136       0.00000111
Mn       6.54561300       4.62844721      11.33733453      -0.00000074      -0.00000123      -0.00000087
Bi      -0.00000000      -0.00000016       0.00000015       0.00000067       0.00000155      -0.00000003
Te       2.43515167       1.72191218       7.55822301      -0.00043291      -0.00030580      -0.00000039
Te       6.29233244       4.44935097       7.55822356       0.00043219       0.00030582       0.00000105
Te       5.32803743       1.72191226       5.88801506       0.00021736      -0.00030744      -0.00037666
Te       3.39944708       4.44935110       9.22843115      -0.00021674       0.00030828       0.00037484
Te       3.39944698       4.44935098       5.88801490      -0.00021611       0.00030607      -0.00037600
Te       5.32803706       1.72191252       9.22843137       0.00021667      -0.00030582       0.00037692
