9
Lattice="5.920409543071001 -8.002172081797e-08 3.4181499623769893 1.9734697673364212 5.58181543042566 3.4181499708790684 -9.412370915729171e-08 -5.614266068703526e-08 6.83630008778104" Properties=species:S:1:pos:R:3:forces:R:3 energy=-38.56310272216797 free_energy=-38.56310272216797 stress="9.415729437023401e-06 -1.922189518666073e-08 -7.224006282058326e-09 -1.922189518666073e-08 9.432733349967748e-06 -7.819304648215564e-10 -7.224006282058326e-09 -7.819304648215564e-10 9.437211701879278e-06" pbc="T T T"
Mn       1.97347026       1.39545372       3.41814880       0.00000371      -0.00000216      -0.00001366
Mn       5.92040959       4.18636394      10.25445234       0.00000316       0.00002217       0.00002032
Bi       0.00000024       0.00000005       0.00000022      -0.00000335      -0.00000134      -0.00000263
Se       2.29518335       1.62293880       6.83630088       0.00053045       0.00036544       0.00000694
Se       5.59869669       3.95887625       6.83629871      -0.00052419      -0.00036930      -0.00000985
Se       4.77281838       1.62293877       5.40583690      -0.00026008       0.00036804       0.00045814
Se       3.12106074       3.95887554       8.26676280       0.00025659      -0.00037169      -0.00045541
Se       3.12106118       3.95887633       5.40583677       0.00026591      -0.00036876       0.00045450
Se       4.77281641       1.62293779       8.26676268      -0.00027223       0.00035769      -0.00045837
