9
Lattice="5.647861537783236 -9.029543213623782e-08 3.260794386972098 1.8826204086652019 5.324855028056623 3.260794419530998 -6.01485460108594e-08 -2.6551352834148953e-09 6.521588878124567" Properties=species:S:1:pos:R:3:forces:R:3 energy=-41.56310272216797 free_energy=-41.56310272216797 stress="-4.855988663621247e-06 2.1879063893948114e-08 2.9681475055554074e-08 2.1879063893948114e-08 -4.851002813666128e-06 -7.328220874569524e-08 2.9681475055554074e-08 -7.328220874569524e-08 -4.852095116802957e-06" pbc="T T T"
Mn       1.88262021       1.33121304       3.26079451      -0.00000103      -0.00000392       0.00000089
Mn       5.64786314       3.99364180       9.78238256       0.00000872       0.00000470      -0.00000152
Bi      -0.00000015      -0.00000000       0.00000029       0.00000397       0.00000908       0.00000156
S        2.02761877       1.43374275       6.52158886      -0.00458039      -0.00323869      -0.00000003
S        5.50286324       3.89111232       6.52158894       0.00457089       0.00323320       0.00000071
S        4.63405230       1.43374217       5.01676409       0.00228929      -0.00323780      -0.00396042
S        2.89642901       3.89111276       8.02641350      -0.00228714       0.00323464       0.00395547
S        2.89642896       3.89111183       5.01676410      -0.00229215       0.00323622      -0.00396131
S        4.63405201       1.43374307       8.02641387       0.00228760      -0.00323749       0.00396493
