9
Lattice="5.244364571355382 7.594076678236319e-08 3.027835320351735 1.7481215663792904 4.944434521758074 3.0278353705873227 -2.6394928887136473e-08 4.28616248741884e-08 6.055670686420878" Properties=species:S:1:pos:R:3:forces:R:3 energy=-47.68125534057617 free_energy=-47.68125534057617 stress="-0.0001463642402086407 -1.5289586485778273e-08 -1.1740594274556315e-08 -1.5289586485778273e-08 -0.0001463852822780609 1.7520404682613844e-08 -1.1740594274556315e-08 1.7520404682613844e-08 -0.00014634871331509203" pbc="T T T"
Mn       1.74812177       1.23610890       3.02783560       0.00000099       0.00000110      -0.00000038
Mn       5.24436490       3.70832619       9.08350492       0.00000092       0.00000084      -0.00000393
Co      -0.00000018      -0.00000014      -0.00000015      -0.00000002       0.00000309       0.00000585
S        1.76446132       1.24766293       6.05567080       0.00194915       0.00137833       0.00000044
S        5.22802474       3.69677184       6.05567142      -0.00195231      -0.00138120       0.00000172
S        4.36213351       1.24766255       4.55590415      -0.00097435       0.00137678       0.00168766
S        2.63035223       3.69677196       7.55543747       0.00097651      -0.00138025      -0.00169073
S        2.63035216       3.69677160       4.55590388       0.00097551      -0.00137924       0.00168905
S        4.36213390       1.24766272       7.55543742      -0.00097639       0.00138061      -0.00168948
