9
Lattice="4.5587393513648236 6.26414622325188e-08 2.631989333714061 1.5195798286147701 4.298020781956594 2.631989358365408 -8.75595321383532e-08 -3.1722336362732674e-08 5.263978819085674" Properties=species:S:1:pos:R:3:forces:R:3 energy=-58.17013931274414 free_energy=-58.17013931274414 stress="-0.00016740243881940842 -4.9861728967925956e-08 -5.440184835947548e-08 -4.9861728967925956e-08 -0.00016747423796914518 -4.37694112065401e-08 -5.440184835947548e-08 -4.37694112065401e-08 -0.0001672863872954622" pbc="T T T"
Mn       1.51957901       1.07450575       2.63198931      -0.00000341       0.00000256       0.00000085
Mn       4.55873903       3.22351469       7.89596858      -0.00000178      -0.00000548       0.00000324
Cr       0.00000010      -0.00000012       0.00000005       0.00000323       0.00000176      -0.00000115
O        1.50299191       1.06277613       5.26397874      -0.00163394      -0.00115550       0.00000021
O        4.57532734       3.23524491       5.26397859       0.00163165       0.00115213      -0.00000117
O        3.80724351       1.06277630       3.93361825       0.00081851      -0.00115287      -0.00141391
O        2.27107594       3.23524508       6.59433895      -0.00081588       0.00115600       0.00141594
O        2.27107600       3.23524478       3.93361840      -0.00081538       0.00115496      -0.00141576
O        3.80724358       1.06277588       6.59433895       0.00081767      -0.00115338       0.00141206
