9
Lattice="5.616617484644842 4.025778138030985e-08 3.242755710677623 1.872205831508678 5.295397941426112 3.242755770713274 -8.883904178820489e-08 1.0709758925828854e-08 6.485511575228997" Properties=species:S:1:pos:R:3:forces:R:3 energy=-45.773841857910156 free_energy=-45.773841857910156 stress="-0.00033574525150470436 -1.3458150149858739e-08 1.998054166563179e-08 -1.3458150149858739e-08 -0.0003357176319696009 -1.2363881474186655e-08 1.998054166563179e-08 -1.2363881474186655e-08 -0.00033575136330910027" pbc="T T T"
Mn       1.87220441       1.32385029       3.24275422      -0.00001268       0.00000368      -0.00001276
Mn       5.61661592       3.97155032       9.72826858      -0.00001299       0.00001600       0.00001112
Cr       0.00000004       0.00000009       0.00000029      -0.00000184       0.00000167      -0.00000575
Se       1.95942877       1.38552390       6.48551190      -0.00037429      -0.00027657       0.00000247
Se       5.52939571       3.90987220       6.48551062       0.00038389       0.00026417      -0.00000532
Se       4.63690452       1.38552478       4.93967091       0.00019787      -0.00026920      -0.00032444
Se       2.85192039       3.90987242       8.03135279      -0.00018723       0.00026708       0.00033350
Se       2.85192039       3.90987344       4.93967039      -0.00018221       0.00026972      -0.00032821
Se       4.63690275       1.38552455       8.03135247       0.00018943      -0.00027656       0.00032945
