9
Lattice="4.121905626145403 7.383571083135557e-08 2.379783552343305 1.3739686129143336 3.8861699502250793 2.3797835501732223 -8.278769364653422e-08 -6.1197534405095e-08 4.759567248079102" Properties=species:S:1:pos:R:3:forces:R:3 energy=-57.12070846557617 free_energy=-57.12070846557617 stress="-2.035094985330943e-05 -1.3376077845350665e-07 1.1178265424405254e-08 -1.3376077845350665e-07 -2.072893585136626e-05 9.973681880381946e-10 1.1178265424405254e-08 9.973681880381946e-10 -2.0732601115014404e-05" pbc="T T T"
Mn       1.37396840       0.97154247       2.37978361       0.00000049      -0.00000035       0.00000018
Mn       4.12190541       2.91462737       7.13935074       0.00000195       0.00000172      -0.00000014
C       -0.00000008      -0.00000002       0.00000001      -0.00000239       0.00000452      -0.00000066
O        1.20114299       0.84933618       4.75956713       0.00171220       0.00121224      -0.00000005
O        4.29473135       3.03683407       4.75956713      -0.00171244      -0.00121355      -0.00000074
O        3.52133445       0.84933651       3.42000371      -0.00085443       0.00121337       0.00148869
O        1.97453982       3.03683364       6.09913055       0.00085682      -0.00121647      -0.00148904
O        1.97453984       3.03683380       3.42000375       0.00085473      -0.00121653       0.00149179
O        3.52133460       0.84933635       6.09913050      -0.00085688       0.00121421      -0.00148833
