9
Lattice="6.164151626240562 -7.301523280652173e-08 3.5588746116206758 2.0547171580800123 5.811617890329514 3.558874580144905 4.722565721861749e-08 -5.156270257890676e-09 7.117749141444122" Properties=species:S:1:pos:R:3:forces:R:3 energy=-42.815982818603516 free_energy=-42.815982818603516 stress="-2.197536377934739e-05 -4.033557843285962e-08 1.717406306056546e-08 -4.033557843285962e-08 -2.193680666096043e-05 -2.8955492226145907e-08 1.717406306056546e-08 -2.8955492226145907e-08 -2.1909047063672915e-05" pbc="T T T"
Mn       2.05471750       1.45290568       3.55887484       0.00000167       0.00000884       0.00000304
Mn       6.16415129       4.35871335      10.67662405      -0.00000361      -0.00000012       0.00000283
Cr       0.00000001      -0.00000004       0.00000010       0.00000115       0.00000285      -0.00000216
Te       2.13126535       1.50703195       7.11774892       0.00046527       0.00032877      -0.00000144
Te       6.08760385       4.30458543       7.11774884      -0.00046673      -0.00033281      -0.00000234
Te       5.09851894       1.50703209       5.40460440      -0.00023257       0.00032889       0.00040068
Te       3.12034977       4.30458538       8.83089409       0.00023245      -0.00033085      -0.00040112
Te       3.12034980       4.30458516       5.40460418       0.00023221      -0.00033131       0.00039867
Te       5.09851884       1.50703225       8.83089391      -0.00022988       0.00032574      -0.00039821
