9
Lattice="5.249893441767825 1.3199592392116135e-07 3.031027288134325 1.749964566986053 4.949647231133453 3.0310273540389994 4.681601890570889e-08 1.1382037965433044e-07 6.062054495180835" Properties=species:S:1:pos:R:3:forces:R:3 energy=-50.338951110839844 free_energy=-50.338951110839844 stress="-2.291138662258163e-05 2.0340443995792157e-08 -1.0809316997040241e-08 2.0340443995792157e-08 -2.2893407731316984e-05 2.5333187991805062e-08 -1.0809316997040241e-08 2.5333187991805062e-08 -2.2883559722686186e-05" pbc="T T T"
Mn       1.74996342       1.23741259       3.03102753      -0.00000148       0.00000110       0.00000139
Mn       5.24989469       3.71223539       9.09308293       0.00000211      -0.00000066       0.00000201
Cr      -0.00000000      -0.00000024       0.00000072       0.00000063       0.00000246      -0.00000459
S        1.82184017       1.28823609       6.06205458      -0.00009063      -0.00006320       0.00000056
S        5.17801806       3.66141175       6.06205431       0.00008488       0.00006267       0.00000048
S        4.33897363       1.28823593       4.60878707       0.00004332      -0.00006193      -0.00007764
S        2.66088406       3.66141172       7.51532163      -0.00004297       0.00006375       0.00007552
S        2.66088453       3.66141132       4.60878678      -0.00004157       0.00005955      -0.00007463
S        4.33897377       1.28823519       7.51532109       0.00004576      -0.00006399       0.00007713
