9
Lattice="6.0671871827657755 -7.526007577407164e-08 3.502892071054249 2.0223956773160774 5.720198663384848 3.502892035229568 6.883593170090142e-08 4.7982774496635775e-09 7.005784022881211" Properties=species:S:1:pos:R:3:forces:R:3 energy=-40.60336685180664 free_energy=-40.60336685180664 stress="-5.626842539641075e-05 9.384191201888825e-09 -1.0492332336298205e-08 9.384191201888825e-09 -5.6268167099915445e-05 -7.3308799031224225e-09 -1.0492332336298205e-08 -7.3308799031224225e-09 -5.6246124586323276e-05" pbc="T T T"
Mn       2.02239599       1.43004879       3.50289241       0.00000344      -0.00000688       0.00000400
Mn       6.06718768       4.29015028      10.50867485       0.00000314       0.00000986      -0.00001087
Co      -0.00000033       0.00000017      -0.00000035       0.00000184       0.00000129      -0.00000017
Te       2.00982058       1.42115703       7.00578418       0.00503022       0.00355273      -0.00000174
Te       6.07976243       4.29904169       7.00578504      -0.00503247      -0.00355431       0.00000568
Te       5.06227639       1.42115628       5.24344719      -0.00251937       0.00354994       0.00435684
Te       3.02730590       4.29904187       8.76812086       0.00251623      -0.00355274      -0.00435583
Te       3.02730542       4.29904152       5.24344748       0.00251189      -0.00355458       0.00435830
Te       5.06227755       1.42115674       8.76812084      -0.00251484       0.00355470      -0.00435614
