9
Lattice="6.087069941471012 -1.0546975700504806e-07 3.5143714774439 2.0290233451181 5.738944272593439 3.514371251008755 2.0733000108000594e-07 -1.3072070964604735e-07 7.028742595781546" Properties=species:S:1:pos:R:3:forces:R:3 energy=-41.91100311279297 free_energy=-41.91100311279297 stress="-0.0002724355726968497 -2.3954889627475495e-08 1.582171904601637e-08 -2.3954889627475495e-08 -0.00027242652140557766 -9.628545072359884e-09 1.582171904601637e-08 -9.628545072359884e-09 -0.0002724146470427513" pbc="T T T"
Mn       2.02902319       1.43473472       3.51437122      -0.00000135      -0.00000868      -0.00000086
Mn       6.08707113       4.30420836      10.54311397       0.00000719       0.00000350      -0.00000250
Fe       0.00000028       0.00000019       0.00000062      -0.00000547      -0.00000076      -0.00001338
Te       1.97812523       1.39874560       7.02874266      -0.00124990      -0.00088323       0.00000081
Te       6.13796788       4.34019876       7.02874277       0.00125095       0.00088850       0.00000090
Te       5.09800743       1.39874514       5.22747810       0.00062427      -0.00088514      -0.00108045
Te       3.01808600       4.34019874       8.83000680      -0.00062903       0.00089055       0.00108475
Te       3.01808548       4.34019890       5.22747835      -0.00062649       0.00088670      -0.00107849
Te       5.09800738       1.39874572       8.83000679       0.00062980      -0.00089141       0.00108929
