9
Lattice="4.505141342005929 9.34713142559736e-08 2.6010444572361653 1.5017138130374184 4.2474881734309555 2.601044553809805 -2.2636369476211393e-08 1.0227177417475894e-07 5.202088953679632" Properties=species:S:1:pos:R:3:forces:R:3 energy=-54.53643798828125 free_energy=-54.53643798828125 stress="-1.4011285202286672e-05 2.6817431830750138e-08 -8.807821672007776e-08 2.6817431830750138e-08 -1.4024079064256512e-05 -1.7249355721560278e-08 -8.807821672007776e-08 -1.7249355721560278e-08 -1.3852183656126726e-05" pbc="T T T"
Mn       1.50171388       1.06187260       2.60104398       0.00000008       0.00000078      -0.00000244
Mn       4.50514101       3.18561605       7.80313386      -0.00000164      -0.00000055       0.00000105
Fe       0.00000008       0.00000012       0.00000020       0.00000079      -0.00000041      -0.00000090
O        1.46767752       1.03780500       5.20208903       0.00037298       0.00026333       0.00000136
O        4.53917756       3.20968334       5.20208868      -0.00037199      -0.00026311      -0.00000244
O        3.77130266       1.03780489       3.87209057      -0.00018452       0.00026433       0.00032240
O        2.23555267       3.20968329       6.53208751       0.00018547      -0.00026441      -0.00031975
O        2.23555254       3.20968337       3.87209060       0.00018895      -0.00026451       0.00032333
O        3.77130244       1.03780491       6.53208739      -0.00018950       0.00026473      -0.00032267
