9
Lattice="5.67071780929749 1.0201463597150647e-07 3.273990312786739 1.8902393475973602 5.346403985432976 3.2739903445677596 7.193690134765032e-08 8.9790730101011e-08 6.547980500975085" Properties=species:S:1:pos:R:3:forces:R:3 energy=-44.727169036865234 free_energy=-44.727169036865234 stress="-2.076812415907625e-05 2.8021363007724176e-08 -2.0596031546915583e-09 2.8021363007724176e-08 -2.0769086404470727e-05 -1.6208163700071054e-08 -2.0596031546915583e-09 -1.6208163700071054e-08 -2.0768689864780754e-05" pbc="T T T"
Mn       1.89023855       1.33660163       3.27399096      -0.00000787       0.00000782       0.00000530
Mn       5.67071852       4.00980249       9.82197235       0.00000743      -0.00000806       0.00000928
Fe       0.00000002       0.00000006      -0.00000025       0.00000150      -0.00000308       0.00000215
Se       1.86558968       1.31917138       6.54798070       0.00027463       0.00019780       0.00000050
Se       5.69536795       4.02723239       6.54798029      -0.00027266      -0.00019911      -0.00000420
Se       4.73792337       1.31917190       4.88963751      -0.00013766       0.00020173       0.00023830
Se       2.82303370       4.02723355       8.20632265       0.00013623      -0.00019568      -0.00024471
Se       2.82303366       4.02723268       4.88963795       0.00013490      -0.00019863       0.00023925
Se       4.73792346       1.31917070       8.20632261      -0.00013652       0.00019720      -0.00024614
