9
Lattice="5.302751302005397 -2.0651090080721125e-08 3.0615448850113913 1.7675836971880468 4.999482030032606 3.061544972786627 -2.9973148192731144e-08 8.630803231901313e-08 6.123089821937788" Properties=species:S:1:pos:R:3:forces:R:3 energy=-48.834407806396484 free_energy=-48.834407806396484 stress="0.00019417196745052934 -8.572517629090726e-08 -2.2233127339177372e-08 -8.572517629090726e-08 0.0001941682567121461 2.227823969747078e-08 -2.2233127339177372e-08 2.227823969747078e-08 0.00019424808851908892" pbc="T T T"
Mn       1.76758302       1.24987000       3.06154483      -0.00000427      -0.00000100      -0.00000037
Mn       5.30275072       3.74961182       9.18463355      -0.00000282       0.00000090      -0.00000696
Fe      -0.00000009       0.00000010       0.00000080       0.00000357       0.00000075      -0.00001716
S        1.76734536       1.24970184       6.12308984       0.00010204       0.00007030      -0.00000067
S        5.30299001       3.74978038       6.12309014      -0.00010413      -0.00007311       0.00000262
S        4.41907883       1.24970190       4.59211140      -0.00004977       0.00007075       0.00009063
S        2.65125711       3.74977981       7.65406859       0.00004810      -0.00006437      -0.00007880
S        2.65125613       3.74978014       4.59211134       0.00005180      -0.00007242       0.00009167
S        4.41907880       1.24970251       7.65406839      -0.00004467       0.00006837      -0.00008139
