9
Lattice="5.762975653804657 1.4561759659893279e-08 3.327255401456228 1.9209918858020274 5.433385552476516 3.3272554231562084 -5.058239684739222e-08 -9.190224738932702e-09 6.654510890523659" Properties=species:S:1:pos:R:3:forces:R:3 energy=-39.822105407714844 free_energy=-39.822105407714844 stress="-0.0002549947239458561 -3.0609417223104174e-08 3.2304237063129904e-09 -3.0609417223104174e-08 -0.00025497187743894756 1.0264156635741983e-08 3.2304237063129904e-09 1.0264156635741983e-08 -0.00025498209288343787" pbc="T T T"
Mn       1.92099144       1.35834883       3.32725592      -0.00000381       0.00002051       0.00000700
Mn       5.76297695       4.07504001       9.98176342       0.00001513       0.00000740      -0.00002282
Ge      -0.00000009       0.00000003       0.00000011       0.00000251       0.00000334      -0.00000493
Se       2.00422953       1.41720441       6.65451061      -0.00266725      -0.00188486      -0.00000325
Se       5.67973917       4.01618034       6.65451203       0.00266697       0.00187361       0.00000913
Se       4.76086038       1.41720294       5.06296964       0.00132818      -0.00189172      -0.00230075
Se       2.92310644       4.01618044       8.24605322      -0.00133424       0.00188085       0.00231154
Se       2.92310507       4.01618065       5.06296927      -0.00134331       0.00187530      -0.00230508
Se       4.76086107       1.41720450       8.24605259       0.00133578      -0.00188440       0.00230931
