9
Lattice="6.287956693840453 6.567116526136691e-08 3.6303535209745665 2.095985603716535 5.928342531934457 3.630353560486652 3.280981406817304e-08 7.159225616571816e-08 7.260706985120798" Properties=species:S:1:pos:R:3:forces:R:3 energy=-35.7762336730957 free_energy=-35.7762336730957 stress="6.61271496937843e-06 5.3346087547367915e-09 -1.1146904732584062e-08 5.3346087547367915e-09 6.622084583796095e-06 -4.569672640286626e-09 -1.1146904732584062e-08 -4.569672640286626e-09 6.603410838579293e-06" pbc="T T T"
Mn       2.09598576       1.48208567       3.63035333       0.00000126       0.00000081      -0.00000103
Mn       6.28795644       4.44625651      10.89105872      -0.00000235      -0.00000174      -0.00001091
Ga       0.00000013      -0.00000023       0.00000038      -0.00000066       0.00000104       0.00000102
Te       2.23019552       1.57698697       7.26070671       0.00268792       0.00190138      -0.00000014
Te       6.15374681       4.35135615       7.26070773      -0.00268878      -0.00190174       0.00000440
Te       5.17285874       1.57698622       5.56175979      -0.00134462       0.00189980       0.00232952
Te       3.21108412       4.35135596       8.95965484       0.00134848      -0.00190243      -0.00232699
Te       3.21108316       4.35135621       5.56175980       0.00134343      -0.00190137       0.00233021
Te       5.17285864       1.57698720       8.95965501      -0.00134462       0.00190430      -0.00232601
