9
Lattice="5.348107596255051 -3.885879942676751e-08 3.0877310701762664 1.7827025078704686 5.04224432233608 3.0877310486609644 -9.270229889774371e-08 -9.190119465653509e-08 6.1754623009177045" Properties=species:S:1:pos:R:3:forces:R:3 energy=-42.089054107666016 free_energy=-42.089054107666016 stress="4.908052233076887e-06 5.246987555551641e-08 -1.7242425265351358e-09 5.246987555551641e-08 4.912420081382152e-06 1.1273744160433807e-09 -1.7242425265351358e-09 1.1273744160433807e-09 4.972170245309826e-06" pbc="T T T"
Mn       1.78270101       1.26055996       3.08773150      -0.00000343      -0.00000049      -0.00000009
Mn       5.34810766       3.78168434       9.26319299      -0.00000032      -0.00000023      -0.00000071
Ga      -0.00000019      -0.00000013      -0.00000006       0.00000127       0.00000129      -0.00000000
S        1.88050334       1.32971630       6.17546235      -0.00240766      -0.00170289       0.00000016
S        5.25030697       3.71252809       6.17546260       0.00240726       0.00170467       0.00000179
S        4.40785632       1.32971601       4.71629505       0.00120298      -0.00170221      -0.00208265
S        2.72295423       3.71252837       7.63462927      -0.00120246       0.00170264       0.00208230
S        2.72295416       3.71252819       4.71629500      -0.00120216       0.00170108      -0.00208237
S        4.40785655       1.32971563       7.63462894       0.00120458      -0.00170382       0.00208125
