9
Lattice="6.287721213335871 -1.4507495256578837e-07 3.630217519281789 2.0959069472449174 5.928120478423218 3.6302174969193604 -7.35493246910427e-08 -7.939551764923318e-08 7.260435165954731" Properties=species:S:1:pos:R:3:forces:R:3 energy=-36.86753845214844 free_energy=-36.86753845214844 stress="1.120373508456396e-05 -2.621824757298441e-09 8.374493098983748e-09 -2.621824757298441e-09 1.1204285328858532e-05 -2.334130444481275e-09 8.374493098983748e-09 -2.334130444481275e-09 1.1191318662895355e-05" pbc="T T T"
Mn       2.09590761       1.48203024       3.63021695       0.00000440       0.00000313      -0.00000477
Mn       6.28772012       4.44608910      10.89065366      -0.00000752      -0.00000684       0.00000647
Ge       0.00000001      -0.00000002       0.00000067      -0.00000010       0.00000012      -0.00000253
Te       2.23551025       1.58074479       7.26043525      -0.00055236      -0.00038952       0.00000105
Te       6.14811747       4.34737549       7.26043427       0.00055398       0.00039122      -0.00000423
Te       5.16996611       1.58074498       5.56622610       0.00027674      -0.00038704      -0.00048053
Te       3.21366269       4.34737523       8.95464373      -0.00027607       0.00038864       0.00048181
Te       3.21366293       4.34737582       5.56622599      -0.00027302       0.00039040      -0.00048047
Te       5.16996519       1.58074534       8.95464410       0.00027391      -0.00039008       0.00048326
