9
Lattice="4.4960452556318735 1.2682970416016852e-07 2.5957927299980326 1.4986819005478877 4.238912078133119 2.595792679605042 1.5938043578883354e-08 -5.044864810834561e-08 5.191585432390552" Properties=species:S:1:pos:R:3:forces:R:3 energy=-54.821502685546875 free_energy=-54.821502685546875 stress="-0.00020688936638180166 8.023864239703471e-08 -3.608023391166171e-08 8.023864239703471e-08 -0.00020679857698269188 -1.7137489649599047e-08 -3.608023391166171e-08 -1.7137489649599047e-08 -0.0002066798333544284" pbc="T T T"
Mn       1.49868238       1.05972774       2.59579273       0.00000015      -0.00000096      -0.00000046
Mn       4.49604559       3.17918413       7.78737834       0.00000255      -0.00000115       0.00000174
Ge       0.00000026      -0.00000016       0.00000002      -0.00000372       0.00000144      -0.00000181
O        1.51833359       1.07362455       5.19158551      -0.00122631      -0.00086278      -0.00000082
O        4.47639299       3.16528809       5.19158553       0.00122499       0.00086814       0.00000070
O        3.73687805       1.07362427       3.91070834       0.00061142      -0.00086564      -0.00106144
O        2.25784869       3.16528795       6.47246242      -0.00061077       0.00086480       0.00105882
O        2.25784908       3.16528807       3.91070813      -0.00060993       0.00086397      -0.00105798
O        3.73687819       1.07362404       6.47246223       0.00061148      -0.00086826       0.00106156
