9
Lattice="4.498251455923503 2.0122103898251246e-08 2.597066801633995 1.4994171523592563 4.2409921301367985 2.597066833826793 -2.313513660034573e-08 2.3068980624386846e-08 5.1941336433392316" Properties=species:S:1:pos:R:3:forces:R:3 energy=-50.99433898925781 free_energy=-50.99433898925781 stress="-5.337536640581675e-05 4.126766484091604e-08 5.52154020283524e-08 4.126766484091604e-08 -5.321528442436829e-05 1.0261633320851615e-07 5.52154020283524e-08 1.0261633320851615e-07 -5.353991946321912e-05" pbc="T T T"
Mn       1.49941688       1.06024785       2.59706690       0.00000038      -0.00000012       0.00000006
Mn       4.49825178       3.18074456       7.79119975       0.00000155       0.00000186      -0.00000409
Ga      -0.00000008       0.00000009       0.00000007       0.00000155       0.00000051      -0.00000811
O        1.53474501       1.08522865       5.19413378      -0.00271207      -0.00191855      -0.00000055
O        4.46292357       3.15576382       5.19413455       0.00270981       0.00191694       0.00000080
O        3.73087902       1.08522806       3.92619500       0.00135270      -0.00191265      -0.00234181
O        2.26678966       3.15576359       6.46207232      -0.00135753       0.00191835       0.00234842
O        2.26678923       3.15576356       3.92619475      -0.00135222       0.00191250      -0.00234303
O        3.73087918       1.08522856       6.46207218       0.00135607      -0.00191906       0.00234780
