9
Lattice="5.348107212054607 3.9344713199869855e-08 3.087730966186769 1.7827024010353658 5.042244157099658 3.0877310356028858 -1.973718425703436e-07 -5.454601230146638e-08 6.175462274231642" Properties=species:S:1:pos:R:3:forces:R:3 energy=-42.089054107666016 free_energy=-42.089054107666016 stress="4.816134605789557e-06 -2.368626628168613e-09 6.275246988707295e-09 -2.368626628168613e-09 4.734137291961815e-06 -3.1556286472778083e-08 6.275246988707295e-09 -3.1556286472778083e-08 4.8081542445288505e-06" pbc="T T T"
Mn       1.78270098       1.26055994       3.08773242      -0.00000160      -0.00000140       0.00000120
Mn       5.34810703       3.78168401       9.26319300       0.00000076       0.00000174       0.00000097
Ga      -0.00000020      -0.00000009      -0.00000021      -0.00000095       0.00000094       0.00000044
S        1.88050309       1.32971640       6.17546176      -0.00240976      -0.00170160      -0.00000122
S        5.25030632       3.71252814       6.17546231       0.00240714       0.00170567       0.00000113
S        4.40785603       1.32971590       4.71629501       0.00120565      -0.00170590      -0.00208353
S        2.72295405       3.71252844       7.63462905      -0.00120304       0.00170299       0.00208244
S        2.72295410       3.71252788       4.71629479      -0.00120425       0.00170213      -0.00208434
S        4.40785622       1.32971596       7.63462893       0.00120607      -0.00170442       0.00208281
