9
Lattice="5.651254375805832 -1.61040986874423e-07 3.2627533677123015 1.8837513450321566 5.328053847140736 3.2627533014420806 -1.1263815733117108e-09 -8.196058681221458e-08 6.525506737375578" Properties=species:S:1:pos:R:3:forces:R:3 energy=-38.37403869628906 free_energy=-38.37403869628906 stress="7.062129589030519e-05 1.3619018801591665e-08 2.2267455435098782e-08 1.3619018801591665e-08 7.060337520670146e-05 1.3128134135342862e-08 2.2267455435098782e-08 1.3128134135342862e-08 7.05874917912297e-05" pbc="T T T"
Mn       1.88374828       1.33201287       3.26275184      -0.00002823      -0.00000371      -0.00001437
Mn       5.65125427       3.99604014       9.78826321       0.00000052      -0.00000269       0.00002830
Ga      -0.00000026      -0.00000013       0.00000046       0.00000366       0.00000044      -0.00000251
Se       2.05878683       1.45578218       6.52550754       0.00011617       0.00008163       0.00000519
Se       5.47621913       3.87227132       6.52550511      -0.00011446      -0.00008599      -0.00001413
Se       4.62186271       1.45578236       5.04571522      -0.00004389       0.00008896       0.00010645
Se       2.91314418       3.87227148       8.00529765       0.00005062      -0.00008166      -0.00010304
Se       2.91314583       3.87227251       5.04571528       0.00006634      -0.00007564       0.00010166
Se       4.62186187       1.45578169       8.00529733      -0.00005079       0.00007874      -0.00010756
