9
Lattice="6.28795658132664 3.40620414799239e-08 3.6303534903865637 2.095985564821147 5.928342344051447 3.630353480690153 7.1696941746823e-08 3.882168937772771e-08 7.2607068565904385" Properties=species:S:1:pos:R:3:forces:R:3 energy=-35.77622985839844 free_energy=-35.77622985839844 stress="6.608454896195326e-06 1.3982961455383247e-08 -1.0344860967848035e-08 1.3982961455383247e-08 6.624455636483617e-06 -1.1855093795531957e-08 -1.0344860967848035e-08 -1.1855093795531957e-08 6.594922069780296e-06" pbc="T T T"
Mn       2.09598594       1.48208532       3.63035308       0.00000283      -0.00000224      -0.00000177
Mn       6.28795646       4.44625651      10.89105847      -0.00000215      -0.00000172      -0.00001096
Ga       0.00000011       0.00000001       0.00000044      -0.00000018       0.00000048       0.00000017
Te       2.23019552       1.57698671       7.26070675       0.00268841       0.00190108       0.00000044
Te       6.15374667       4.35135612       7.26070765      -0.00268994      -0.00190119       0.00000457
Te       5.17285859       1.57698604       5.56175966      -0.00134622       0.00190108       0.00233033
Te       3.21108413       4.35135588       8.95965469       0.00134891      -0.00190148      -0.00232676
Te       3.21108288       4.35135603       5.56175979       0.00134398      -0.00190075       0.00233101
Te       5.17285857       1.57698706       8.95965482      -0.00134560       0.00190474      -0.00232701
