9
Lattice="5.486911925684828 -4.747435648646577e-08 3.167870147082691 1.8289705912465115 5.173110424144353 3.167870157283033 4.356601840018615e-08 4.329865761919148e-08 6.335740218706828" Properties=species:S:1:pos:R:3:forces:R:3 energy=-43.53764724731445 free_energy=-43.53764724731445 stress="-9.028561180457473e-05 -4.488642701971912e-08 4.283879917466038e-10 -4.488642701971912e-08 -9.027137275552377e-05 -1.951647909947951e-08 4.283879917466038e-10 -1.951647909947951e-08 -9.022704034578055e-05" pbc="T T T"
Mn       1.82897125       1.29327731       3.16787003       0.00000309      -0.00000031      -0.00000164
Mn       5.48691109       3.87983321       9.50361029      -0.00000340       0.00000036       0.00000011
Ge      -0.00000013      -0.00000003       0.00000028       0.00000336      -0.00000064      -0.00000751
S        1.88655793       1.33399780       6.33574005       0.00110900       0.00078177      -0.00000106
S        5.42932478       3.83911244       6.33573993      -0.00111067      -0.00078404      -0.00000223
S        4.54363282       1.33399765       4.80167735      -0.00055695       0.00078624       0.00096309
S        2.77224998       3.83911230       7.86980323       0.00055352      -0.00077993      -0.00095499
S        2.77225003       3.83911274       4.80167723       0.00055760      -0.00078413       0.00096047
S        4.54363245       1.33399826       7.86980365      -0.00055522       0.00078085      -0.00095636
