9
Lattice="5.84480743962244 -4.998830935064846e-08 3.3745010143915737 1.9482691797568785 5.510536958041969 3.374500875229068 -1.8964201293851793e-09 -1.7177953113022535e-07 6.7490020320678346" Properties=species:S:1:pos:R:3:forces:R:3 energy=-46.96629333496094 free_energy=-46.96629333496094 stress="7.900507057456707e-07 -1.8103268883962187e-10 1.860823495292152e-08 -1.8103268883962187e-10 8.228204251281568e-07 -3.2557561979729144e-08 1.860823495292152e-08 -3.2557561979729144e-08 8.146050163304608e-07" pbc="T T T"
Mn       1.94826987       1.37763462       3.37450087       0.00000613       0.00000419       0.00000050
Mn       5.84480558       4.13290203      10.12350336      -0.00001684      -0.00000489       0.00000650
Hf       0.00000005       0.00000020      -0.00000027      -0.00000159      -0.00000119       0.00000480
Se       2.09907398       1.48426897       6.74900199      -0.00138942      -0.00098374      -0.00000022
Se       5.69400247       4.02626761       6.74900176       0.00139254       0.00098463      -0.00000178
Se       4.79527067       1.48426952       5.19235158       0.00069461      -0.00097917      -0.00121072
Se       2.99780640       4.02626753       8.30565274      -0.00069043       0.00098096       0.00120647
Se       2.99780687       4.02626741       5.19235164      -0.00068948       0.00098323      -0.00121194
Se       4.79527057       1.48426905       8.30565198       0.00069472      -0.00098386       0.00120617
