9
Lattice="6.413375929406733 1.6405797942934448e-09 3.7027641563020475 2.1377919800353977 6.046588637039464 3.702764152803742 6.198788305258092e-11 -4.24070967869234e-09 7.405528312496686" Properties=species:S:1:pos:R:3:forces:R:3 energy=-44.10084533691406 free_energy=-44.10084533691406 stress="0.000148692648508586 -4.038755996305099e-09 -5.932918600848325e-10 -4.038755996305099e-09 0.00014869918231852353 7.789431322180462e-09 -5.932918600848325e-10 7.789431322180462e-09 0.0001487035333411768" pbc="T T T"
Mn       2.13779211       1.51164719       3.70276415      -0.00000005      -0.00000081       0.00000059
Mn       6.41337613       4.53494189      11.10829222       0.00000155       0.00000262      -0.00000110
Hf       0.00000042      -0.00000031       0.00000019      -0.00000234       0.00000421      -0.00000113
Te       2.28592110       1.61639001       7.40552825      -0.00563619      -0.00398599      -0.00000039
Te       6.26524668       4.43019832       7.40552842       0.00563753       0.00398535       0.00000008
Te       5.27041512       1.61639005       5.68242984       0.00281856      -0.00398751      -0.00488229
Te       3.28075256       4.43019860       9.12862681      -0.00281928       0.00398564       0.00488110
Te       3.28075231       4.43019854       5.68242973      -0.00281804       0.00398478      -0.00487949
Te       5.27041521       1.61639026       9.12862687       0.00281820      -0.00398831       0.00488260
