9
Lattice="4.610012776916431 -9.935048821178495e-09 2.6615921118649912 1.5366709034515105 4.346361692950268 2.661592134070657 -1.4815299049487589e-09 2.614865861337135e-08 5.323184226296057" Properties=species:S:1:pos:R:3:forces:R:3 energy=-63.55150604248047 free_energy=-63.55150604248047 stress="-0.0002224490890512243 -8.673292484218109e-08 -7.958814052244634e-08 -8.673292484218109e-08 -0.0002222172770416364 1.2704607854630012e-07 -7.958814052244634e-08 1.2704607854630012e-07 -0.0002221648464910686" pbc="T T T"
Mn       1.53667078       1.08659077       2.66159212      -0.00000016       0.00000062       0.00000056
Mn       4.61001262       3.25977143       7.98477571      -0.00000311      -0.00000030      -0.00000382
Hf      -0.00000049      -0.00000044       0.00000021       0.00000680       0.00000633      -0.00000128
O        1.64161498       1.16079664       5.32318418      -0.00372344      -0.00263467       0.00000049
O        4.50506913       3.18556482       5.32318471       0.00371844       0.00262815      -0.00000065
O        3.78920532       1.16079695       4.08327245       0.00186396      -0.00263569      -0.00322980
O        2.35747856       3.18556450       6.56309615      -0.00186431       0.00263634       0.00323021
O        2.35747820       3.18556468       4.08327237      -0.00186083       0.00263220      -0.00322348
O        3.78920567       1.16079745       6.56309613       0.00186315      -0.00263312       0.00322837
