9
Lattice="5.763615732714827 -3.4747881436273756e-08 3.3276251084119317 1.9212051853634553 5.433988926760964 3.3276251536430386 -1.9113997225639e-08 4.188094047333895e-08 6.655250249930251" Properties=species:S:1:pos:R:3:forces:R:3 energy=-44.54774475097656 free_energy=-44.54774475097656 stress="8.90058890945511e-06 2.4425578004638737e-08 6.565173293893167e-09 2.4425578004638737e-08 8.903263733373024e-06 1.4131722458898821e-08 6.565173293893167e-09 1.4131722458898821e-08 8.902979061531369e-06" pbc="T T T"
Mn       1.92120470       1.35849720       3.32762563      -0.00000260      -0.00000011       0.00000423
Mn       5.76361554       4.07549168       9.98287418      -0.00000175      -0.00000052      -0.00001210
Ir      -0.00000005       0.00000006       0.00000012       0.00000086      -0.00000017       0.00000471
Se       2.00736804       1.41942345       6.65525014      -0.00026251      -0.00018618      -0.00000049
Se       5.67745294       4.01456531       6.65525113       0.00026229       0.00018470       0.00000505
Se       4.75993166       1.41942341       5.06605675       0.00013239      -0.00018746      -0.00022486
Se       2.92488951       4.01456579       8.24444369      -0.00012688       0.00018494       0.00022528
Se       2.92488909       4.01456518       5.06605679      -0.00013361       0.00018704      -0.00022674
Se       4.75993214       1.41942364       8.24444359       0.00013172      -0.00018220       0.00022493
