9
Lattice="5.320580212814947 2.9670652603026538e-08 3.071838411157401 1.7735267690893601 5.016291182962253 3.071838405076803 2.4408981709875358e-08 9.812585919612692e-09 6.143676780037145" Properties=species:S:1:pos:R:3:forces:R:3 energy=-48.97113037109375 free_energy=-48.97113037109375 stress="-6.260618101805449e-05 -3.766178480191229e-08 4.4700265711128395e-09 -3.766178480191229e-08 -6.263561954256147e-05 -1.542536409715467e-08 4.4700265711128395e-09 -1.542536409715467e-08 -6.259143265197054e-05" pbc="T T T"
Mn       1.77352651       1.25407326       3.07183884      -0.00000026       0.00000173       0.00000129
Mn       5.32057977       3.76221907       9.21551518      -0.00000158       0.00000175       0.00000035
Ir       0.00000019       0.00000038       0.00000003       0.00000049      -0.00000046      -0.00000017
S        1.89687208       1.34129061       6.14367691       0.00058520       0.00041220       0.00000009
S        5.19723523       3.67500017       6.14367675      -0.00058383      -0.00041315      -0.00000072
S        4.37214409       1.34129057       4.71457769      -0.00029123       0.00041071       0.00050479
S        2.72196264       3.67499998       7.57277595       0.00029120      -0.00041270      -0.00050431
S        2.72196292       3.67500003       4.71457751       0.00029156      -0.00041163       0.00050330
S        4.37214454       1.34129084       7.57277562      -0.00029173       0.00041181      -0.00050533
