9
Lattice="4.657785902532241 -1.0505761446712938e-07 2.6891740764563576 1.5525952558705536 4.391402475781277 2.689173982794395 -9.602399746138525e-09 -1.21501922722456e-07 5.378348169544581" Properties=species:S:1:pos:R:3:forces:R:3 energy=-57.2799072265625 free_energy=-57.2799072265625 stress="0.00023424607934430242 5.186459262063181e-09 5.5440665391870425e-08 5.186459262063181e-09 0.00023410968424286693 -1.2940650329085202e-08 5.5440665391870425e-08 -1.2940650329085202e-08 0.00023444263206329197" pbc="T T T"
Mn       1.55259548       1.09785118       2.68917363       0.00000124      -0.00000213      -0.00000043
Mn       4.65778562       3.29355134       8.06752210      -0.00000043       0.00000174      -0.00000029
Ir       0.00000016      -0.00000041       0.00000165      -0.00000445       0.00002706      -0.00011057
O        1.52802461       1.08047611       5.37834854      -0.00658369      -0.00465164      -0.00000624
O        4.68235670       3.31092599       5.37834836       0.00657123       0.00464396      -0.00000490
O        3.89377395       1.08047572       4.01248186       0.00327188      -0.00462402      -0.00567633
O        2.31660830       3.31092559       6.74421374      -0.00330417       0.00467308       0.00572300
O        2.31660730       3.31092678       4.01248211      -0.00326701       0.00461972      -0.00566565
O        3.89377253       1.08047665       6.74421301       0.00331537      -0.00468805       0.00574133
