9
Lattice="5.763615916930883 7.50022073744259e-08 3.3276251198602886 1.9212053950858268 5.433989086852167 3.3276250874199236 1.0211992583274243e-07 3.247857195130629e-08 6.655250062843672" Properties=species:S:1:pos:R:3:forces:R:3 energy=-44.54774475097656 free_energy=-44.54774475097656 stress="-7.40202176530147e-06 3.7895045323921295e-08 1.4171482654035117e-08 3.7895045323921295e-08 -7.469561296602478e-06 -2.2258673126884787e-08 1.4171482654035117e-08 -2.2258673126884787e-08 -7.4544482231431175e-06" pbc="T T T"
Mn       1.92120491       1.35849679       3.32762496      -0.00000312      -0.00000614       0.00000123
Mn       5.76361652       4.07549344       9.98287242       0.00000449       0.00001191      -0.00002912
Ir       0.00000019       0.00000007       0.00000004      -0.00000279      -0.00000208       0.00000290
Se       2.00729572       1.41937205       6.65525027       0.00072825       0.00051147       0.00000176
Se       5.67752561       4.01461645       6.65525133      -0.00072269      -0.00051047       0.00001156
Se       4.75996779       1.41937106       5.06599457      -0.00036595       0.00050364       0.00063623
Se       2.92485383       4.01461729       8.24450640       0.00036836      -0.00051369      -0.00063035
Se       2.92485270       4.01461709       5.06599455       0.00035686      -0.00051083       0.00063439
Se       4.75996842       1.41937251       8.24450659      -0.00036321       0.00051610      -0.00062852
