9
Lattice="4.657623607350174 -1.2442094092506792e-07 2.68908044212692 1.5525411320236733 4.391249591280183 2.6890803609303724 1.0723997150043325e-08 -9.186198031375704e-08 5.378160865679335" Properties=species:S:1:pos:R:3:forces:R:3 energy=-57.2799072265625 free_energy=-57.2799072265625 stress="-9.860438876785338e-05 -2.1768132185684408e-08 3.700272088735801e-08 -2.1768132185684408e-08 -9.86699087661691e-05 -1.582385245058049e-08 3.700272088735801e-08 -1.582385245058049e-08 -9.83614445431158e-05" pbc="T T T"
Mn       1.55254126       1.09781217       2.68908073      -0.00000058      -0.00000301       0.00000275
Mn       4.65762372       3.29343759       8.06724168       0.00000080       0.00000401       0.00000367
Ir      -0.00000034      -0.00000032       0.00000037       0.00000405       0.00001649      -0.00003767
O        1.52775120       1.08028262       5.37816082       0.00119191       0.00084519      -0.00000140
O        4.68241361       3.31096644       5.37816057      -0.00120237      -0.00085038      -0.00000153
O        3.89374789       1.08028289       4.01215181      -0.00060275       0.00085014       0.00103755
O        2.31641666       3.31096655       6.74416958       0.00059406      -0.00084098      -0.00102901
O        2.31641673       3.31096665       4.01215177       0.00060353      -0.00085565       0.00104688
O        3.89374822       1.08028278       6.74416943      -0.00058839       0.00083417      -0.00102128
