9
Lattice="5.317772400409246 -8.238510352159336e-08 3.0702171074731255 1.772590873169356 5.01364284434104 3.0702168464421247 2.2039732424360516e-07 -1.6385198392517517e-07 6.140433833206923" Properties=species:S:1:pos:R:3:forces:R:3 energy=-48.97105026245117 free_energy=-48.97105026245117 stress="-0.00048712751595303416 -1.99113863175171e-08 2.7824249571040127e-08 -1.99113863175171e-08 -0.00048707929090596735 -2.7398026958280752e-08 2.7824249571040127e-08 -2.7398026958280752e-08 -0.0004870496049989015" pbc="T T T"
Mn       1.77259044       1.25341070       3.07021677      -0.00000145       0.00000035      -0.00000164
Mn       5.31777321       3.76023194       9.21065072       0.00000011      -0.00000022      -0.00000072
Ir      -0.00000042      -0.00000001       0.00000023      -0.00000035       0.00000120       0.00000075
S        1.89720129       1.34152316       6.14043391      -0.00328994      -0.00232664      -0.00000010
S        5.19316230       3.67211923       6.14043411       0.00328946       0.00232664       0.00000214
S        4.36917187       1.34152362       4.71324108       0.00164586      -0.00232580      -0.00284910
S        2.72119134       3.67211921       7.56762673      -0.00164375       0.00232384       0.00284719
S        2.72119164       3.67211900       4.71324102      -0.00164613       0.00232756      -0.00284952
S        4.36917235       1.34152337       7.56762663       0.00164655      -0.00232685       0.00285041
