9
Lattice="4.612216425225543 -5.845846214960743e-08 2.6628644335179517 1.5374054443350798 4.3484396106648875 2.6628643912991095 5.497295570617506e-09 -4.782012156115429e-08 5.3257288575143" Properties=species:S:1:pos:R:3:forces:R:3 energy=-59.2945556640625 free_energy=-59.2945556640625 stress="-6.532776751555502e-05 1.6286822557276537e-08 7.4280785966607255e-09 1.6286822557276537e-08 -6.537073204526678e-05 -4.0580179216931356e-08 7.4280785966607255e-09 -4.0580179216931356e-08 -6.543167546624318e-05" pbc="T T T"
Mn       1.53740550       1.08711040       2.66286425       0.00000030       0.00000410      -0.00000271
Mn       4.61221639       3.26132935       7.98859316      -0.00000013      -0.00000058      -0.00000250
Mo      -0.00000002      -0.00000011      -0.00000028      -0.00000212      -0.00000143       0.00001139
O        1.56248936       1.10484684       5.32572889      -0.00010180      -0.00007260       0.00000116
O        4.58713254       3.24359235       5.32572872       0.00010896       0.00007218       0.00000205
O        3.83097146       1.10484691       4.01601975       0.00005066      -0.00007349      -0.00009036
O        2.31865013       3.24359250       6.63543800      -0.00004941       0.00006711       0.00008678
O        2.31865019       3.24359281       4.01602009      -0.00005496       0.00007540      -0.00009120
O        3.83097175       1.10484686       6.63543782       0.00004840      -0.00007004       0.00008476
