9
Lattice="5.892923460977216 -2.3972150320796715e-08 3.4022810828777175 1.9643077838371068 5.555901553647769 3.402281106931543 4.97120114210463e-08 6.461140518532731e-08 6.804562079651834" Properties=species:S:1:pos:R:3:forces:R:3 energy=-46.898719787597656 free_energy=-46.898719787597656 stress="-0.00011368707055225968 -5.775162037480186e-08 -8.869518453025194e-09 -5.775162037480186e-08 -0.00011361762881278992 -4.3996358556341875e-08 -8.869518453025194e-09 -4.3996358556341875e-08 -0.00011362976511009037" pbc="T T T"
Mn       1.96430854       1.38897636       3.40228117       0.00000704       0.00000800       0.00000113
Mn       5.89292336       4.16692524      10.20684182      -0.00000294      -0.00000668      -0.00001537
Mo      -0.00000065      -0.00000046      -0.00000082       0.00000914       0.00000454       0.00001247
Se       2.00377743       1.41688513       6.80456232      -0.00167643      -0.00118288       0.00000081
Se       5.85345421       4.13901697       6.80456310       0.00166529       0.00117482       0.00000698
Se       4.89103421       1.41688494       5.13760328       0.00083569      -0.00118541      -0.00145131
Se       2.96619700       4.13901686       8.47152121      -0.00083198       0.00117858       0.00144990
Se       2.96619657       4.13901637       5.13760355      -0.00084218       0.00118609      -0.00145382
Se       4.89103454       1.41688498       8.47152149       0.00083628      -0.00117709       0.00144914
