9
Lattice="4.612159765200137 -5.4306241900801074e-08 2.6628314998012423 1.5373865504699333 4.348385974884664 2.662831476816391 -4.934324952775846e-08 -6.304152209423324e-08 5.325663085067478" Properties=species:S:1:pos:R:3:forces:R:3 energy=-59.2945556640625 free_energy=-59.2945556640625 stress="-8.216781861847267e-05 7.825273229400409e-08 8.952265062589504e-08 7.825273229400409e-08 -8.22698202682659e-05 5.513643230870002e-08 8.952265062589504e-08 5.513643230870002e-08 -8.22561196400784e-05" pbc="T T T"
Mn       1.53738695       1.08709646       2.66283150       0.00000199       0.00000030      -0.00000015
Mn       4.61216002       3.26128946       7.98849506       0.00000175      -0.00000006       0.00000538
Mo       0.00000001      -0.00000002       0.00000000       0.00000024       0.00000287      -0.00000469
O        1.56249208       1.10484934       5.32566305      -0.00032055      -0.00022447      -0.00000243
O        4.58705386       3.24353680       5.32566262       0.00031984       0.00022495       0.00000314
O        3.83091375       1.10484902       4.01598951       0.00015444      -0.00022310      -0.00027263
O        2.31863230       3.24353687       6.63533643      -0.00015676       0.00022316       0.00027239
O        2.31863297       3.24353697       4.01598923      -0.00015831       0.00022173      -0.00027549
O        3.83091308       1.10484835       6.63533643       0.00015748      -0.00022566       0.00027490
