9
Lattice="5.891237410662174 1.6598800260270687e-07 3.4013074688102485 1.9637459151135828 5.554311965692558 3.401307546640812 -2.1202085133647804e-08 8.033041040464163e-08 6.8026149743436415" Properties=species:S:1:pos:R:3:forces:R:3 energy=-46.8986701965332 free_energy=-46.8986701965332 stress="-0.00033462123246863484 3.026194761446277e-08 -1.801344140517358e-08 3.026194761446277e-08 -0.0003346587473060936 -6.924226081395091e-09 -1.801344140517358e-08 -6.924226081395091e-09 -0.0003347667516209185" pbc="T T T"
Mn       1.96374651       1.38857882       3.40130748       0.00000657       0.00000900       0.00000181
Mn       5.89123698       4.16573435      10.20392210      -0.00000530       0.00000014      -0.00000380
Mo       0.00000010       0.00000026      -0.00000043       0.00000294      -0.00000386       0.00000704
Se       2.00361550       1.41677021       6.80261513      -0.00152977      -0.00108451       0.00000001
Se       5.85136785       4.13754165       6.80261531       0.00153171       0.00108033       0.00000082
Se       4.88942933       1.41677002       5.13648905       0.00076026      -0.00108138      -0.00132324
Se       2.96555361       4.13754193       8.46874110      -0.00076082       0.00107500       0.00132500
Se       2.96555361       4.13754177       5.13648918      -0.00076497       0.00108179      -0.00132775
Se       4.88942973       1.41676985       8.46874103       0.00075935      -0.00107656       0.00132008
