9
Lattice="4.328144398989985 -7.76639407680986e-08 2.498855542449491 1.4427148112371182 4.080613331419572 2.4988553955784107 9.118085140234196e-08 -1.1540499141589995e-07 4.997710926969119" Properties=species:S:1:pos:R:3:forces:R:3 energy=-52.208038330078125 free_energy=-52.208038330078125 stress="-7.371887477347627e-05 -4.918585361224359e-08 -1.3175929680642184e-08 -4.918585361224359e-08 -7.373087282758206e-05 6.399859131533958e-08 -1.3175929680642184e-08 6.399859131533958e-08 -7.384856144199148e-05" pbc="T T T"
Mn       1.44271465       1.02015312       2.49885517       0.00000152      -0.00000098      -0.00000181
Mn       4.32814455       3.06045983       7.49656610       0.00000043      -0.00000007      -0.00000131
N        0.00000040      -0.00000081      -0.00000163       0.00000144      -0.00000918      -0.00001887
O        1.30873060       0.92541194       4.99771084       0.00034845       0.00024652      -0.00000071
O        4.46212921       3.15520138       4.99771088      -0.00034881      -0.00024796       0.00000080
O        3.67377888       0.92541250       3.63225007      -0.00017780       0.00025487       0.00031137
O        2.09707941       3.15520163       6.36317394       0.00016993      -0.00023925      -0.00029612
O        2.09708009       3.15520094       3.63224963       0.00017583      -0.00024843       0.00030541
O        3.67377938       0.92541165       6.36317315      -0.00016999       0.00024402      -0.00030088
