9
Lattice="5.453629674384517 -8.210274485431897e-08 3.148654664764672 1.8178765116929896 5.141731196795376 3.1486546111195173 -2.90146625762392e-08 -8.621806544629635e-08 6.297309379784207" Properties=species:S:1:pos:R:3:forces:R:3 energy=-52.78949737548828 free_energy=-52.78949737548828 stress="4.069796432304429e-06 1.7575985111761838e-08 5.815836257028195e-09 1.7575985111761838e-08 4.0554668885306455e-06 -6.435135091464872e-09 5.815836257028195e-09 -6.435135091464872e-09 4.065229404659476e-06" pbc="T T T"
Mn       1.81787633       1.28543273       3.14865437      -0.00000110       0.00000002      -0.00000105
Mn       5.45362986       3.85629914       9.44596515       0.00000172       0.00000299       0.00000285
Nb       0.00000004      -0.00000010       0.00000029       0.00000319       0.00000076      -0.00000952
S        1.92835387       1.36355172       6.29730946      -0.00237498      -0.00167935      -0.00000047
S        5.34315245       3.77817903       6.29730870       0.00237027       0.00167505      -0.00000081
S        4.48945289       1.36355166       4.81865801       0.00118406      -0.00167455      -0.00205040
S        2.78205327       3.77817899       7.77596061      -0.00118695       0.00167976       0.00205594
S        2.78205350       3.77817941       4.81865789      -0.00118369       0.00167546      -0.00205223
S        4.48945243       1.36355153       7.77596027       0.00118729      -0.00168028       0.00205567
