9
Lattice="5.662022765369413 6.835870325813797e-08 3.2689702960958464 1.8873409083653485 5.3382067259579316 3.2689704309769474 -1.5111534648875418e-07 5.8340269297044404e-08 6.537940853931186" Properties=species:S:1:pos:R:3:forces:R:3 energy=-41.168155670166016 free_energy=-41.168155670166016 stress="-0.00016307795885950327 8.05395838909817e-09 -1.4383679136642513e-08 8.05395838909817e-09 -0.00016310987120959908 1.4554514038422894e-08 -1.4383679136642513e-08 1.4554514038422894e-08 -0.00016312177467625588" pbc="T T T"
Mn       1.88734323       1.33455135       3.26896949       0.00002294      -0.00000274      -0.00000982
Mn       5.66202300       4.00365459       9.80691428       0.00000245      -0.00000711       0.00003151
Ni       0.00000004      -0.00000005       0.00000033      -0.00000078       0.00000043      -0.00000620
Se       1.90612588       1.34783561       6.53794113       0.00381416       0.00270239       0.00000331
Se       5.64323646       3.99037239       6.53793916      -0.00382236      -0.00269201      -0.00001515
Se       4.70895909       1.34783588       4.91972347      -0.00191280       0.00270680       0.00329855
Se       2.84040311       3.99037072       8.15615728       0.00189936      -0.00270468      -0.00330412
Se       2.84040486       3.99037223       4.91972408       0.00191596      -0.00269854       0.00330594
Se       4.70895839       1.34783470       8.15615717      -0.00191894       0.00269556      -0.00330377
