9
Lattice="5.2828382446897955 5.192407366396136e-08 3.0500481406528976 1.76094610172864 4.980707632143843 3.050048190517056 -5.19210785507419e-08 2.4357134207461726e-08 6.100096371235724" Properties=species:S:1:pos:R:3:forces:R:3 energy=-45.309364318847656 free_energy=-45.309364318847656 stress="-3.191871292074211e-05 5.645942380283486e-08 1.9493890945909698e-08 5.645942380283486e-08 -3.190888310200535e-05 8.934544659666699e-09 1.9493890945909698e-08 8.934544659666699e-09 -3.1982039217837155e-05" pbc="T T T"
Mn       1.76094738       1.24517613       3.05004775       0.00000698      -0.00000460      -0.00000295
Mn       5.28283788       3.73553054       9.15014388      -0.00000289      -0.00000141      -0.00000334
Ni       0.00000005       0.00000011      -0.00000010      -0.00000090      -0.00000525      -0.00000063
S        1.76602352       1.24876719       6.10009642       0.00022265       0.00015560      -0.00000061
S        5.27776016       3.73194134       6.10009666      -0.00021899      -0.00015052       0.00000154
S        4.39982634       1.24876704       4.57946889      -0.00011431       0.00016055       0.00019565
S        2.64395776       3.73194063       7.62072390       0.00011136      -0.00015685      -0.00019029
S        2.64395776       3.73194078       4.57946914       0.00011133      -0.00015707       0.00019249
S        4.39982625       1.24876711       7.62072406      -0.00011532       0.00015967      -0.00019220
