9
Lattice="4.618957655708782 1.1357514939291138e-07 2.6667565500662302 1.5396526098684296 4.354795298165146 2.6667566351345187 4.3781751809475266e-08 1.351453041645805e-07 5.333513024300241" Properties=species:S:1:pos:R:3:forces:R:3 energy=-63.34159469604492 free_energy=-63.34159469604492 stress="-0.00010164562263526022 -7.361467879718475e-08 3.0244990512073855e-08 -7.361467879718475e-08 -0.00010166390711674467 -1.1082025253017491e-07 3.0244990512073855e-08 -1.1082025253017491e-07 -0.00010165281128138304" pbc="T T T"
Mn       1.53965218       1.08869819       2.66675673      -0.00000380      -0.00000372       0.00000220
Mn       4.61895775       3.26609729       8.00026946      -0.00000007       0.00000248      -0.00000002
Nb       0.00000003       0.00000005       0.00000011       0.00000010      -0.00000115      -0.00000165
O        1.61130394       1.13936357       5.33351298      -0.00111866      -0.00079107      -0.00000009
O        4.54730663       3.21543161       5.33351345       0.00111914       0.00079250       0.00000050
O        3.81330565       1.13936372       4.06218668       0.00056088      -0.00079107      -0.00097132
O        2.34530445       3.21543188       6.60483940      -0.00056088       0.00079155       0.00096989
O        2.34530465       3.21543199       4.06218658      -0.00055772       0.00079203      -0.00097060
O        3.81330609       1.13936389       6.60483953       0.00056088      -0.00079119       0.00097084
