9
Lattice="4.447055876384168 1.8050888396579643e-08 2.5675088292666715 1.4823519575407267 4.1927244676456 2.5675088609156176 -2.5850547505562522e-08 2.0482778420721507e-08 5.135017703307831" Properties=species:S:1:pos:R:3:forces:R:3 energy=-49.729331970214844 free_energy=-49.729331970214844 stress="-9.230300929630175e-05 -2.473226423660435e-08 -4.003090126047937e-08 -2.473226423660435e-08 -9.230196883436292e-05 -2.8517145977957625e-08 -4.003090126047937e-08 -2.8517145977957625e-08 -9.217079059453681e-05" pbc="T T T"
Mn       1.48235182       1.04818187       2.56750892      -0.00000042       0.00000028       0.00000095
Mn       4.44705587       3.14454271       7.70252638       0.00000024       0.00000070       0.00000009
Ni       0.00000001       0.00000007       0.00000072      -0.00000030      -0.00000364      -0.00002463
O        1.47237577       1.04112717       5.13501771       0.00169906       0.00120161       0.00000181
O        4.45703192       3.15159723       5.13501769      -0.00169742      -0.00119883       0.00000101
O        3.71086816       1.04112688       3.84262383      -0.00085188       0.00120276       0.00147551
O        2.21854009       3.15159738       6.42741136       0.00084692      -0.00119574      -0.00146389
O        2.21853960       3.15159741       3.84262360       0.00085023      -0.00120334       0.00147271
O        3.71086796       1.04112730       6.42741156      -0.00084624       0.00119622      -0.00146392
