9
Lattice="6.0976023485385 -4.004030328400989e-08 3.5204521509329494 2.0325340625428683 5.748874643533159 3.520452178448838 -4.243103352554618e-09 3.069957655678587e-08 7.040904309215198" Properties=species:S:1:pos:R:3:forces:R:3 energy=-38.944122314453125 free_energy=-38.944122314453125 stress="-0.0001535680639790371 -2.0729837846289456e-09 6.813213881962099e-11 -2.0729837846289456e-09 -0.00015355429786723107 -4.752805704555385e-09 6.813213881962099e-11 -4.752805704555385e-09 -0.00015355629147961736" pbc="T T T"
Mn       2.03253493       1.43721823       3.52045220       0.00000657      -0.00000400       0.00000080
Mn       6.09760193       4.31165539      10.56135515      -0.00000438      -0.00000336      -0.00000786
Ni       0.00000021      -0.00000002       0.00000016      -0.00000089      -0.00000006      -0.00000142
Te       2.07833366       1.46960410       7.04090429       0.00672176       0.00475287      -0.00000006
Te       6.05180217       4.27927111       7.04090516      -0.00672363      -0.00475007       0.00000423
Te       5.05843481       1.46960394       5.32034157      -0.00336343       0.00475363       0.00582048
Te       3.07170163       4.27927069       8.76146703       0.00336464      -0.00475179      -0.00581910
Te       3.07170110       4.27927054       5.32034186       0.00336072      -0.00475285       0.00582108
Te       5.05843518       1.46960453       8.76146714      -0.00336131       0.00475566      -0.00581808
