9
Lattice="6.353957259378095 3.4451603422700507e-07 3.6684586971886715 2.117985979707559 5.9905684289614705 3.668458867330315 -1.0310880891275052e-07 1.3547108469908416e-07 7.336917572967072" Properties=species:S:1:pos:R:3:forces:R:3 energy=-43.572505950927734 free_energy=-43.572505950927734 stress="-0.00018525465566199273 7.925385858698064e-08 -2.9660210287829614e-08 7.925385858698064e-08 -0.0001853300491347909 2.5633209332909246e-08 -2.9660210287829614e-08 2.5633209332909246e-08 -0.00018536305287852883" pbc="T T T"
Mn       2.11798589       1.49764198       3.66845967      -0.00000012      -0.00000131       0.00000587
Mn       6.35395725       4.49292732      11.00537451      -0.00000101       0.00000438      -0.00000915
Nb       0.00000052      -0.00000021      -0.00000049      -0.00000362      -0.00000180       0.00000712
Te       2.22624854       1.57419531       7.33691742      -0.00385976      -0.00273277      -0.00000092
Te       6.24569437       4.41637333       7.33691831       0.00386623       0.00273421       0.00000346
Te       5.24083278       1.57419496       5.59644606       0.00192738      -0.00273239      -0.00334214
Te       3.23111011       4.41637407       9.07738978      -0.00192532       0.00272667       0.00333944
Te       3.23110910       4.41637377       5.59644582      -0.00193054       0.00272617      -0.00333872
Te       5.24083400       1.57419508       9.07738948       0.00192669      -0.00272318       0.00333504
