9
Lattice="4.328144289167036 -2.5748004699979744e-08 2.4988555587883714 1.4427147452938593 4.08061361347901 2.4988555475064094 5.851176834920228e-08 2.755655771268327e-08 4.997711016231397" Properties=species:S:1:pos:R:3:forces:R:3 energy=-52.208038330078125 free_energy=-52.208038330078125 stress="-4.8637724830769e-05 4.321886493130478e-08 -7.683608771458239e-08 4.321886493130478e-08 -4.8426758439745754e-05 -3.5583692437057834e-08 -7.683608771458239e-08 -3.5583692437057834e-08 -4.827677912544459e-05" pbc="T T T"
Mn       1.44271480       1.02015339       2.49885636       0.00000051       0.00000105       0.00000256
Mn       4.32814433       3.06046022       7.49656705      -0.00000027       0.00000044       0.00000339
N        0.00000009       0.00000065       0.00000322       0.00000139       0.00000742       0.00003368
O        1.30874689       0.92542403       4.99771156      -0.00037062      -0.00026226      -0.00000065
O        4.46211156       3.15518930       4.99771145       0.00036764       0.00026059      -0.00000325
O        3.67377122       0.92542321       3.63226301       0.00018978      -0.00026989      -0.00033510
O        2.09708969       3.15518813       6.36315639      -0.00018054       0.00025547       0.00031400
O        2.09708792       3.15519044       3.63226331      -0.00018841       0.00026727      -0.00033104
O        3.67377002       0.92542514       6.36315673       0.00018090      -0.00025964       0.00031459
