9
Lattice="5.253056317141753 -1.1322805896221582e-07 3.0328533133129456 1.7510187156302148 4.952628458846164 3.0328532267067994 8.445258361062705e-08 -4.635343696773775e-08 6.065706480349764" Properties=species:S:1:pos:R:3:forces:R:3 energy=-51.21393585205078 free_energy=-51.21393585205078 stress="2.563628731877543e-05 -1.4866281539127613e-08 -3.6956947724320344e-08 -1.4866281539127613e-08 2.5706138330860995e-05 2.573246893344816e-10 -3.6956947724320344e-08 2.573246893344816e-10 2.5688847017590888e-05" pbc="T T T"
Mn       1.75101861       1.23815685       3.03285359      -0.00000074      -0.00000002      -0.00000076
Mn       5.25305614       3.71447119       9.09855995       0.00000058      -0.00000045       0.00000055
Os      -0.00000013      -0.00000020       0.00000006      -0.00000050      -0.00000018       0.00000096
S        1.91468544       1.35388696       6.06570618       0.00598139       0.00423133       0.00000098
S        5.08938966       3.59874175       6.06570670      -0.00598300      -0.00422984       0.00000113
S        4.29571349       1.35388705       4.69101947      -0.00298902       0.00422812       0.00518000
S        2.70836191       3.59874147       7.44039328       0.00299147      -0.00423074      -0.00518185
S        2.70836152       3.59874127       4.69101925       0.00299045      -0.00422943       0.00518119
S        4.29571389       1.35388683       7.44039350      -0.00299075       0.00423139      -0.00518221
