9
Lattice="5.757247890743025 4.882434698792011e-09 3.3239486221774017 1.9190825633790547 5.427985627815932 3.323948745970191 -8.592610355573952e-08 9.085568021833684e-08 6.647897393183081" Properties=species:S:1:pos:R:3:forces:R:3 energy=-46.302825927734375 free_energy=-46.302825927734375 stress="-3.4409888030495495e-05 1.8732412954136635e-08 -2.096189000155846e-09 1.8732412954136635e-08 -3.446235859883018e-05 -1.1684258005573156e-08 -2.096189000155846e-09 -1.1684258005573156e-08 -3.443263267399743e-05" pbc="T T T"
Mn       1.91907941       1.35699543       3.32394899      -0.00003010      -0.00000625       0.00000231
Mn       5.75724692       4.07098889       9.97184582      -0.00000651      -0.00000515      -0.00000228
Os       0.00000036       0.00000016       0.00000036      -0.00000734       0.00000002       0.00000088
Se       2.01553754       1.42520032       6.64789722       0.00110292       0.00078061      -0.00000088
Se       5.66079302       4.00278474       6.64789744      -0.00109252      -0.00077912       0.00000065
Se       4.74948020       1.42520063       5.06945590      -0.00053975       0.00077918       0.00095761
Se       2.92685196       4.00278602       8.22633898       0.00055715      -0.00077420      -0.00095740
Se       2.92685185       4.00278592       5.06945555       0.00055438      -0.00077635       0.00095710
Se       4.74948024       1.42520079       8.22633880      -0.00053839       0.00078148      -0.00095814
