9
Lattice="4.659364090449838 -2.3526169524600913e-09 2.69008505871597 1.5531213407148539 4.39289052008808 2.6900850943102057 -6.23948657377101e-08 -5.259601209663857e-10 5.380170225503049" Properties=species:S:1:pos:R:3:forces:R:3 energy=-63.045989990234375 free_energy=-63.045989990234375 stress="9.132456762017682e-05 -1.3021154821046821e-08 -4.2469025629543466e-08 -1.3021154821046821e-08 9.121451148530468e-05 8.240921545166202e-08 -4.2469025629543466e-08 8.240921545166202e-08 9.129633690463379e-05" pbc="T T T"
Mn       1.55312143       1.09822261       2.69008515       0.00000121      -0.00000146      -0.00000031
Mn       4.65936403       3.29466782       8.07025510       0.00000120       0.00000030      -0.00000137
Os       0.00000023      -0.00000014      -0.00000048      -0.00000134       0.00001670       0.00002153
O        1.51133055       1.06867187       5.38017031      -0.00281358      -0.00198784       0.00000241
O        4.70115526       3.32421900       5.38017036       0.00280067       0.00198291       0.00000144
O        3.90369876       1.06867195       3.99893564       0.00141220      -0.00199334      -0.00244476
O        2.30878605       3.32421877       6.76140521      -0.00139925       0.00197798       0.00242321
O        2.30878608       3.32421859       3.99893551      -0.00140439       0.00198410      -0.00243072
O        3.90369906       1.06867154       6.76140478       0.00140336      -0.00197931       0.00242826
