9
Lattice="5.761269752708017 -3.096569409133631e-08 3.326270502555267 1.9204232135251882 5.431777225252292 3.326270516728264 -1.4676612979578211e-08 6.980280596160377e-09 6.652541030531316" Properties=species:S:1:pos:R:3:forces:R:3 energy=-42.224761962890625 free_energy=-42.224761962890625 stress="-2.489057987986598e-05 -3.0638968695484436e-08 1.0839851682931112e-08 -3.0638968695484436e-08 -2.4902201403165236e-05 -1.801412174984307e-08 1.0839851682931112e-08 -1.801412174984307e-08 -2.4945702534751035e-05" pbc="T T T"
Mn       1.92042247       1.35794357       3.32627088      -0.00000922      -0.00000785       0.00000324
Mn       5.76127123       4.07383356       9.97881111       0.00001380       0.00000638      -0.00000413
Pt      -0.00000029       0.00000019      -0.00000031       0.00000422      -0.00000168       0.00000685
Se       1.99128729       1.40805300       6.65254100       0.00131047       0.00092688      -0.00000093
Se       5.69040567       4.02372429       6.65254122      -0.00131236      -0.00092798       0.00000130
Se       4.76562611       1.40805234       5.05077627      -0.00065561       0.00092287       0.00113855
Se       2.91606667       4.02372502       8.25430579       0.00065506      -0.00092252      -0.00114010
Se       2.91606633       4.02372453       5.05077643       0.00064871      -0.00092348       0.00113663
Se       4.76562632       1.40805236       8.25430581      -0.00065494       0.00092728      -0.00114125
