9
Lattice="5.8910734145859225 2.456200997702235e-07 3.401212566866747 1.9636912648191482 5.55415723832711 3.4012127486436228 -1.996542510422206e-07 8.145348383732297e-08 6.802425479544679" Properties=species:S:1:pos:R:3:forces:R:3 energy=-37.71455001831055 free_energy=-37.71455001831055 stress="0.0001081569935195148 -3.486058375301582e-08 6.167638133547371e-08 -3.486058375301582e-08 0.00010830066457856447 -7.66835928089904e-10 6.167638133547371e-08 -7.66835928089904e-10 0.00010820658644661307" pbc="T T T"
Mn       1.96369168       1.38854297       3.40121078       0.00000444       0.00003536      -0.00002046
Mn       5.89107488       4.16561452      10.20364024       0.00001090      -0.00003417       0.00001715
Pb      -0.00000027      -0.00000005      -0.00000038       0.00000215       0.00000124       0.00000203
Se       2.29473814       1.62262822       6.80242637      -0.00725229      -0.00510146       0.00000831
Se       5.56002609       3.93153062       6.80242327       0.00724699       0.00510792      -0.00001574
Se       4.74370521       1.62262773       5.38851499       0.00363344      -0.00510404      -0.00627658
Se       3.11105983       3.93152890       8.21633681      -0.00363246       0.00509757       0.00627992
Se       3.11105997       3.93153014       5.38851524      -0.00362726       0.00511046      -0.00627493
Se       4.74370239       1.62262721       8.21633583       0.00361404      -0.00511289       0.00628030
