9
Lattice="4.376837189179151 1.437729963407828e-07 2.526968190645902 1.458945787364546 4.12652181431367 2.526968325594001 -1.5578266093384517e-08 1.5426150845760645e-07 5.053936408274181" Properties=species:S:1:pos:R:3:forces:R:3 energy=-51.622337341308594 free_energy=-51.622337341308594 stress="0.00039250811096280813 8.224651537602767e-08 -6.516835071579408e-08 8.224651537602767e-08 0.00039255982846952975 5.4959898854178846e-09 -6.516835071579408e-08 5.4959898854178846e-09 0.0003923868644051254" pbc="T T T"
Mn       1.45894525       1.03163009       2.52696842       0.00000050       0.00000084       0.00000072
Mn       4.37683754       3.09489269       7.58090805      -0.00000123       0.00000065       0.00000348
Pd      -0.00000000       0.00000000      -0.00000019       0.00000526       0.00000116      -0.00001153
O        1.54558732       1.09289566       5.05393698      -0.00028598      -0.00019944       0.00000018
O        4.29019571       3.03362616       5.05393506       0.00028276       0.00019774       0.00000004
O        3.60404361       1.09289532       3.86548540       0.00013471      -0.00019687      -0.00023800
O        2.23173942       3.03362716       6.24238627      -0.00013739       0.00019974       0.00024107
O        2.23173964       3.03362667       3.86548550      -0.00013909       0.00019407      -0.00023854
O        3.60404353       1.09289483       6.24238637       0.00014073      -0.00019756       0.00024286
