9
Lattice="5.825553962646109 4.328954039041887e-08 3.363385105862968 1.9418513398872757 5.492384930735004 3.3633851436364663 -1.9481595389031643e-08 3.24873111580223e-08 6.726770245469078" Properties=species:S:1:pos:R:3:forces:R:3 energy=-40.68579864501953 free_energy=-40.68579864501953 stress="4.74429180030711e-05 -4.2971043390238606e-10 2.513220742628164e-08 -4.2971043390238606e-10 4.7491295845247805e-05 4.828649924348838e-09 2.513220742628164e-08 4.828649924348838e-09 4.7461060603382066e-05" pbc="T T T"
Mn       1.94185142       1.37309503       3.36338459      -0.00000083      -0.00001032      -0.00000709
Mn       5.82555378       4.11928707      10.09015736       0.00000006      -0.00001501       0.00001886
Pd       0.00000012       0.00000025       0.00000012      -0.00000205      -0.00000097      -0.00000276
Se       2.03953017       1.44216635       6.72677036      -0.00068331      -0.00047639       0.00000164
Se       5.72787427       4.05021953       6.72676932       0.00068066       0.00048694      -0.00000793
Se       4.80578924       1.44216701       5.12966995       0.00034726      -0.00047305      -0.00059450
Se       2.96161644       4.05021904       8.32386983      -0.00034474       0.00048479       0.00058842
Se       2.96161709       4.05021961       5.12967051      -0.00033714       0.00048694      -0.00058988
Se       4.80578859       1.44216618       8.32386999       0.00033997      -0.00048286       0.00059333
