9
Lattice="6.53908414474324 2.1949542329251864e-10 3.7753419174827054 2.17969473092403 6.165107614837893 3.7753418901116387 -8.053044980778336e-10 -3.4092003845259256e-08 7.550683836360205" Properties=species:S:1:pos:R:3:forces:R:3 energy=-35.13576126098633 free_energy=-35.13576126098633 stress="-4.4636008169618435e-06 3.956835303853268e-09 1.3155554423605054e-09 3.956835303853268e-09 -4.469343366508838e-06 -1.1392076171290455e-09 1.3155554423605054e-09 -1.1392076171290455e-09 -4.467839517019456e-06" pbc="T T T"
Mn       2.17969391       1.54127614       3.77534143      -0.00000522      -0.00000397      -0.00000165
Mn       6.53908431       4.62383052      11.32602515       0.00000228      -0.00000198      -0.00000318
Pb       0.00000016       0.00000016       0.00000028       0.00000084      -0.00000003      -0.00000047
Te       2.45964278       1.73923009       7.55068402       0.00129461       0.00091673       0.00000068
Te       6.25913553       4.42587747       7.55068410      -0.00129646      -0.00091575       0.00000140
Te       5.30926339       1.73923005       5.90545544      -0.00064541       0.00091594       0.00112363
Te       3.40951615       4.42587767       9.19591219       0.00064774      -0.00091451      -0.00112263
Te       3.40951612       4.42587792       5.90545564       0.00064664      -0.00091323       0.00112434
Te       5.30926314       1.73923032       9.19591231      -0.00064495       0.00091679      -0.00112220
