9
Lattice="4.420271585824996 7.388425484826158e-08 2.5520447516717266 1.473423870778163 4.167472299676343 2.5520448570189185 -8.764865180658331e-09 1.2282575579115127e-07 5.104089518524626" Properties=species:S:1:pos:R:3:forces:R:3 energy=-60.142356872558594 free_energy=-60.142356872558594 stress="-0.0005993981612846255 -8.995765199415473e-08 -5.1150010449418915e-08 -8.995765199415473e-08 -0.0005992829683236778 -5.666884206334544e-08 -5.1150010449418915e-08 -5.666884206334544e-08 -0.0005993600352667272" pbc="T T T"
Mn       1.47342420       1.04186785       2.55204467      -0.00000053       0.00000019      -0.00000127
Mn       4.42027175       3.12560454       7.65613433       0.00000120      -0.00000040      -0.00000148
P       -0.00000005       0.00000016       0.00000020       0.00000059      -0.00000497      -0.00000110
O        1.38110930       0.97659163       5.10408957       0.00409698       0.00289321       0.00000130
O        4.51258621       3.19088074       5.10408937      -0.00409579      -0.00289118      -0.00000111
O        3.72971695       0.97659181       3.74812043      -0.00204694       0.00289464       0.00354636
O        2.16397808       3.19088064       6.46005860       0.00204635      -0.00289392      -0.00354385
O        2.16397811       3.19088039       3.74812038       0.00204551      -0.00289512       0.00354588
O        3.72971723       0.97659212       6.46005882      -0.00204551       0.00289726      -0.00354457
