9
Lattice="4.550795619176803 5.4956996756403247e-08 2.6274030372348087 1.516931874529756 4.290531313760421 2.6274031244316407 2.93714615326761e-09 1.0887077359791813e-07 5.2548060693823375" Properties=species:S:1:pos:R:3:forces:R:3 energy=-53.05513381958008 free_energy=-53.05513381958008 stress="0.0005018215742893517 -2.955353473055311e-08 -6.166878563362843e-08 -2.955353473055311e-08 0.0005017161602154374 -1.711378416757725e-08 -6.166878563362843e-08 -1.711378416757725e-08 0.0005019024247303605" pbc="T T T"
Mn       1.51693282       1.07263266       2.62740284       0.00000281      -0.00000287      -0.00000006
Mn       4.55079536       3.21789979       7.88220966       0.00000010       0.00000712      -0.00000045
Pt      -0.00000004       0.00000002       0.00000006      -0.00000021       0.00000556       0.00000429
O        1.59162793       1.12545047       5.25480638      -0.00649892      -0.00459613       0.00000299
O        4.47609928       3.16508092       5.25480587       0.00649698       0.00459753      -0.00000228
O        3.75498200       1.12545043       4.00579348       0.00325049      -0.00459775      -0.00563002
O        2.31274636       3.16508074       6.50381895      -0.00324804       0.00459471       0.00562710
O        2.31274556       3.16508065       4.00579306      -0.00324934       0.00459276      -0.00562994
O        3.75498076       1.12545028       6.50381863       0.00324614      -0.00460118       0.00562862
