9
Lattice="5.383873601046806 2.2000152036840524e-08 3.1083808396601555 1.7946245438360422 5.07596496849357 3.1083808579994034 4.975672395968897e-08 5.7644199518123546e-08 6.216761593139108" Properties=species:S:1:pos:R:3:forces:R:3 energy=-46.33565139770508 free_energy=-46.33565139770508 stress="3.7373571103671566e-05 8.001047824279794e-09 -6.012545461508978e-10 8.001047824279794e-09 3.732631739694625e-05 1.5828069521717225e-08 -6.012545461508978e-10 1.5828069521717225e-08 3.7351492210291326e-05" pbc="T T T"
Mn       1.79462468       1.26899123       3.10838082       0.00000023       0.00000077      -0.00000010
Mn       5.38387372       3.80697332       9.32514154       0.00000199      -0.00000114      -0.00000223
Pt      -0.00000011       0.00000003       0.00000002      -0.00000054       0.00000120       0.00000580
S        1.87637714       1.32679909       6.21676170      -0.00105447      -0.00074589       0.00000024
S        5.30212115       3.74916594       6.21676216       0.00105315       0.00074494       0.00000052
S        4.44568490       1.32679908       4.73337108       0.00052738      -0.00074598      -0.00091410
S        2.73281315       3.74916606       7.70015228      -0.00052649       0.00074336       0.00091058
S        2.73281291       3.74916579       4.73337106      -0.00052753       0.00074553      -0.00091177
S        4.44568524       1.32679944       7.70015242       0.00052622      -0.00074297       0.00091088
