9
Lattice="4.420426394676278 -6.827977153869615e-08 2.5521343236651512 1.4734754526817238 4.167617550995226 2.552134233313739 -2.33707321875917e-08 -1.2718302898077982e-07 5.104268687809624" Properties=species:S:1:pos:R:3:forces:R:3 energy=-60.142356872558594 free_energy=-60.142356872558594 stress="-0.0004766361089423299 -5.609518183291584e-08 1.2549534744721313e-07 -5.609518183291584e-08 -0.00047694597742520273 -5.0557233066683693e-08 1.2549534744721313e-07 -5.0557233066683693e-08 -0.00047690089559182525" pbc="T T T"
Mn       1.47347534       1.04190435       2.55213421      -0.00000006      -0.00000130      -0.00000098
Mn       4.42042623       3.12571300       7.65640269      -0.00000047      -0.00000106      -0.00000041
P        0.00000012      -0.00000008       0.00000006      -0.00000087       0.00000275       0.00001040
O        1.38114812       0.97661909       5.10426871       0.00335932       0.00237608      -0.00000139
O        4.51275337       3.19099851       5.10426865      -0.00335789      -0.00237679       0.00000203
O        3.72985247       0.97661935       3.74824370      -0.00167704       0.00237250       0.00290442
O        2.16404954       3.19099806       6.46029354       0.00167954      -0.00237656      -0.00291002
O        2.16404990       3.19099835       3.74824396       0.00167358      -0.00237048       0.00290322
O        3.72985230       0.97661876       6.46029334      -0.00167692       0.00237572      -0.00290751
