9
Lattice="5.473556709075191 -1.637711226469602e-09 3.1601593235124357 1.8245188782094905 5.160518991518357 3.1601593638198957 -3.9780383587559964e-08 2.123738662905234e-08 6.320318715926494" Properties=species:S:1:pos:R:3:forces:R:3 energy=-45.37566375732422 free_energy=-45.37566375732422 stress="-0.00022185991110745817 1.2489230982737354e-08 -6.412772091124452e-09 1.2489230982737354e-08 -0.00022190221352502704 9.90646498166825e-09 -6.412772091124452e-09 9.90646498166825e-09 -0.00022188466391526163" pbc="T T T"
Mn       1.82451966       1.29012940       3.16015939       0.00000431      -0.00000126      -0.00000057
Mn       5.47355685       3.87038952       9.48047955       0.00000214       0.00000098       0.00000746
P       -0.00000023      -0.00000006      -0.00000005      -0.00000091      -0.00000080      -0.00000218
S        1.76943816       1.25118204       6.32031908       0.00167263       0.00118303       0.00000333
S        5.52863694       3.90933731       6.32031832      -0.00167108      -0.00117844      -0.00000165
S        4.58883735       1.25118220       4.69253741      -0.00083917       0.00118291       0.00144649
S        2.70923790       3.90933741       7.94809924       0.00083488      -0.00118196      -0.00145072
S        2.70923836       3.90933693       4.69253744       0.00083703      -0.00118428       0.00144750
S        4.58883717       1.25118120       7.94809925      -0.00083983       0.00117898      -0.00144970
