9
Lattice="5.678826208370059 -6.187923848070145e-08 3.2786718831114756 1.8929419560043401 5.354048754669365 3.278671978568287 -1.7114254721662225e-07 -4.1057905981646516e-09 6.557344062650522" Properties=species:S:1:pos:R:3:forces:R:3 energy=-41.223243713378906 free_energy=-41.223243713378906 stress="-4.9873600801220164e-05 -8.620140157233891e-09 -9.553695612396496e-09 -8.620140157233891e-09 -4.9848582420963794e-05 -9.876662154795213e-09 -9.553695612396496e-09 -9.876662154795213e-09 -4.9868343921843916e-05" pbc="T T T"
Mn       1.89294231       1.33851051       3.27867262       0.00000355      -0.00001558       0.00000505
Mn       5.67882685       4.01553645       9.83601684       0.00000830      -0.00000230       0.00000769
P       -0.00000013      -0.00000010       0.00000006       0.00000037      -0.00000009      -0.00000013
Se       1.89646721       1.34100519       6.55734409       0.00441289       0.00312281      -0.00000163
Se       5.67530033       4.01304418       6.55734390      -0.00441816      -0.00311619      -0.00000144
Se       4.73059205       1.34100539       4.92106040      -0.00220986       0.00312471       0.00382072
Se       2.84117518       4.01304454       8.19362586       0.00220458      -0.00311452      -0.00382909
Se       2.84117581       4.01304396       4.92106139       0.00220591      -0.00311854       0.00382394
Se       4.73059229       1.34100463       8.19362660      -0.00220758       0.00311965      -0.00382477
