9
Lattice="5.395213683343025 7.644638504394636e-09 3.114928139528079 1.7984045152916153 5.086656340462946 3.114928231379025 -3.0081876944805376e-08 9.122285942982176e-08 6.229856331159518" Properties=species:S:1:pos:R:3:forces:R:3 energy=-44.21598815917969 free_energy=-44.21598815917969 stress="4.279347922420129e-05 -3.995056729877433e-08 1.963255558123933e-09 -3.995056729877433e-08 4.277064363122918e-05 -7.18075199301893e-09 1.963255558123933e-09 -7.18075199301893e-09 4.282538066036068e-05" pbc="T T T"
Mn       1.79840498       1.27166423       3.11492766       0.00000243       0.00000075      -0.00000209
Mn       5.39521377       3.81499191       9.34478536       0.00000093      -0.00000202       0.00000383
Pd      -0.00000019      -0.00000026      -0.00000010       0.00000067       0.00000335      -0.00000184
S        1.89749209       1.34172974       6.22985645      -0.00379527      -0.00268209       0.00000029
S        5.29612590       3.74492709       6.22985584       0.00379264       0.00268281      -0.00000226
S        4.44646772       1.34173007       4.75820473       0.00189885      -0.00268215      -0.00328720
S        2.74715040       3.74492635       7.70150808      -0.00189945       0.00268179       0.00328684
S        2.74715061       3.74492696       4.75820481      -0.00189781       0.00268251      -0.00328541
S        4.44646733       1.34172976       7.70150810       0.00189671      -0.00268477       0.00328767
