9
Lattice="4.687550693858247 5.599283938405921e-09 2.7063587282067525 1.562516867744957 4.419465372500002 2.7063587896717487 -5.627277636369815e-08 3.5488065746950536e-08 5.412717553880804" Properties=species:S:1:pos:R:3:forces:R:3 energy=-48.83631896972656 free_energy=-48.83631896972656 stress="-6.242369272513315e-05 -1.908123881122492e-09 -1.5703874867156742e-09 -1.908123881122492e-09 -6.264362309593707e-05 -2.141336175043307e-08 -1.5703874867156742e-09 -2.141336175043307e-08 -6.249925354495645e-05" pbc="T T T"
Mn       1.56251651       1.10486735       2.70635873      -0.00000286       0.00000787      -0.00000079
Mn       4.68755064       3.31459802       8.11907661       0.00000054      -0.00000713       0.00000240
Pb      -0.00000003      -0.00000010      -0.00000036      -0.00000038       0.00000409       0.00002259
O        1.67092504       1.18152313       5.41271747      -0.00321198      -0.00226855       0.00000147
O        4.57914260       3.23794222       5.41271762       0.00321144       0.00226659       0.00000030
O        3.85208798       1.18152314       4.15342255       0.00161065      -0.00227309      -0.00278664
O        2.39797906       3.23794265       6.67201259      -0.00160336       0.00226031       0.00277075
O        2.39797985       3.23794243       4.15342242      -0.00160566       0.00227465      -0.00278544
O        3.85208830       1.18152280       6.67201259       0.00160132      -0.00226453       0.00277501
