9
Lattice="5.27451751767931 -1.5358982828526667e-07 3.0452442304292187 1.7581724838785868 4.9728622667255635 3.045244017748286 1.685743954815208e-08 -2.485598296639022e-07 6.0904884316604635" Properties=species:S:1:pos:R:3:forces:R:3 energy=-49.64556121826172 free_energy=-49.64556121826172 stress="-5.601379234576598e-05 -4.005657316952238e-08 -7.46289785524823e-09 -4.005657316952238e-08 -5.598593634204008e-05 1.5700651445627045e-08 -7.46289785524823e-09 1.5700651445627045e-08 -5.592933302978054e-05" pbc="T T T"
Mn       1.75817279       1.24321588       3.04524398      -0.00000009      -0.00000042       0.00000083
Mn       5.27451723       3.72964695       9.13573297       0.00000030       0.00000067      -0.00000078
Ru      -0.00000020      -0.00000019       0.00000010       0.00000033      -0.00000079       0.00000077
S        1.87501057       1.32583239       6.09048857       0.00005692       0.00003991      -0.00000074
S        5.15767953       3.64702936       6.09048805      -0.00005686      -0.00004041       0.00000050
S        4.33701223       1.32583275       4.66905140      -0.00002897       0.00003973       0.00004786
S        2.69567782       3.64702870       7.51192539       0.00002763      -0.00003919      -0.00004733
S        2.69567798       3.64702957       4.66905104       0.00002834      -0.00003907       0.00004745
S        4.33701222       1.32583199       7.51192535      -0.00002748       0.00003961      -0.00004846
