9
Lattice="4.611052080689004 -2.0087642057189086e-08 2.6621921559855726 1.537017361610648 4.347341581051858 2.6621921207906456 -6.3137787453400905e-09 -4.756931535304861e-08 5.324384322906942" Properties=species:S:1:pos:R:3:forces:R:3 energy=-59.11732864379883 free_energy=-59.11732864379883 stress="-5.099004556541331e-05 5.963950400200702e-08 -3.7058264013012376e-08 5.963950400200702e-08 -5.0925955292768776e-05 1.992844289588902e-08 -3.7058264013012376e-08 1.992844289588902e-08 -5.103779039927758e-05" pbc="T T T"
Mn       1.53701669       1.08683505       2.66219224      -0.00000378      -0.00000136       0.00000127
Mn       4.61105216       3.26050602       7.98657708      -0.00000088      -0.00000205       0.00000455
Ru      -0.00000002       0.00000000       0.00000020      -0.00000111      -0.00000063       0.00000517
O        1.51812078       1.07347374       5.32438400       0.00012368       0.00008827      -0.00000049
O        4.62994860       3.27386801       5.32438364      -0.00012469      -0.00008631      -0.00000186
O        3.85199199       1.07347349       3.97692337      -0.00006118       0.00008860       0.00010991
O        2.29607757       3.27386801       6.67184548       0.00006628      -0.00009161      -0.00011393
O        2.29607799       3.27386837       3.97692316       0.00006545      -0.00008893       0.00010949
O        3.85199209       1.07347331       6.67184523      -0.00006390       0.00009388      -0.00011432
