9
Lattice="6.285274715923881 -1.854821504701587e-07 3.6288050895838873 2.095091501616319 5.925813686313838 3.6288049085569782 6.785084004226657e-08 -1.7373403060512673e-07 7.2576100616467505" Properties=species:S:1:pos:R:3:forces:R:3 energy=-45.12071990966797 free_energy=-45.12071990966797 stress="-3.343053685966879e-05 -1.5576848255705045e-08 5.016025994564188e-08 -1.5576848255705045e-08 -3.340901457704604e-05 -8.628999381699032e-08 5.016025994564188e-08 -8.628999381699032e-08 -3.3417421946069226e-05" pbc="T T T"
Mn       2.09509200       1.48145345       3.62880499       0.00000145       0.00000026      -0.00000019
Mn       6.28527465       4.44436038      10.88641458      -0.00000051       0.00000237      -0.00000357
Re       0.00000008      -0.00000040       0.00000051      -0.00000193       0.00000802      -0.00000675
Te       2.16262116       1.52920349       7.25761011      -0.00059566      -0.00042270       0.00000112
Te       6.21774567       4.39660974       7.25761009       0.00059244       0.00041883       0.00000203
Te       5.20396383       1.52920329       5.50168963       0.00029423      -0.00041887      -0.00051409
Te       3.17640185       4.39660967       9.01353042      -0.00029420       0.00041796       0.00051332
Te       3.17640187       4.39660964       5.50168969      -0.00029878       0.00042102      -0.00051540
Te       5.20396402       1.52920404       9.01353012       0.00030303      -0.00042687       0.00052357
