9
Lattice="5.759806451434179 -6.03911619449794e-08 3.325425721856022 1.9199354801357411 5.43039755498062 3.3254256296040823 3.268654399872365e-09 -1.1067378542390763e-07 6.650851438050519" Properties=species:S:1:pos:R:3:forces:R:3 energy=-45.14494323730469 free_energy=-45.14494323730469 stress="-0.0003737934457603842 3.961418570952446e-08 1.7762111781394196e-08 3.961418570952446e-08 -0.0003737403021659702 -1.4573577011844918e-08 1.7762111781394196e-08 -1.4573577011844918e-08 -0.0003737592196557671" pbc="T T T"
Mn       1.91993358       1.35759895       3.32542638      -0.00001806      -0.00000636       0.00000514
Mn       5.75980756       4.07279803       9.97627687       0.00001054       0.00000217      -0.00000294
Ru       0.00000012      -0.00000017      -0.00000025      -0.00000146      -0.00000082      -0.00000012
Se       1.99473503       1.41049057       6.65085142      -0.00126258      -0.00089290      -0.00000203
Se       5.68500675       4.01990676       6.65085180       0.00126569       0.00089245       0.00000465
Se       4.76243964       1.41049044       5.05291717       0.00063564      -0.00089238      -0.00108905
Se       2.91730238       4.01990740       8.24878534      -0.00063385       0.00089584       0.00108670
Se       2.91730287       4.01990693       5.05291685      -0.00063419       0.00089492      -0.00109163
Se       4.76243981       1.41049058       8.24878549       0.00063837      -0.00089298       0.00108927
