9
Lattice="4.610955219141499 5.269895504164082e-08 2.6621361500649643 1.5369850874737339 4.347250389110956 2.662136211134448 2.0377623128659217e-08 8.920370754158893e-08 5.32427226483485" Properties=species:S:1:pos:R:3:forces:R:3 energy=-59.11732864379883 free_energy=-59.11732864379883 stress="-0.00012517833965830505 4.683301746410962e-09 1.401538618495124e-08 4.683301746410962e-09 -0.00012511205568443984 1.1565411739411502e-08 1.401538618495124e-08 1.1565411739411502e-08 -0.00012508280633483082" pbc="T T T"
Mn       1.53698520       1.08681279       2.66213634       0.00000163       0.00000108       0.00000133
Mn       4.61095507       3.26043735       7.98640898       0.00000023      -0.00000308       0.00000416
Ru       0.00000015       0.00000013       0.00000015       0.00000095      -0.00000106      -0.00000154
O        1.51809031       1.07345256       5.32427238       0.00097364       0.00069109      -0.00000068
O        4.62984973       3.27379824       5.32427235      -0.00097537      -0.00069156      -0.00000124
O        3.85190998       1.07345233       3.97684073      -0.00048995       0.00069183       0.00084692
O        2.29603024       3.27379832       6.67170327       0.00048751      -0.00068846      -0.00084504
O        2.29603073       3.27379817       3.97684093       0.00049022      -0.00068903       0.00084332
O        3.85190984       1.07345222       6.67170327      -0.00048891       0.00068933      -0.00084683
