9
Lattice="4.625442141489435 -1.3334359954733557e-07 2.670500133518573 1.5418140091732704 4.360908149824206 2.670499981569792 7.57745824191358e-08 -1.3251778248979513e-07 5.341000135791749" Properties=species:S:1:pos:R:3:forces:R:3 energy=-54.02296829223633 free_energy=-54.02296829223633 stress="-5.9609610616462305e-05 -1.1134781097155155e-08 6.461046098138468e-08 -1.1134781097155155e-08 -5.954807056696154e-05 4.990889479472571e-08 6.461046098138468e-08 4.990889479472571e-08 -5.962805880699307e-05" pbc="T T T"
Mn       1.54181451       1.09022694       2.67050074       0.00000186      -0.00000162       0.00000195
Mn       4.62544241       3.27068156       8.01149815       0.00000178       0.00000417      -0.00001063
Rh       0.00000002      -0.00000005      -0.00000058       0.00000543      -0.00000313       0.00000962
O        1.55916968       1.10249926       5.34099968      -0.00440329      -0.00311530      -0.00000436
O        4.60808672       3.25840844       5.34100165       0.00440294       0.00311059       0.00000766
O        3.84585689       1.10249865       4.02078066       0.00219947      -0.00311646      -0.00381339
O        2.32139912       3.25840871       6.66121968      -0.00220099       0.00311473       0.00381416
O        2.32139866       3.25840903       4.02078091      -0.00220487       0.00311691      -0.00381523
O        3.84585716       1.10249906       6.66121991       0.00219828      -0.00311053       0.00380999
