9
Lattice="5.33028851958848 -8.91200610948921e-08 3.0774438880373283 1.776762809383063 5.02544374261131 3.0774437952974827 7.924488738338657e-08 -5.754806191339858e-08 6.154887638818503" Properties=species:S:1:pos:R:3:forces:R:3 energy=-47.75499725341797 free_energy=-47.75499725341797 stress="0.00027256266912445426 5.432008176597947e-09 -2.7849335282326138e-08 5.432008176597947e-09 0.00027261520153842866 1.884633427096105e-08 -2.7849335282326138e-08 1.884633427096105e-08 0.0002725894737523049" pbc="T T T"
Mn       1.77676291       1.25636122       3.07744399      -0.00000038       0.00000050      -0.00000035
Mn       5.33028831       3.76908211       9.23233153       0.00000084      -0.00000042      -0.00000039
Rh      -0.00000004      -0.00000000      -0.00000012       0.00000010       0.00000205      -0.00000001
S        1.87864932       1.32840557       6.15488788       0.00326973       0.00231370       0.00000011
S        5.22840224       3.69703808       6.15488775      -0.00327188      -0.00231346       0.00000055
S        4.39096392       1.32840583       4.70440187      -0.00163475       0.00231308       0.00283182
S        2.71608763       3.69703815       7.60537334       0.00163618      -0.00231332      -0.00283337
S        2.71608741       3.69703795       4.70440172       0.00163567      -0.00231543       0.00283450
S        4.39096383       1.32840548       7.60537329      -0.00163540       0.00231373      -0.00283325
