9
Lattice="5.737516291102555 -6.20289322960512e-08 3.3125567614455766 1.9125052891709795 5.409382336099761 3.3125569047123813 -7.048888929791669e-08 1.2562211536528445e-07 6.625113644981486" Properties=species:S:1:pos:R:3:forces:R:3 energy=-43.43452835083008 free_energy=-43.43452835083008 stress="-8.518860340700485e-06 -4.335271253097517e-09 -3.1313507342645153e-09 -4.335271253097517e-09 -8.524558325007092e-06 9.379982124357866e-09 -3.1313507342645153e-09 9.379982124357866e-09 -8.565725693188142e-06" pbc="T T T"
Mn       1.91250712       1.35234780       3.31255753       0.00001668       0.00002225       0.00000352
Mn       5.73751597       4.05703599       9.93767023      -0.00000345      -0.00000787       0.00000026
Rh      -0.00000046      -0.00000055      -0.00000100       0.00000489       0.00000707       0.00001361
Se       1.99459539       1.41039234       6.62511303      -0.00297330      -0.00209954      -0.00000445
Se       5.65542657       3.99899023       6.62511360       0.00296579       0.00209312      -0.00000262
Se       4.74021787       1.41039220       5.03992710       0.00148193      -0.00209963      -0.00257969
Se       2.90980278       3.99898939       8.21030100      -0.00148378       0.00208564       0.00257368
Se       2.90980262       3.99898975       5.03992707      -0.00148661       0.00209323      -0.00257544
Se       4.74021820       1.41039245       8.21030070       0.00147790      -0.00209428       0.00257123
