9
Lattice="5.329467956067668 -3.5246334272204484e-08 3.0769694813452664 1.7764892745922447 5.024670740602159 3.0769695001664 2.691053018411886e-08 4.20796980876132e-08 6.153938916080118" Properties=species:S:1:pos:R:3:forces:R:3 energy=-47.75502014160156 free_energy=-47.75502014160156 stress="0.00022716204694006592 1.6353203236008085e-08 1.1963003920811843e-08 1.6353203236008085e-08 0.0002271907578688115 -6.649837125394242e-09 1.1963003920811843e-08 -6.649837125394242e-09 0.0002271664416184649" pbc="T T T"
Mn       1.77648835       1.25616864       3.07696991      -0.00000220       0.00000227       0.00000090
Mn       5.32946852       3.76850315       9.23090752       0.00000147      -0.00000002      -0.00000151
Rh      -0.00000020      -0.00000001       0.00000008       0.00000227      -0.00000005       0.00000029
S        1.87897793       1.32863827       6.15393839      -0.00223070      -0.00157815      -0.00000150
S        5.22697929       3.69603238       6.15393869       0.00222915       0.00157648      -0.00000060
S        4.38997956       1.32863752       4.70421285       0.00111517      -0.00157768      -0.00192875
S        2.71597816       3.69603217       7.60366606      -0.00111514       0.00157604       0.00193238
S        2.71597800       3.69603222       4.70421233      -0.00111505       0.00157717      -0.00193161
S        4.38997936       1.32863855       7.60366575       0.00111508      -0.00157592       0.00193071
