9
Lattice="5.7618152557841515 1.305149942652289e-08 3.3265855949695142 1.920605134268071 5.4322914879018445 3.3265855314004646 4.95185110470333e-08 -4.284101784270658e-08 6.653171104170347" Properties=species:S:1:pos:R:3:forces:R:3 energy=-45.14499282836914 free_energy=-45.14499282836914 stress="-9.308427979703993e-05 7.402493285013634e-09 3.1803941702435168e-09 7.402493285013634e-09 -9.308388689532876e-05 -3.1052562743383305e-09 3.1803941702435168e-09 -3.1052562743383305e-09 -9.309536835644394e-05" pbc="T T T"
Mn       1.92060474       1.35807642       3.32658513      -0.00000173       0.00003700      -0.00000400
Mn       5.76181520       4.07421924       9.97975336      -0.00000141       0.00000520      -0.00003054
Ru       0.00000024       0.00000025      -0.00000048      -0.00000103       0.00000023       0.00000030
Se       1.99493438       1.41063104       6.65317149       0.00037916       0.00026485       0.00000363
Se       5.68748736       4.02165865       6.65317290      -0.00036955      -0.00027924       0.00001477
Se       4.76434790       1.41063067       5.05424983      -0.00019006       0.00026097       0.00033207
Se       2.91807250       4.02165885       8.25209435       0.00019162      -0.00027872      -0.00031871
Se       2.91807138       4.02165907       5.05424904       0.00018255      -0.00027759       0.00032628
Se       4.76434812       1.41063162       8.25209334      -0.00018968       0.00026732      -0.00032334
