9
Lattice="5.85933460712904 -1.5618482426270247e-08 3.382888415062124 1.9531114965099 5.524233703033316 3.382888457453346 -3.291800223360813e-08 2.864182594442073e-08 6.765776887139941" Properties=species:S:1:pos:R:3:forces:R:3 energy=-48.524452209472656 free_energy=-48.524452209472656 stress="-7.710386125836521e-05 -5.794510826717669e-08 -2.9413959268254075e-08 -5.794510826717669e-08 -7.711433136137202e-05 2.7255142143189914e-08 -2.9413959268254075e-08 2.7255142143189914e-08 -7.706598989898339e-05" pbc="T T T"
Mn       1.95311036       1.38105932       3.38288830      -0.00001225       0.00000558      -0.00000004
Mn       5.85933402       4.14317568      10.14866670      -0.00000379       0.00000294       0.00001015
Re      -0.00000019      -0.00000009      -0.00000029       0.00000366       0.00000046       0.00000089
Se       2.01453238       1.42448910       6.76577683      -0.00123560      -0.00087714      -0.00000068
Se       5.79791429       4.09974423       6.76577622       0.00123766       0.00087029      -0.00000399
Se       4.85206891       1.42448980       5.12752463       0.00062592      -0.00087726      -0.00107506
Se       2.96037764       4.09974379       8.40402927      -0.00062060       0.00087622       0.00107571
Se       2.96037798       4.09974413       5.12752440      -0.00061709       0.00087622      -0.00107545
Se       4.85206890       1.42448890       8.40402895       0.00062208      -0.00087717       0.00106838
