9
Lattice="4.6254673797229096 -4.71918189957157e-08 2.6705148298920878 1.541822444117922 4.360932367469861 2.6705147801767404 5.74828449389228e-08 -2.0242057677800223e-08 5.341029560220933" Properties=species:S:1:pos:R:3:forces:R:3 energy=-54.022972106933594 free_energy=-54.022972106933594 stress="-0.0001739632134558633 -2.569593249290847e-08 6.080605174929588e-08 -2.569593249290847e-08 -0.00017408789426553994 8.200458978535607e-09 6.080605174929588e-08 8.200458978535607e-09 -0.0001740468287607655" pbc="T T T"
Mn       1.54182196       1.09023307       2.67051466      -0.00000445       0.00000084      -0.00000142
Mn       4.62546749       3.27069855       8.01154241       0.00000092      -0.00000420      -0.00001459
Rh       0.00000012       0.00000011      -0.00000001      -0.00000534      -0.00000165       0.00000059
O        1.55904235       1.10240939       5.34102951      -0.00175399      -0.00124016       0.00000171
O        4.60824749       3.25852305       5.34103075       0.00175750       0.00124469       0.00000723
O        3.84594629       1.10240962       4.02068556       0.00088102      -0.00124419      -0.00152159
O        2.32134389       3.25852251       6.66137420      -0.00087684       0.00124091       0.00152415
O        2.32134323       3.25852284       4.02068565      -0.00088146       0.00124180      -0.00151855
O        3.84594668       1.10241004       6.66137402       0.00088260      -0.00123796       0.00152260
