9
Lattice="5.737890045046785 -7.81088709029035e-09 3.3127722939132473 1.9126299757641925 5.409734606324012 3.3127723491434695 -6.0152197802042736e-09 6.338952298487074e-08 6.62554459824521" Properties=species:S:1:pos:R:3:forces:R:3 energy=-43.43452835083008 free_energy=-43.43452835083008 stress="-7.933742745080963e-05 8.790495442667634e-09 -7.066742746530963e-09 8.790495442667634e-09 -7.92880091466941e-05 -6.947313835325986e-10 -7.066742746530963e-09 -6.947313835325986e-10 -7.933769666124135e-05" pbc="T T T"
Mn       1.91263086       1.35243687       3.31277182       0.00000889       0.00002789      -0.00000713
Mn       5.73789016       4.05729928       9.93831880       0.00000021      -0.00001574       0.00001739
Rh       0.00000005      -0.00000043      -0.00000003      -0.00000280       0.00000550       0.00000346
Se       1.99414477       1.41007429       6.62554434       0.00402021       0.00285120       0.00000031
Se       5.65637547       3.99966005       6.62554384      -0.00401977      -0.00285482      -0.00000821
Se       4.74081734       1.41007436       5.03975235      -0.00201062       0.00285271       0.00347978
Se       2.90970177       3.99965980       8.21133707       0.00200555      -0.00285877      -0.00348622
Se       2.90970287       3.99966072       5.03975190       0.00201608      -0.00285546       0.00348301
Se       4.74081678       1.41007370       8.21133684      -0.00201770       0.00284745      -0.00348234
