9
Lattice="4.637168473102285 1.0944966783961946e-07 2.677270414412699 1.5457228109067542 4.371964918876026 2.677270616457834 -1.5907109282808887e-07 1.34973497019025e-07 5.354541104344629" Properties=species:S:1:pos:R:3:forces:R:3 energy=-66.10147094726562 free_energy=-66.10147094726562 stress="-2.4869035769370385e-05 1.6543614833608444e-07 6.079901737621185e-08 1.6543614833608444e-07 -2.471801417414099e-05 -1.127163340441939e-08 6.079901737621185e-08 -1.127163340441939e-08 -2.4715152903809212e-05" pbc="T T T"
Mn       1.54572269       1.09299088       2.67727152      -0.00000058      -0.00000250       0.00000736
Mn       4.63716832       3.27897394       8.03181284      -0.00000044      -0.00000079       0.00000882
Re      -0.00000018      -0.00000017       0.00000013      -0.00000301       0.00000158      -0.00000045
O        1.53839784       1.08781177       5.35454136      -0.00014222      -0.00010169      -0.00000370
O        4.64449278       3.28415360       5.35454064       0.00014567       0.00010812      -0.00000045
O        3.86796963       1.08781262       4.00956153       0.00006890      -0.00009704      -0.00012195
O        2.31492147       3.28415380       6.69951954      -0.00006956       0.00009727       0.00011468
O        2.31492201       3.28415274       4.00956161      -0.00007296       0.00009787      -0.00012660
O        3.86796944       1.08781158       6.69951923       0.00007439      -0.00010264       0.00011981
