9
Lattice="6.42968794673441 3.53631124165393e-08 3.712182028187994 2.143229352647308 6.061967933717756 3.712182021730002 -1.3171622922834675e-09 -8.840784126707803e-09 7.424364058657449" Properties=species:S:1:pos:R:3:forces:R:3 energy=-36.275325775146484 free_energy=-36.275325775146484 stress="-2.657123695826158e-05 -2.2163346713455212e-08 -3.457736097445263e-09 -2.2163346713455212e-08 -2.6564273866824806e-05 -4.235493622495312e-10 -3.457736097445263e-09 -4.235493622495312e-10 -2.6564621293800883e-05" pbc="T T T"
Mn       2.14322979       1.51549323       3.71218211       0.00000204       0.00000806       0.00000040
Mn       6.42968775       4.54647509      11.13654622      -0.00000061      -0.00000642       0.00000033
Sn      -0.00000004      -0.00000007       0.00000019       0.00000119       0.00000049      -0.00000183
Te       2.32151755       1.64156115       7.42436395       0.00088187       0.00062592      -0.00000035
Te       6.25139980       4.42040664       7.42436387      -0.00088264      -0.00062758      -0.00000063
Te       5.26892897       1.64156132       5.72267500      -0.00044204       0.00062665       0.00076348
Te       3.30398811       4.42040646       9.12605301       0.00043936      -0.00062478      -0.00076212
Te       3.30398816       4.42040657       5.72267496       0.00044099      -0.00062691       0.00076318
Te       5.26892911       1.64156145       9.12605313      -0.00044015       0.00062460      -0.00076249
