9
Lattice="5.796384258734409 -9.635767467504318e-08 3.3465437929486646 1.9321279895404224 5.464883734376562 3.3465438030941295 -1.0926420780463192e-07 -6.483583910261022e-08 6.693087775148436" Properties=species:S:1:pos:R:3:forces:R:3 energy=-39.0390625 free_energy=-39.0390625 stress="-4.4850192352896556e-05 3.095283318543807e-08 3.1933556243757266e-08 3.095283318543807e-08 -4.492737207328901e-05 2.9567525317020227e-08 3.1933556243757266e-08 2.9567525317020227e-08 -4.483081283979118e-05" pbc="T T T"
Mn       1.93212989       1.36622605       3.34654757       0.00001519       0.00004243       0.00003196
Mn       5.79638540       4.09866091      10.03962773       0.00000850      -0.00001633      -0.00003106
Sb      -0.00000011       0.00000023      -0.00000013      -0.00000204      -0.00000308       0.00000324
Se       2.19695173       1.55348093       6.69308682      -0.00059152      -0.00040516      -0.00001250
Se       5.53156064       3.91140191       6.69308962       0.00059676       0.00040498       0.00001348
Se       4.69790599       1.55347951       5.24915975       0.00027904      -0.00041682      -0.00051361
Se       3.03060449       3.91140293       8.13701550      -0.00029242       0.00040877       0.00051425
Se       3.03060215       3.91140097       5.24915939      -0.00031098       0.00039176      -0.00051713
Se       4.69790839       1.55348080       8.13701514       0.00029742      -0.00040647       0.00051115
