9
Lattice="5.513399607265987 3.902807460929116e-08 3.1831627072018565 1.837799865276637 5.1980829144008585 3.1831627775369813 -3.2824571653678205e-08 6.293210614672743e-08 6.3663254712575155" Properties=species:S:1:pos:R:3:forces:R:3 energy=-43.0056037902832 free_energy=-43.0056037902832 stress="-0.0001869911066023633 1.9732720346610222e-08 -2.5733937647487437e-08 1.9732720346610222e-08 -0.0001869715633802116 -3.5762726113830468e-09 -2.5733937647487437e-08 -3.5762726113830468e-09 -0.00018705081311054528" pbc="T T T"
Mn       1.83780026       1.29952218       3.18316221       0.00000123       0.00000528      -0.00000269
Mn       5.51339969       3.89856109       9.54948567       0.00000057      -0.00000521      -0.00001243
Sn       0.00000005       0.00000021       0.00000042      -0.00000063      -0.00000904      -0.00001044
S        1.99162272       1.40829061       6.36632572      -0.00035155      -0.00024618       0.00000013
S        5.35957610       3.78979240       6.36632674       0.00035661       0.00025001       0.00000452
S        4.51758855       1.40828968       4.90795899       0.00017217      -0.00024484      -0.00029707
S        2.83361188       3.78979224       7.82469238      -0.00017853       0.00025168       0.00031272
S        2.83361063       3.78979241       4.90795889      -0.00017782       0.00024381      -0.00030398
S        4.51758793       1.40829129       7.82469270       0.00017802      -0.00024557       0.00030936
