9
Lattice="5.887657432077942 -2.747202560911874e-08 3.399240577677454 1.9625524379057293 5.550936661062581 3.399240601151458 -1.7802878577899505e-09 2.749080150380543e-08 6.798481158438486" Properties=species:S:1:pos:R:3:forces:R:3 energy=-39.39259338378906 free_energy=-39.39259338378906 stress="-0.00011944473953917623 5.1502024867033924e-09 6.767032711962884e-09 5.1502024867033924e-09 -0.00011942594574065879 -2.373173124681216e-08 6.767032711962884e-09 -2.373173124681216e-08 -0.00011942214041482657" pbc="T T T"
Mn       1.96255300       1.38773334       3.39924023       0.00000548      -0.00000596      -0.00000191
Mn       5.88765736       4.16320239      10.19772138      -0.00000206      -0.00000141      -0.00000118
Sn      -0.00000007      -0.00000010      -0.00000006      -0.00000021       0.00000238       0.00000356
Se       2.13536674       1.50993235       6.79848111       0.00129268       0.00091536       0.00000016
Se       5.71484334       4.04100460       6.79848122      -0.00129598      -0.00091346      -0.00000006
Se       4.81997395       1.50993232       5.24852246      -0.00064801       0.00091496       0.00111876
Se       3.03023591       4.04100470       8.34843991       0.00065068      -0.00091564      -0.00112274
Se       3.03023573       4.04100478       5.24852258       0.00064790      -0.00091210       0.00112171
Se       4.81997350       1.50993224       8.34844054      -0.00065049       0.00091581      -0.00111827
