9
Lattice="4.455797485262965 -1.3430539538428438e-07 2.5725559089469616 1.4852656853522483 4.20096614094323 2.5725559374294638 -3.291041534458773e-08 1.1612657787087095e-08 5.145111874896452" Properties=species:S:1:pos:R:3:forces:R:3 energy=-59.698486328125 free_energy=-59.698486328125 stress="1.1966545571340248e-05 -8.909067616968969e-08 2.296662948708672e-08 -8.909067616968969e-08 1.2006155884591863e-05 -8.990187438939756e-08 2.296662948708672e-08 -8.990187438939756e-08 1.2289396181586199e-05" pbc="T T T"
Mn       1.48526575       1.05024116       2.57255591      -0.00000094      -0.00000272      -0.00000004
Mn       4.45579734       3.15072415       7.71766752      -0.00000023      -0.00000157      -0.00000025
Si       0.00000002      -0.00000007      -0.00000011      -0.00000260      -0.00000061      -0.00000704
O        1.42889796       1.01038365       5.14511152       0.00021625       0.00015122      -0.00000392
O        4.51216511       3.19058280       5.14511221      -0.00021541      -0.00015044       0.00000225
O        3.74134884       1.01038366       3.81001839      -0.00010645       0.00015217       0.00018513
O        2.19971457       3.19058222       6.48020539       0.00010520      -0.00014639      -0.00018001
O        2.19971493       3.19058265       3.81001846       0.00010747      -0.00014871       0.00018156
O        3.74134801       1.01038382       6.48020556      -0.00010312       0.00014603      -0.00017715
