9
Lattice="5.650394534237646 8.973536112589769e-08 3.2622568612629963 1.883464896122121 5.327243406624065 3.2622569188140838 -2.0940298025834366e-08 5.567829773960904e-08 6.524513758795743" Properties=species:S:1:pos:R:3:forces:R:3 energy=-41.722415924072266 free_energy=-41.722415924072266 stress="2.322422369616106e-05 4.084060201137163e-09 1.8528364398306962e-09 4.084060201137163e-09 2.3162845536717214e-05 1.4455994179485288e-09 1.8528364398306962e-09 1.4455994179485288e-09 2.313484037586022e-05" pbc="T T T"
Mn       1.88346299       1.33181092       3.26225790      -0.00001410       0.00000234       0.00000706
Mn       5.65039497       3.99543211       9.78676890       0.00000259      -0.00000461      -0.00001483
Si       0.00000006      -0.00000001       0.00000002       0.00000209       0.00000275       0.00000069
Se       1.92425996       1.36065769       6.52451372      -0.00074979      -0.00052817      -0.00000125
Se       5.60959973       3.96658586       6.52451499       0.00074722       0.00052489       0.00000827
Se       4.68826496       1.36065735       4.92871510       0.00037833      -0.00052930      -0.00064433
Se       2.84559495       3.96658668       8.12031247      -0.00037188       0.00053006       0.00064488
Se       2.84559443       3.96658596       4.92871470      -0.00037662       0.00052667      -0.00064536
Se       4.68826561       1.36065767       8.12031235       0.00038213      -0.00052458       0.00064512
