9
Lattice="6.467320301792603 -2.6509052912318067e-08 3.7339091123189574 2.155773444682875 6.0974479081129385 3.7339090504068606 3.329342322931521e-08 -5.22845393067436e-08 7.467818166972022" Properties=species:S:1:pos:R:3:forces:R:3 energy=-35.9925422668457 free_energy=-35.9925422668457 stress="4.477292350202333e-06 4.091881500301042e-09 8.126990636014852e-09 4.091881500301042e-09 4.493938376981532e-06 3.995933306466526e-10 8.126990636014852e-09 3.995933306466526e-10 4.490333594731055e-06" pbc="T T T"
Mn       2.15577340       1.52436222       3.73390910      -0.00000007      -0.00000105       0.00000001
Mn       6.46732030       4.57308601      11.20172724       0.00000083       0.00000094      -0.00000054
Sb      -0.00000011      -0.00000019      -0.00000023      -0.00000005       0.00000065       0.00000009
Te       2.35213364       1.66320954       7.46781818      -0.00025482      -0.00017995       0.00000006
Te       6.27096030       4.43423823       7.46781824       0.00025363       0.00017990       0.00000121
Te       5.29125360       1.66320961       5.77091649       0.00012728      -0.00017979      -0.00022066
Te       3.33184014       4.43423837       9.16471997      -0.00012776       0.00018018       0.00021945
Te       3.33184028       4.43423823       5.77091655      -0.00012708       0.00017942      -0.00022002
Te       5.29125358       1.66320930       9.16471980       0.00012810      -0.00018027       0.00022048
