9
Lattice="5.583691719596588 1.6379003722654514e-07 3.223745888541066 1.8612306682113502 5.2643552984676365 3.223745991442585 1.1091052878985694e-07 2.0445372410897501e-07 6.447491584979413" Properties=species:S:1:pos:R:3:forces:R:3 energy=-42.29660415649414 free_energy=-42.29660415649414 stress="-0.00011686443031067029 -2.2048235237548397e-08 7.2262831274372274e-09 -2.2048235237548397e-08 -0.00011685342906275764 -9.757526342468736e-09 7.2262831274372274e-09 -9.757526342468736e-09 -0.00011678342707455158" pbc="T T T"
Mn       1.86123119       1.31609060       3.22374548       0.00000347       0.00001016      -0.00000266
Mn       5.58369165       3.94826656       9.67123789      -0.00000112      -0.00000143       0.00000123
Sb      -0.00000001       0.00000029       0.00000017       0.00000031      -0.00000355      -0.00000335
S        1.99753915       1.41247294       6.44749162       0.00098121       0.00069153       0.00000081
S        5.44738376       3.85188156       6.44749143      -0.00097716      -0.00069475      -0.00000099
S        4.58492266       1.41247371       4.95366525      -0.00048988       0.00069511       0.00084817
S        2.85999981       3.85188161       7.94131842       0.00048682      -0.00069505      -0.00084436
S        2.85999987       3.85188155       4.95366512       0.00048882      -0.00069606       0.00084633
S        4.58492192       1.41247390       7.94131849      -0.00049244       0.00069398      -0.00084543
