9
Lattice="5.795680519725338 -7.284013285344758e-08 3.3461378859064204 1.9318934215110428 5.464219792283558 3.3461379142942365 -3.833803541221824e-09 3.205690532398517e-08 6.692275778453142" Properties=species:S:1:pos:R:3:forces:R:3 energy=-39.03904342651367 free_energy=-39.03904342651367 stress="-0.00018084562907461077 -4.0587289085181055e-09 3.6440251705016635e-08 -4.0587289085181055e-09 -0.00018072125385515392 -2.145032063083363e-08 3.6440251705016635e-08 -2.145032063083363e-08 -0.00018080994777847081" pbc="T T T"
Mn       1.93189354       1.36605200       3.34613964      -0.00000090      -0.00002705       0.00001638
Mn       5.79568066       4.09816876      10.03841280       0.00000198       0.00003709      -0.00000772
Sb       0.00000004      -0.00000004      -0.00000004      -0.00000045       0.00000152      -0.00000103
Se       2.19719969       1.55365325       6.69227551      -0.00429156      -0.00304965      -0.00000568
Se       5.53037452       3.91056643       6.69227652       0.00429319       0.00304675       0.00000505
Se       4.69708002       1.55365295       5.24896851       0.00214026      -0.00305080      -0.00371781
Se       3.03049326       3.91056728       8.13558261      -0.00214364       0.00305112       0.00371640
Se       3.03049298       3.91056588       5.24896836      -0.00214912       0.00304368      -0.00372049
Se       4.69708105       1.55365252       8.13558241       0.00215028      -0.00305260       0.00371495
