9
Lattice="4.624220345803811 4.733523303199963e-08 2.669794746248947 1.5414067988573226 4.3597568679696765 2.669794794236047 -2.3937001165018365e-09 5.70793576144496e-08 5.339589496643936" Properties=species:S:1:pos:R:3:forces:R:3 energy=-52.08720397949219 free_energy=-52.08720397949219 stress="-3.761112020583823e-05 2.271633015027419e-08 8.199609169423638e-08 2.271633015027419e-08 -3.755657598958351e-05 6.300368671219303e-09 8.199609169423638e-08 6.300368671219303e-09 -3.7542875361396e-05" pbc="T T T"
Mn       1.54140672       1.08993894       2.66979433       0.00000116      -0.00000234      -0.00000168
Mn       4.62422035       3.26981805       8.00938349      -0.00000033       0.00000200      -0.00000557
Sn       0.00000002      -0.00000000       0.00000008       0.00000010       0.00000057       0.00000146
O        1.64440302       1.16276810       5.33958920      -0.00087631      -0.00062191      -0.00000141
O        4.52122400       3.19698873       5.33959002       0.00087619       0.00062144       0.00000304
O        3.80201903       1.16276829       4.09388958       0.00044036      -0.00061989      -0.00075710
O        2.36360841       3.19698827       6.58528988      -0.00043917       0.00061840       0.00075847
O        2.36360816       3.19698875       4.09388956      -0.00044000       0.00062138      -0.00075829
O        3.80201895       1.16276883       6.58528981       0.00043786      -0.00061959       0.00076085
