9
Lattice="6.243464190053508 -6.027136436106482e-08 3.604665595515258 2.0811547159302224 5.886394366636523 3.6046655214929144 3.449150864932451e-08 -6.626921729698835e-08 7.209331131289482" Properties=species:S:1:pos:R:3:forces:R:3 energy=-37.67323303222656 free_energy=-37.67323303222656 stress="0.00032297318102791905 -5.3447175574206085e-09 4.1649492743545125e-09 -5.3447175574206085e-09 0.0003229808935429901 -8.749601931867801e-09 4.1649492743545125e-09 -8.749601931867801e-09 0.0003229865978937596" pbc="T T T"
Mn       2.08115478       1.47159935       3.60466542       0.00000148       0.00000505      -0.00000036
Mn       6.24346383       4.41479541      10.81399643      -0.00000138      -0.00000238      -0.00000201
Si       0.00000004       0.00000001       0.00000004      -0.00000018      -0.00000021       0.00000003
Te       2.13708120       1.51114450       7.20933098       0.00151856       0.00107494       0.00000014
Te       6.18753789       4.37524965       7.20933120      -0.00151900      -0.00107506       0.00000093
Te       5.17492360       1.51114444       5.45543208      -0.00075983       0.00107453       0.00131561
Te       3.14969539       4.37524919       8.96323069       0.00076032      -0.00107725      -0.00131331
Te       3.14969540       4.37524950       5.45543181       0.00075889      -0.00107512       0.00131431
Te       5.17492364       1.51114486       8.96323034      -0.00075884       0.00107551      -0.00131543
