9
Lattice="4.508730085338148 -2.1856381230621134e-08 2.6031165549131505 1.5029100004860614 4.250871756716588 2.6031165676499524 -1.1579197339486786e-07 -6.627795804303232e-08 5.206233310383909" Properties=species:S:1:pos:R:3:forces:R:3 energy=-53.812469482421875 free_energy=-53.812469482421875 stress="-0.0002619180886540562 -4.5796024750188735e-08 4.3312525122018997e-08 -4.5796024750188735e-08 -0.000262105226283893 -3.165171946761802e-08 4.3312525122018997e-08 -3.165171946761802e-08 -0.0002619117731228471" pbc="T T T"
Mn       1.50291011       1.06271802       2.60311664      -0.00000122       0.00000074       0.00000026
Mn       4.50872972       3.18815389       7.80935015       0.00000005       0.00000068       0.00000083
Se       0.00000004       0.00000015       0.00000019      -0.00000067      -0.00000111       0.00000024
O        1.47400850       1.04228130       5.20623335       0.00269055       0.00190270      -0.00000019
O        4.53763134       3.20858984       5.20623298      -0.00268507      -0.00190294      -0.00000149
O        3.77172571       1.04228160       3.87964545      -0.00134659       0.00190079       0.00232923
O        2.23991454       3.20859010       6.53282065       0.00134337      -0.00189984      -0.00232780
O        2.23991449       3.20858997       3.87964558       0.00134289      -0.00190067       0.00232923
O        3.77172569       1.04228161       6.53282077      -0.00134313       0.00189900      -0.00232899
