9
Lattice="5.458021914855355 8.95315529239689e-08 3.1511904516932816 1.8193406860235701 5.145872946366379 3.1511905152122663 3.4574860904680036e-08 1.0224264054353423e-07 6.302380843501214" Properties=species:S:1:pos:R:3:forces:R:3 energy=-41.63140869140625 free_energy=-41.63140869140625 stress="4.689398338086903e-05 -2.0494109520541315e-08 -6.686444287140603e-09 -2.0494109520541315e-08 4.693342270911671e-05 -4.0509156917778455e-08 -6.686444287140603e-09 -4.0509156917778455e-08 4.6944114728830755e-05" pbc="T T T"
Mn       1.81934028       1.28646743       3.15119096      -0.00000273      -0.00000375       0.00000355
Mn       5.45802256       3.85940534       9.45357308       0.00000415       0.00000251       0.00000874
Se       0.00000046      -0.00000091       0.00000019      -0.00001237       0.00003327       0.00000437
S        1.81660953       1.28453717       6.30238109      -0.00215808      -0.00152446      -0.00000026
S        5.46075373       3.86133588       6.30238039       0.00214729       0.00152016      -0.00000334
S        4.54971725       1.28453761       4.72442048       0.00108263      -0.00152785      -0.00187618
S        2.72764434       3.86133753       7.88034081      -0.00107256       0.00151908       0.00184646
S        2.72764563       3.86133602       4.72442003      -0.00107045       0.00151698      -0.00185677
S        4.54971680       1.28453642       7.88034021       0.00108224      -0.00153558       0.00187373
