9
Lattice="6.467276960988331 6.714135275632951e-08 3.7338839400264567 2.1557590911857 6.097406954134631 3.7338838692061653 6.138050209214529e-08 -4.333421807137599e-08 7.4677677737387915" Properties=species:S:1:pos:R:3:forces:R:3 energy=-35.9925422668457 free_energy=-35.9925422668457 stress="-1.0489663964108331e-06 2.3218065692276468e-08 -8.67002203364109e-09 2.3218065692276468e-08 -1.0677021009541932e-06 1.7284653708316e-08 -8.67002203364109e-09 1.7284653708316e-08 -1.0713027904785122e-06" pbc="T T T"
Mn       2.15575969       1.52435185       3.73388364       0.00000335      -0.00000002      -0.00000108
Mn       6.46727712       4.57305469      11.20165091      -0.00000083      -0.00000257      -0.00000539
Sb      -0.00000002       0.00000030      -0.00000011      -0.00000035      -0.00000227       0.00000130
Te       2.35210081       1.66318647       7.46776780      -0.00009395      -0.00006522       0.00000024
Te       6.27093513       4.43422049       7.46776797       0.00009410       0.00006654       0.00000221
Te       5.29122646       1.66318618       5.77086265       0.00004561      -0.00006578      -0.00008029
Te       3.33180969       4.43422042       9.16467330      -0.00004610       0.00006589       0.00008135
Te       3.33180927       4.43422077       5.77086282      -0.00004678       0.00006568      -0.00008015
Te       5.29122634       1.66318676       9.16467333       0.00004510      -0.00006230       0.00008179
