9
Lattice="4.645131823987093 1.4680919357323631e-08 2.6818682635609417 1.548377312628865 4.379472194338132 2.6818682217748835 1.0144828042149595e-07 2.055752824244643e-08 5.3637363514082725" Properties=species:S:1:pos:R:3:forces:R:3 energy=-54.6359748840332 free_energy=-54.6359748840332 stress="-8.399050420848653e-05 -7.118332234767877e-08 -3.828548855722147e-08 -7.118332234767877e-08 -8.395950135309249e-05 -8.987878885591272e-08 -3.828548855722147e-08 -8.987878885591272e-08 -8.363401866517961e-05" pbc="T T T"
Mn       1.54837785       1.09486809       2.68186742       0.00000006       0.00000102      -0.00000184
Mn       4.64513153       3.28460380       8.04560487       0.00000085      -0.00000196       0.00000165
Sb      -0.00000000       0.00000014       0.00000049       0.00000233      -0.00000503      -0.00002541
O        1.60057001       1.13177397       5.36373699      -0.00592613      -0.00419044       0.00000505
O        4.59293916       3.24769840       5.36373606       0.00592530       0.00419182      -0.00000208
O        3.84484668       1.13177390       4.06800269       0.00295913      -0.00418818      -0.00512946
O        2.34866266       3.24769846       6.65947014      -0.00296557       0.00419933       0.00514185
O        2.34866222       3.24769790       4.06800280      -0.00296402       0.00419080      -0.00513482
O        3.84484681       1.13177438       6.65946988       0.00296754      -0.00419676       0.00514495
