9
Lattice="4.40475673943979 -1.4678675778267126e-09 2.5430875803080246 1.4682523103383223 4.152844426422607 2.543087467305036 1.2438826761846394e-07 -5.044403537837114e-08 5.086174945169276" Properties=species:S:1:pos:R:3:forces:R:3 energy=-56.97957992553711 free_energy=-56.97957992553711 stress="-0.0004413448623381555 -2.3527504389164733e-09 -1.1944581501666107e-07 -2.3527504389164733e-09 -0.0004413626156747341 -6.403714536418192e-08 -1.1944581501666107e-07 -6.403714536418192e-08 -0.0004413350543472916" pbc="T T T"
Mn       1.46825220       1.03821111       2.54308768      -0.00000048       0.00000159      -0.00000086
Mn       4.40475704       3.11463326       7.62926241       0.00000115       0.00000034       0.00000093
S        0.00000004      -0.00000013      -0.00000006       0.00000266       0.00000243       0.00000189
O        1.33889062       0.94673862       5.08617498       0.00772786       0.00545967      -0.00000004
O        4.53411846       3.20610555       5.08617511      -0.00773406      -0.00546157       0.00000017
O        3.73531165       0.94673873       3.70260077      -0.00386477       0.00546157       0.00668848
O        2.13769764       3.20610564       6.46974940       0.00386786      -0.00546491      -0.00669372
O        2.13769752       3.20610571       3.70260077       0.00386608      -0.00546193       0.00669360
O        3.73531166       0.94673851       6.46974918      -0.00386488       0.00546157      -0.00668919
