9
Lattice="4.645654649380108 -1.6124350953306007e-07 2.682169975841995 1.5485514652736336 4.3799652087445144 2.682169858924893 -1.2344792317920832e-07 -2.304844839595814e-07 5.364340165502046" Properties=species:S:1:pos:R:3:forces:R:3 energy=-54.635986328125 free_energy=-54.635986328125 stress="-3.41645791195333e-05 -5.16445055609438e-08 1.3346428318072867e-07 -5.16445055609438e-08 -3.440189902903512e-05 -6.4154676238104e-08 1.3346428318072867e-07 -6.4154676238104e-08 -3.4215259802294895e-05" pbc="T T T"
Mn       1.54855109       1.09499164       2.68216999      -0.00000039       0.00000432       0.00000011
Mn       4.64565451       3.28497349       8.04650918      -0.00000116      -0.00000144      -0.00000526
Sb      -0.00000002      -0.00000005      -0.00000000      -0.00000664      -0.00000525      -0.00000824
O        1.60037190       1.13163372       5.36434028      -0.00011396      -0.00007826       0.00000134
O        4.59383412       3.24833084       5.36434028       0.00011957       0.00008428       0.00000285
O        3.84546835       1.13163378       4.06813309       0.00005794      -0.00008267      -0.00009978
O        2.34873758       3.24833081       6.66054750      -0.00005859       0.00008208       0.00010264
O        2.34873758       3.24833066       4.06813268      -0.00006223       0.00008416      -0.00010240
O        3.84546882       1.13163405       6.66054661       0.00006485      -0.00008732       0.00010896
