9
Lattice="6.267833931335822 1.009726086996678e-07 3.6187357132782183 2.089278031299762 5.909370585031583 3.618735784309757 -9.285318524034332e-09 8.042982086628174e-08 7.237471442639067" Properties=species:S:1:pos:R:3:forces:R:3 energy=-42.39870071411133 free_energy=-42.39870071411133 stress="-0.00021817244123667479 -2.2479859751456388e-08 -3.738832354827082e-09 -2.2479859751456388e-08 -0.0002181731688324362 7.6758235323382e-09 -3.738832354827082e-09 7.6758235323382e-09 -0.000218161367229186" pbc="T T T"
Mn       2.08927738       1.47734240       3.61873650      -0.00000531      -0.00000250       0.00000415
Mn       6.26783489       4.43202768      10.85620753       0.00000595      -0.00000047       0.00000294
Ti      -0.00000015      -0.00000011      -0.00000033       0.00000177       0.00000067       0.00000123
Te       2.18868020       1.54763129       7.23747160      -0.00528240      -0.00373390      -0.00000147
Te       6.16843158       4.36174009       7.23747176       0.00527968       0.00373384      -0.00000071
Te       5.17349371       1.54763104       5.51418857       0.00264200      -0.00373537      -0.00457536
Te       3.18361778       4.36174027       8.96075378      -0.00264258       0.00373768       0.00457266
Te       3.18361813       4.36173967       5.51418863      -0.00264176       0.00373510      -0.00457525
Te       5.17349426       1.54763073       8.96075376       0.00264266      -0.00373499       0.00457171
