9
Lattice="5.775966395958046 -2.456149897587411e-08 3.3347558555560703 1.9253221157230376 5.44563325671402 3.3347558436155493 6.419031563400142e-08 3.076534412554451e-08 6.669511599931262" Properties=species:S:1:pos:R:3:forces:R:3 energy=-45.824073791503906 free_energy=-45.824073791503906 stress="-0.00019928679103031754 -3.39163968021694e-08 -9.169766279626401e-09 -3.39163968021694e-08 -0.00019927896209992468 7.3760775265441225e-09 -9.169766279626401e-09 7.3760775265441225e-09 -0.00019929252448491752" pbc="T T T"
Mn       1.92532349       1.36140742       3.33475687       0.00001032      -0.00000668       0.00000988
Mn       5.77596703       4.08422481      10.00426766       0.00000501      -0.00000274      -0.00000018
Ti      -0.00000014       0.00000003      -0.00000038       0.00000232      -0.00000057       0.00000061
Se       2.00404255       1.41707211       6.66951132       0.00000499       0.00000480      -0.00000309
Se       5.69724552       4.02856163       6.66951186      -0.00000961      -0.00000038      -0.00000019
Se       4.77394450       1.41707237       5.07030746      -0.00000643       0.00000369      -0.00000013
Se       2.92734355       4.02856158       8.26871507      -0.00000006       0.00000213      -0.00000583
Se       2.92734305       4.02856086       5.07030771      -0.00000160      -0.00000400       0.00000214
Se       4.77394480       1.41707224       8.26871567      -0.00000494       0.00000371      -0.00000333
