9
Lattice="5.410641343499092 9.378735365117778e-08 3.123835207340534 1.8035471520870694 5.101201735576118 3.1238352953913444 1.180506866194928e-08 1.1618728045466999e-07 6.247670394234107" Properties=species:S:1:pos:R:3:forces:R:3 energy=-50.664459228515625 free_energy=-50.664459228515625 stress="2.584099092928227e-05 6.818467568336928e-08 1.0765769609122344e-08 6.818467568336928e-08 2.5801196898100898e-05 -2.758101835809157e-08 1.0765769609122344e-08 -2.758101835809157e-08 2.580376894911751e-05" pbc="T T T"
Mn       1.80354680       1.27530050       3.12383484      -0.00000220      -0.00000074      -0.00000114
Mn       5.41064151       3.82590110       9.37150511       0.00000139      -0.00000109      -0.00000315
Ti       0.00000001       0.00000002       0.00000010      -0.00000185      -0.00000060      -0.00000106
S        1.89101242       1.33714795       6.24767025      -0.00178820      -0.00126483       0.00000020
S        5.32317601       3.76405393       6.24767065       0.00179231       0.00126700       0.00000013
S        4.46513542       1.33714782       4.76150002       0.00089285      -0.00126246      -0.00154626
S        2.74905338       3.76405417       7.73384129      -0.00089294       0.00126278       0.00154802
S        2.74905311       3.76405428       4.76150029      -0.00089471       0.00126323      -0.00154537
S        4.46513537       1.33714807       7.73384111       0.00089325      -0.00126345       0.00154853
