9
Lattice="5.567854669317163 6.612844629199579e-08 3.214602283832214 1.8559516270629033 5.249423736261858 3.214602269495436 9.385119721574622e-08 4.880389895067208e-08 6.429204405109359" Properties=species:S:1:pos:R:3:forces:R:3 energy=-38.91209411621094 free_energy=-38.91209411621094 stress="-0.00017483587726019323 5.0441389731759045e-08 -1.9167378795259538e-08 5.0441389731759045e-08 -0.00017478849622420967 1.0458300003790555e-08 -1.9167378795259538e-08 1.0458300003790555e-08 -0.00017485862190369517" pbc="T T T"
Mn       1.85595181       1.31235541       3.21460261       0.00000008      -0.00000395       0.00000244
Mn       5.56785502       3.93706840       9.64380465      -0.00000021       0.00000236      -0.00001186
Tl       0.00000005       0.00000048      -0.00000019      -0.00000341      -0.00000737       0.00000332
S        2.04455740       1.44571993       6.42920396      -0.00429690      -0.00303970      -0.00000343
S        5.37924863       3.80370366       6.42920587       0.00430444       0.00304639       0.00000785
S        4.54557569       1.44571967       4.98524104       0.00214598      -0.00304499      -0.00372186
S        2.87823083       3.80370378       7.87316834      -0.00214568       0.00304344       0.00372404
S        2.87822962       3.80370347       4.98524099      -0.00215335       0.00304072      -0.00372204
S        4.54557651       1.44572069       7.87316857       0.00214927      -0.00303715       0.00372157
