9
Lattice="5.8746889688507045 -1.6073055836848477e-07 3.391753072587917 1.9582294448456659 5.53870953894376 3.391753176337265 -2.3717392457479787e-07 -4.064078065869003e-08 6.78350655597297" Properties=species:S:1:pos:R:3:forces:R:3 energy=-35.867454528808594 free_energy=-35.867454528808594 stress="0.00015832172357477248 1.0851657350485766e-07 8.563652187376647e-08 1.0851657350485766e-07 0.00015851820353418589 4.1935958705607845e-08 8.563652187376647e-08 4.1935958705607845e-08 0.00015853573859203607" pbc="T T T"
Mn       1.95822121       1.38468446       3.39173996      -0.00008663       0.00006784      -0.00012682
Mn       5.87470310       4.15403155      10.17525684       0.00013341      -0.00000861      -0.00002020
Tl      -0.00000022       0.00000043      -0.00000074      -0.00000215      -0.00000058      -0.00000827
Se       2.23100955       1.57756799       6.78351469      -0.00791366      -0.00554041       0.00006760
Se       5.60190961       3.96113861       6.78350798       0.00793296       0.00553154       0.00000944
Se       4.75919087       1.57756214       5.32387207       0.00401192      -0.00559535      -0.00678466
Se       3.07372950       3.96114112       8.24314474      -0.00400832       0.00554404       0.00682709
Se       3.07372824       3.96114768       5.32387103      -0.00400633       0.00559361      -0.00679086
Se       4.75918078       1.57756344       8.24314466       0.00393879      -0.00559211       0.00682652
