9
Lattice="5.82090991589558 7.472335390213331e-08 3.360703621945115 1.940303351709984 5.488006269318777 3.3607036635807956 -8.433076459710541e-08 -8.637751408033692e-09 6.721407389955363" Properties=species:S:1:pos:R:3:forces:R:3 energy=-49.1268310546875 free_energy=-49.1268310546875 stress="4.607673690770753e-05 3.935794623544098e-08 2.152217959405789e-09 3.935794623544098e-08 4.606631409842521e-05 1.2639954860560465e-08 2.152217959405789e-09 1.2639954860560465e-08 4.6027467760723084e-05" pbc="T T T"
Mn       1.94030373       1.37200156       3.36070304       0.00000430      -0.00000047      -0.00000726
Mn       5.82091054       4.11600613      10.08211098       0.00000435       0.00001076       0.00000182
Ta       0.00000012      -0.00000019      -0.00000059      -0.00000490      -0.00000035       0.00000757
Se       2.04534125       1.44627419       6.72140764      -0.00089204      -0.00063426       0.00000082
Se       5.71587155       4.04173192       6.72140796       0.00089465       0.00063685       0.00000186
Se       4.79823976       1.44627447       5.13202125       0.00044859      -0.00063518      -0.00077304
Se       2.96297318       4.04173157       8.31079370      -0.00044908       0.00062589       0.00077027
Se       2.96297372       4.04173188       5.13202092      -0.00044672       0.00063086      -0.00077184
Se       4.79823889       1.44627379       8.31079379       0.00044078      -0.00063406       0.00076968
