9
Lattice="5.4625310122815645 1.4454791214546736e-08 3.1537939039790635 1.820843662302633 5.15012394412965 3.15379394223313 -2.8514935081339373e-08 2.668840242863136e-08 6.307587857347389" Properties=species:S:1:pos:R:3:forces:R:3 energy=-54.88298416137695 free_energy=-54.88298416137695 stress="-5.293652066029608e-06 -4.443329260084283e-08 1.6891529286411355e-09 -4.443329260084283e-08 -5.288534794090083e-06 1.4852349572436196e-08 1.6891529286411355e-09 1.4852349572436196e-08 -5.265630534267984e-06" pbc="T T T"
Mn       1.82084345       1.28753094       3.15379388      -0.00000015      -0.00000087      -0.00000142
Mn       5.46253154       3.86259405       9.46138258       0.00000206       0.00000324       0.00000345
Ta      -0.00000014      -0.00000011       0.00000017       0.00000033      -0.00000245      -0.00000250
S        1.93944715       1.37139628       6.30758789      -0.00201645      -0.00142643      -0.00000023
S        5.34392742       3.77872745       6.30758749       0.00201705       0.00142507      -0.00000080
S        4.49280749       1.37139629       4.83340476       0.00100839      -0.00142740      -0.00174671
S        2.79056729       3.77872747       7.78177069      -0.00101030       0.00143036       0.00175095
S        2.79056749       3.77872773       4.83340478      -0.00101005       0.00142784      -0.00174981
S        4.49280686       1.37139588       7.78177052       0.00100923      -0.00142963       0.00174731
