9
Lattice="5.462535502138232 1.2676502621198811e-08 3.1537963666766315 1.8208451621798705 5.150127913691925 3.1537963963831905 4.025842627982085e-08 6.484990465159984e-08 6.307592663623635" Properties=species:S:1:pos:R:3:forces:R:3 energy=-54.88298797607422 free_energy=-54.88298797607422 stress="-8.542667274014093e-06 -2.4952489852125836e-08 -3.360665346008318e-08 -2.4952489852125836e-08 -8.480002179567236e-06 -1.238466040831554e-08 -3.360665346008318e-08 -1.238466040831554e-08 -8.461583092866931e-06" pbc="T T T"
Mn       1.82084522       1.28753133       3.15379658      -0.00000009      -0.00000255       0.00000182
Mn       5.46253553       3.86259666       9.46138870      -0.00000045       0.00000185      -0.00000230
Ta      -0.00000013       0.00000005       0.00000022       0.00000023      -0.00000028      -0.00000569
S        1.93943846       1.37138994       6.30759269      -0.00174353      -0.00123361       0.00000035
S        5.34394240       3.77873782       6.30759278       0.00174534       0.00123394       0.00000055
S        4.49281611       1.37139006       4.83339903       0.00087143      -0.00123475      -0.00151205
S        2.79056461       3.77873802       7.78178614      -0.00087428       0.00123766       0.00151533
S        2.79056425       3.77873797       4.83339953      -0.00087276       0.00123419      -0.00151104
S        4.49281631       1.37139003       7.78178610       0.00087442      -0.00123625       0.00151289
