9
Lattice="4.628970326466913 8.35626587276725e-08 2.672537306454542 1.5429901570612912 4.364235292172474 2.672537359359399 -3.476501009830905e-08 4.0212401124266836e-08 5.345074673123818" Properties=species:S:1:pos:R:3:forces:R:3 energy=-66.47876739501953 free_energy=-66.47876739501953 stress="-0.00011130804341519251 1.157828251052706e-07 -4.832923750086593e-08 1.157828251052706e-07 -0.00011113778600702062 2.4807537357673937e-08 -4.832923750086593e-08 2.4807537357673937e-08 -0.00011121624265797436" pbc="T T T"
Mn       1.54299018       1.09105893       2.67253691      -0.00000031      -0.00000117      -0.00000329
Mn       4.62897062       3.27317595       8.01761203       0.00000255      -0.00000422       0.00000119
Ta       0.00000003      -0.00000023      -0.00000005       0.00000034       0.00000561      -0.00000471
O        1.58976483       1.12413390       5.34507453      -0.00110328      -0.00077868      -0.00000011
O        4.58219545       3.24010179       5.34507481       0.00110114       0.00078225       0.00000012
O        3.83408815       1.12413382       4.04931423       0.00054955      -0.00077689      -0.00095320
O        2.33787238       3.24010150       6.64083550      -0.00055158       0.00077713       0.00095195
O        2.33787245       3.24010199       4.04931399      -0.00054818       0.00077569      -0.00094825
O        3.83408775       1.12413396       6.64083551       0.00054982      -0.00077999       0.00095606
