9
Lattice="5.7863087885584426 -5.154446054792097e-07 3.3407263865155747 1.9287691206728281 5.455383547258107 3.340726368411264 -3.9465476912539295e-07 -3.012362565417484e-07 6.681453456593373" Properties=species:S:1:pos:R:3:forces:R:3 energy=-37.447662353515625 free_energy=-37.447662353515625 stress="-8.494945359416306e-05 2.1707805331061536e-07 1.9679063711919298e-07 2.1707805331061536e-07 -8.456475188722834e-05 1.454155551527947e-07 1.9679063711919298e-07 1.454155551527947e-07 -8.449111192021519e-05" pbc="T T T"
Mn       1.92877761       1.36384656       3.34072770       0.00007547       0.00000509       0.00001770
Mn       5.78629548       4.09154381      10.02216414      -0.00011184       0.00005470      -0.00013069
Te      -0.00000011      -0.00000002       0.00000043      -0.00000053      -0.00000205       0.00000175
Se       2.27322437       1.60740317       6.68145193      -0.00078657      -0.00061919      -0.00000847
Se       5.44185648       3.84797461       6.68145982       0.00081134       0.00059178       0.00005661
Se       4.64969378       1.60740565       5.30939321       0.00037096      -0.00060394      -0.00070515
Se       3.06538657       3.84797320       8.05351815      -0.00035031       0.00057095       0.00074673
Se       3.06537987       3.84797247       5.30939220      -0.00040190       0.00056252      -0.00071579
Se       4.64969592       1.60741143       8.05351726       0.00039344      -0.00055988       0.00073747
