9
Lattice="6.346852551997399 -7.737478158710269e-08 3.6643570835728436 2.1156175182158914 5.983869758643325 3.664356955690264 9.43383604330872e-08 -8.99163183398058e-08 7.328714003746897" Properties=species:S:1:pos:R:3:forces:R:3 energy=-45.4052734375 free_energy=-45.4052734375 stress="-2.1835803636349738e-05 4.9058068718466075e-09 4.199234737711777e-09 4.9058068718466075e-09 -2.1825522708240896e-05 -1.0224755264687246e-08 4.199234737711777e-09 -1.0224755264687246e-08 -2.183825745305512e-05" pbc="T T T"
Mn       2.11561674       1.49596669       3.66435743      -0.00000360      -0.00000388       0.00000114
Mn       6.34685383       4.48790214      10.99307019       0.00000572       0.00000047      -0.00000298
Ta      -0.00000014       0.00000007      -0.00000030       0.00000309       0.00000136       0.00000467
Te       2.22850336       1.57579016       7.32871392       0.00039281       0.00027951      -0.00000030
Te       6.23396674       4.40807981       7.32871442      -0.00039589      -0.00028015       0.00000091
Te       5.23260061       1.57578953       5.59429790      -0.00019779       0.00027839       0.00034252
Te       3.22986924       4.40808031       9.06313011       0.00019796      -0.00027999      -0.00034416
Te       3.22986922       4.40807991       5.59429823       0.00019537      -0.00027590       0.00034246
Te       5.23260107       1.57578972       9.06313026      -0.00019757       0.00028015      -0.00034430
