9
Lattice="4.628949174989001 -4.3505770769614704e-08 2.6725251517678594 1.5429830627962784 4.36421506645443 2.672525072986853 3.543129469704716e-08 -7.143292844452229e-08 5.345050242166887" Properties=species:S:1:pos:R:3:forces:R:3 energy=-66.47877502441406 free_energy=-66.47877502441406 stress="-0.0001229442423209548 5.988943740931063e-08 1.3722079472699988e-08 5.988943740931063e-08 -0.0001231422502314672 -8.404275497753133e-09 1.3722079472699988e-08 -8.404275497753133e-09 -0.00012310585589148104" pbc="T T T"
Mn       1.54298275       1.09105381       2.67252516      -0.00000077       0.00000017       0.00000109
Mn       4.62894951       3.27316089       8.01757575      -0.00000035      -0.00000159       0.00000459
Ta       0.00000003      -0.00000020      -0.00000019       0.00000191       0.00000696       0.00000325
O        1.58976067       1.12413082       5.34505028      -0.00103986      -0.00073308       0.00000082
O        4.58217178       3.24008400       5.34504997       0.00103509       0.00073010      -0.00000052
O        3.83406874       1.12413080       4.04929799       0.00051776      -0.00073147      -0.00089395
O        2.33786317       3.24008479       6.64080242      -0.00051329       0.00072855       0.00088727
O        2.33786365       3.24008443       4.04929803      -0.00051630       0.00073016      -0.00089240
O        3.83406894       1.12413015       6.64080236       0.00051588      -0.00072974       0.00089043
