9
Lattice="6.44880845411559 5.1658956705759577e-08 3.7232213108730976 2.1496028635810203 6.079994909752112 3.723221316349916 7.065323790862299e-08 5.66670920884447e-08 7.446442499371134" Properties=species:S:1:pos:R:3:forces:R:3 energy=-33.48658752441406 free_energy=-33.48658752441406 stress="-6.061010935809463e-05 1.6499555499649432e-08 -1.1543356270848903e-09 1.6499555499649432e-08 -6.059740189812146e-05 1.4927523106500473e-10 -1.1543356270848903e-09 1.4927523106500473e-10 -6.062460670364089e-05" pbc="T T T"
Mn       2.14960312       1.51999837       3.72322121       0.00000234      -0.00000397       0.00000042
Mn       6.44880815       4.55999576      11.16966334      -0.00000214      -0.00000180      -0.00000144
Tl       0.00000031      -0.00000015       0.00000002      -0.00000161       0.00000030      -0.00000073
Te       2.41399856       1.70695512       7.44644221       0.00454763       0.00321695      -0.00000136
Te       6.18441268       4.37304023       7.44644284      -0.00454783      -0.00321396       0.00000056
Te       5.24180873       1.70695484       5.81380518      -0.00227518       0.00321709       0.00393720
Te       3.35660274       4.37304015       9.07908000       0.00227569      -0.00321490      -0.00393774
Te       3.35660220       4.37304071       5.81380570       0.00227548      -0.00321564       0.00394024
Te       5.24180904       1.70695500       9.07908000      -0.00227427       0.00321607      -0.00393720
