9
Lattice="5.64229472534456 -1.2621857270964076e-08 3.2575804214409225 1.880764863749148 5.319606482832149 3.257580478250605 -8.19440818908473e-08 1.1634132313012123e-08 6.515160984813228" Properties=species:S:1:pos:R:3:forces:R:3 energy=-40.178550720214844 free_energy=-40.178550720214844 stress="-9.535094432067126e-05 1.6877230279987998e-08 -2.0676113265949425e-08 1.6877230279987998e-08 -9.530993702355772e-05 2.292804168746443e-08 -2.0676113265949425e-08 2.292804168746443e-08 -9.531688556307927e-05" pbc="T T T"
Mn       1.88076472       1.32990240       3.25758094       0.00000062       0.00000472       0.00000258
Mn       5.64229541       3.98970598       9.77274392       0.00000592       0.00000918       0.00001896
Te      -0.00000001       0.00000017       0.00000027       0.00000331       0.00000025      -0.00000054
S        1.94186474       1.37310542       6.51516092       0.00154704       0.00109121      -0.00000029
S        5.58119522       3.94650055       6.51515946      -0.00154436      -0.00109652      -0.00001092
S        4.67136199       1.37310570       4.93928428      -0.00077656       0.00109404       0.00133872
S        2.85169629       3.94650058       8.09103693       0.00076431      -0.00109327      -0.00134021
S        2.85169721       3.94650060       4.93928430       0.00077498      -0.00109622       0.00133723
S        4.67136237       1.37310455       8.09103647      -0.00077519       0.00108656      -0.00134557
