9
Lattice="6.346701539597672 -6.843129104677419e-08 3.6642698067473853 2.1155671354524754 5.983727545769227 3.664269771925815 3.512572014485993e-08 -1.78099155636521e-08 7.328539552655218" Properties=species:S:1:pos:R:3:forces:R:3 energy=-45.4052619934082 free_energy=-45.4052619934082 stress="-1.7862196273199515e-06 -1.7763390758318565e-08 -7.434959314878142e-09 -1.7763390758318565e-08 -1.762942929417477e-06 5.567285299434843e-09 -7.434959314878142e-09 5.567285299434843e-09 -1.7735974324750714e-06" pbc="T T T"
Mn       2.11556718       1.49593173       3.66426962       0.00000116      -0.00000199      -0.00000097
Mn       6.34670121       4.48779514      10.99280961      -0.00000293      -0.00000094       0.00000113
Ta      -0.00000047      -0.00000031      -0.00000003       0.00000086       0.00000064      -0.00000024
Te       2.22889062       1.57606364       7.32853954      -0.00654116      -0.00462614      -0.00000052
Te       6.23337821       4.40766408       7.32853945       0.00653834       0.00462466      -0.00000115
Te       5.23225661       1.57606380       5.59454536       0.00327050      -0.00462293      -0.00566557
Te       3.23001263       4.40766394       9.06253362      -0.00326990       0.00462609       0.00566597
Te       3.23001254       4.40766416       5.59454559      -0.00326827       0.00462493      -0.00566353
Te       5.23225633       1.57606365       9.06253375       0.00327140      -0.00462427       0.00566490
