9
Lattice="4.71885008434058 3.268297447151044e-08 2.724429484954793 1.5729500462759447 4.448974519155377 2.7244295068676085 5.8684089991680165e-08 6.833355931214461e-08 5.448858868265738" Properties=species:S:1:pos:R:3:forces:R:3 energy=-45.29234313964844 free_energy=-45.29234313964844 stress="-0.0002280301123391837 -3.5731553271745042e-09 -7.22707085287766e-08 -3.5731553271745042e-09 -0.00022793600510340184 9.935376965586329e-08 -7.22707085287766e-08 9.935376965586329e-08 -0.00022806414926890284" pbc="T T T"
Mn       1.57294973       1.11224400       2.72442903      -0.00000267       0.00000228      -0.00000469
Mn       4.71885006       3.33673140       8.17328865      -0.00000077       0.00000331      -0.00000024
Tl      -0.00000067       0.00000025      -0.00000120       0.00000705      -0.00000375       0.00002039
O        1.73782035       1.22882393       5.44885915      -0.00736800      -0.00521255       0.00000059
O        4.55398049       3.22015009       5.44885856       0.00736800       0.00520936      -0.00000067
O        3.84994051       1.22882433       4.22942616       0.00368756      -0.00521426      -0.00638232
O        2.44185987       3.22015032       6.66829268      -0.00368208       0.00520688       0.00637797
O        2.44186002       3.22015020       4.22942591      -0.00368784       0.00521371      -0.00638616
O        3.84994040       1.22882392       6.66829251       0.00367926      -0.00520495       0.00637516
