9
Lattice="4.634346948868356 -1.1951005548895269e-08 2.6756414907174926 1.5447822918326812 4.369304216924079 2.675641513561955 1.156311104592642e-09 2.8796264167815524e-08 5.351282979432194" Properties=species:S:1:pos:R:3:forces:R:3 energy=-54.40166091918945 free_energy=-54.40166091918945 stress="-0.00016892542771529406 -1.3872006832116313e-07 5.900459143504122e-08 -1.3872006832116313e-07 -0.00016889303515199572 4.326976821289463e-08 5.900459143504122e-08 4.326976821289463e-08 -0.0001690281933406368" pbc="T T T"
Mn       1.54478223       1.09232649       2.67564154       0.00000066       0.00000295      -0.00000004
Mn       4.63434750       3.27697829       8.02692412       0.00000241       0.00000128      -0.00000108
Te       0.00000011      -0.00000000       0.00000007       0.00000119       0.00000487       0.00000085
O        1.56268954       1.10498859       5.35128304      -0.00142694      -0.00100774      -0.00000074
O        4.61643988       3.26431584       5.35128321       0.00142336       0.00100583       0.00000097
O        3.85300204       1.10498826       4.02897075       0.00071418      -0.00101119      -0.00123680
O        2.32612704       3.26431572       6.67359543      -0.00071430       0.00100869       0.00123614
O        2.32612682       3.26431550       4.02897034      -0.00071430       0.00100642      -0.00123566
O        3.85300183       1.10498836       6.67359555       0.00071347      -0.00101072       0.00123644
