9
Lattice="5.820920776828007 2.188758578821733e-07 3.3607101245615327 1.9403071012074764 5.4880168529454325 3.3607101778393584 2.551644590004398e-08 8.329464174483699e-08 6.721420204927247" Properties=species:S:1:pos:R:3:forces:R:3 energy=-49.126827239990234 free_energy=-49.126827239990234 stress="4.658413672586903e-05 7.576609561965597e-08 9.55495593757405e-09 7.576609561965597e-08 4.647505556931719e-05 -7.24028392795617e-09 9.55495593757405e-09 -7.24028392795617e-09 4.6451110392808914e-05" pbc="T T T"
Mn       1.94030549       1.37200221       3.36071085      -0.00001370      -0.00002083       0.00000697
Mn       5.82092161       4.11601449      10.08213066       0.00000546       0.00001587       0.00000150
Ta      -0.00000004       0.00000003      -0.00000054       0.00000061      -0.00000044       0.00000590
Se       2.04533742       1.44627149       6.72142033      -0.00075914      -0.00054195      -0.00000138
Se       5.71589064       4.04174570       6.72142049       0.00075942       0.00054119       0.00000024
Se       4.79825256       1.44627119       5.13202384       0.00037871      -0.00053703      -0.00065123
Se       2.96297544       4.04174668       8.31081617      -0.00037463       0.00054097       0.00064556
Se       2.96297554       4.04174599       5.13202405      -0.00037781       0.00053998      -0.00065260
Se       4.79825297       1.44627089       8.31081627       0.00038091      -0.00053743       0.00064467
