9
Lattice="4.5339502634340665 1.0544440416589128e-07 2.6176775109678028 1.5113168262804266 4.274649588990132 2.61767755879234 4.4620204559927143e-08 9.012412389298201e-08 5.235354944651102" Properties=species:S:1:pos:R:3:forces:R:3 energy=-61.454002380371094 free_energy=-61.454002380371094 stress="-0.0004854564322158694 3.6108115608612934e-08 -5.7768897221421867e-08 3.6108115608612934e-08 -0.00048574546235613525 -5.561172855550467e-08 -5.7768897221421867e-08 -5.561172855550467e-08 -0.00048585166223347187" pbc="T T T"
Mn       1.51131628       1.06866297       2.61767745      -0.00000138       0.00000174       0.00000078
Mn       4.53395011       3.20598705       7.85303305      -0.00000119      -0.00000104       0.00000205
Ti       0.00000007      -0.00000003       0.00000017      -0.00000029       0.00000024      -0.00000052
O        1.53749474       1.08717269       5.23535502       0.00010884       0.00007617      -0.00000127
O        4.50777253       3.18747693       5.23535487      -0.00010735      -0.00007546      -0.00000135
O        3.76520351       1.08717305       3.94918669      -0.00005528       0.00008160       0.00009817
O        2.28006377       3.18747654       6.52152313       0.00005293      -0.00007921      -0.00009859
O        2.28006419       3.18747673       3.94918653       0.00005707      -0.00008315       0.00009793
O        3.76520323       1.08717319       6.52152315      -0.00005317       0.00007933      -0.00009674
