9
Lattice="4.505113352278065 5.611331008362935e-08 2.6010282915950667 1.5017044393235348 4.24746204869611 2.601028403035103 -5.24101574880806e-08 9.942607204220743e-08 5.202056673967184" Properties=species:S:1:pos:R:3:forces:R:3 energy=-59.49201583862305 free_energy=-59.49201583862305 stress="-8.869824341672938e-06 1.8878489882467875e-08 -4.985735913010103e-08 1.8878489882467875e-08 -8.8526194303995e-06 5.7834540712065063e-08 -4.985735913010103e-08 5.7834540712065063e-08 -9.005111678561661e-06" pbc="T T T"
Mn       1.50170397       1.06186546       2.60102841      -0.00000228       0.00000032       0.00000071
Mn       4.50511363       3.18559706       7.80308533       0.00000071       0.00000060       0.00000052
V       -0.00000010      -0.00000001       0.00000017      -0.00000385       0.00000142      -0.00000426
O        1.50485510       1.06409352       5.20205609       0.00021601       0.00015211      -0.00000099
O        4.50196257       3.18336869       5.20205629      -0.00021482      -0.00014907      -0.00000237
O        3.75268589       1.06409319       3.90427126      -0.00010753       0.00015211       0.00018764
O        2.25413185       3.18336836       6.49984249       0.00010771      -0.00015515      -0.00018907
O        2.25413214       3.18336907       3.90427122       0.00011367      -0.00015295       0.00019372
O        3.75268582       1.06409347       6.49984240      -0.00010926       0.00014997      -0.00018525
