9
Lattice="5.325087040147373 5.858143972773198e-08 3.074440676195782 1.7750289873768932 5.020540751740974 3.074440816901809 -1.2155455355833974e-07 8.637692999616272e-08 6.148881562930263" Properties=species:S:1:pos:R:3:forces:R:3 energy=-50.68191909790039 free_energy=-50.68191909790039 stress="-5.862135822098935e-06 -4.0066982620601266e-08 4.191961444632852e-09 -4.0066982620601266e-08 -5.902805241930764e-06 1.3480498495255233e-08 4.191961444632852e-09 1.3480498495255233e-08 -5.868861990165897e-06" pbc="T T T"
Mn       1.77502905       1.25513373       3.07444066       0.00000066      -0.00000630      -0.00000014
Mn       5.32508694       3.76540585       9.22332369       0.00000057      -0.00000010       0.00000702
V        0.00000012      -0.00000010      -0.00000008       0.00000108       0.00000147       0.00000023
S        1.83975500       1.30090342       6.14888177       0.00000721       0.00000542      -0.00000089
S        5.26036053       3.71963779       6.14888068      -0.00000900      -0.00000516      -0.00000328
S        4.40520968       1.30090395       4.66771543      -0.00000298       0.00000450       0.00000411
S        2.69490639       3.71963762       7.63004703       0.00000298      -0.00000122      -0.00000682
S        2.69490671       3.71963780       4.66771560       0.00000277      -0.00000370       0.00000614
S        4.40520930       1.30090360       7.63004730      -0.00000346       0.00000510      -0.00000641
