9
Lattice="6.1904600756539585 1.0558272161252957e-07 3.574063830444057 2.0634867504080447 5.836421879270006 3.574063901494503 -1.5270466201437726e-08 7.622086445223403e-08 7.148127687337305" Properties=species:S:1:pos:R:3:forces:R:3 energy=-42.33948516845703 free_energy=-42.33948516845703 stress="-1.3111433645462967e-06 2.008634147898647e-08 -3.697446260275683e-08 2.008634147898647e-08 -1.3172700619179523e-06 1.2957880102248964e-08 -3.697446260275683e-08 1.2957880102248964e-08 -1.3014844171266304e-06" pbc="T T T"
Mn       2.06348520       1.45910427       3.57406441      -0.00001044      -0.00000767       0.00000527
Mn       6.19045971       4.37731660      10.72219006      -0.00000322      -0.00000016      -0.00001066
V        0.00000000      -0.00000012       0.00000020      -0.00000035      -0.00000126      -0.00000101
Te       2.15261678       1.52212985       7.14812763       0.00072486       0.00051075      -0.00000130
Te       6.10132993       4.31429213       7.14812855      -0.00072065      -0.00050894       0.00000440
Te       5.11415193       1.52212992       5.43828508      -0.00036048       0.00050994       0.00062863
Te       3.13979593       4.31429260       8.85797042       0.00036478      -0.00050592      -0.00062547
Te       3.13979511       4.31429250       5.43828509       0.00036230      -0.00051081       0.00062983
Te       5.11415268       1.52213055       8.85797020      -0.00035678       0.00051409      -0.00062967
