9
Lattice="5.893418291931778 1.6700285342301985e-07 3.402566532335982 1.9644728319019105 5.556368077298636 3.4025666874015865 -2.834530830191147e-08 1.6987258074565712e-07 6.805133113767523" Properties=species:S:1:pos:R:3:forces:R:3 energy=-49.116416931152344 free_energy=-49.116416931152344 stress="4.006539711554069e-06 3.197445153091394e-08 -2.2956339051916075e-08 3.197445153091394e-08 3.990129243902629e-06 5.920910695067505e-08 -2.2956339051916075e-08 5.920910695067505e-08 3.932945219276007e-06" pbc="T T T"
Mn       1.96447269       1.38909259       3.40256583      -0.00000094       0.00000311      -0.00000739
Mn       5.89341842       4.16727735      10.20770103      -0.00000038       0.00000805       0.00001065
W       -0.00000020       0.00000042      -0.00000044       0.00000268      -0.00000522       0.00000459
Se       1.98396593       1.40287574       6.80513334      -0.00022725      -0.00016358       0.00000260
Se       5.87392518       4.15349237       6.80513257       0.00022910       0.00016204      -0.00000479
Se       4.90143566       1.40287574       5.12073118       0.00011799      -0.00016309      -0.00019546
Se       2.95645542       4.15349187       8.48953536      -0.00011539       0.00015855       0.00020050
Se       2.95645577       4.15349263       5.12073108      -0.00011251       0.00016068      -0.00019845
Se       4.90143554       1.40287494       8.48953539       0.00010674      -0.00016054       0.00018768
