9
Lattice="4.64079053874853 2.6744531156139924e-08 2.679361707711682 1.546930235152015 4.375379174166491 2.6793616551366606 8.807272170788121e-08 -2.114159878368455e-09 5.358723262876905" Properties=species:S:1:pos:R:3:forces:R:3 energy=-61.12059020996094 free_energy=-61.12059020996094 stress="-4.644456930691376e-05 -6.791981377318734e-08 2.3999856324508073e-08 -6.791981377318734e-08 -4.668611290981062e-05 -1.378189864453816e-07 2.3999856324508073e-08 -1.378189864453816e-07 -4.623003405868076e-05" pbc="T T T"
Mn       1.54693058       1.09384516       2.67936175       0.00000177       0.00000094      -0.00000025
Mn       4.64079077       3.28153427       8.03808485       0.00000158       0.00000010       0.00000166
W       -0.00000010      -0.00000009      -0.00000001       0.00000087      -0.00000117       0.00000123
O        1.57172290       1.11137598       5.35872310      -0.00022054      -0.00015354      -0.00000196
O        4.61599796       3.26400298       5.35872336       0.00022042       0.00015426       0.00000111
O        3.85492907       1.11137605       4.04051356       0.00010663      -0.00015265      -0.00018883
O        2.33279161       3.26400307       6.67693306      -0.00010759       0.00015140       0.00018764
O        2.33279186       3.26400335       4.04051398      -0.00011343       0.00015831      -0.00019085
O        3.85492896       1.11137579       6.67693297       0.00011033      -0.00015724       0.00019145
