9
Lattice="6.2905508310928155 -9.101402929165931e-08 3.631851427591492 2.0968502228837536 5.930788289412354 3.6318513727517727 1.157160474032873e-07 1.4658888649495273e-08 7.263702654756844" Properties=species:S:1:pos:R:3:forces:R:3 energy=-44.89472198486328 free_energy=-44.89472198486328 stress="-3.091917824349366e-05 -5.438698380544338e-08 -1.5624660676394342e-08 -5.438698380544338e-08 -3.0870676710037515e-05 5.650273582347154e-09 -1.5624660676394342e-08 5.650273582347154e-09 -3.084297713940032e-05" pbc="T T T"
Mn       2.09684992       1.48269732       3.63185157      -0.00000216       0.00000298       0.00000213
Mn       6.29054986       4.44809083      10.89555338      -0.00000629      -0.00000255      -0.00000438
W       -0.00000008      -0.00000022       0.00000088       0.00000153       0.00000085      -0.00000625
Te       2.18547701       1.54536530       7.26370250      -0.00104017      -0.00073699      -0.00000157
Te       6.20192450       4.38542272       7.26370300       0.00104187       0.00073498      -0.00000050
Te       5.19781263       1.54536564       5.52453020       0.00052289      -0.00073819      -0.00090402
Te       3.18958964       4.38542242       9.00287525      -0.00052229       0.00074201       0.00090970
Te       3.18958886       4.38542245       5.52452987      -0.00052097       0.00073674      -0.00090409
Te       5.19781236       1.54536636       9.00287518       0.00052569      -0.00073986       0.00090902
