9
Lattice="6.016896777709729 -1.2693998723971589e-07 3.473857099141797 2.0056321788149374 5.67278437946329 3.4738570311439374 8.868589016707696e-08 -2.0569583452242403e-08 6.947714044675127" Properties=species:S:1:pos:R:3:forces:R:3 energy=-42.15924072265625 free_energy=-42.15924072265625 stress="-0.00036153660039417446 -4.874377168562205e-08 1.1282083045571767e-09 -4.874377168562205e-08 -0.0003615192254073918 3.2764322810407975e-08 1.1282083045571767e-09 3.2764322810407975e-08 -0.00036162842297926545" pbc="T T T"
Mn       2.00563508       1.41819855       3.47385619       0.00002779       0.00002369      -0.00000995
Mn       6.01689290       4.25458733      10.42157204      -0.00003830      -0.00001029       0.00000661
Y       -0.00000024      -0.00000025       0.00000019       0.00000581       0.00000152      -0.00000116
Se       2.23687770       1.58171052       6.94771411      -0.00103246      -0.00073735       0.00000426
Se       5.78565233       4.09107321       6.94771321       0.00103414       0.00072744      -0.00000599
Se       4.89845744       1.58171143       5.41104880       0.00050936      -0.00072321      -0.00090793
Se       3.12407198       4.09107157       8.48438021      -0.00050806       0.00071643       0.00091583
Se       3.12407223       4.09107281       5.41104829      -0.00050337       0.00072434      -0.00091253
Se       4.89845682       1.58171168       8.48437977       0.00050499      -0.00072240       0.00091082
