9
Lattice="5.7084910005564415 4.966711539757342e-08 3.295798916012798 1.902830354886505 5.382016995354727 3.2957989601089555 2.646808314004724e-08 7.272230022276715e-08 6.5915977861814925" Properties=species:S:1:pos:R:3:forces:R:3 energy=-45.84526062011719 free_energy=-45.84526062011719 stress="-0.00026177853578701615 1.9349304380966714e-08 -6.487223203066605e-08 1.9349304380966714e-08 -0.00026179105043411255 -8.27825807903082e-09 -6.487223203066605e-08 -8.27825807903082e-09 -0.0002618508297018707" pbc="T T T"
Mn       1.90283040       1.34550427       3.29579927      -0.00000092       0.00000184       0.00000232
Mn       5.70849083       4.03651231       9.88739572      -0.00000051      -0.00000529      -0.00000704
Y       -0.00000027      -0.00000005      -0.00000034       0.00000486      -0.00000125       0.00000498
S        2.10819383       1.49071857       6.59159744       0.00229360       0.00162227      -0.00000244
S        5.50312795       3.89129832       6.59159877      -0.00229313      -0.00162524       0.00000560
S        4.65439423       1.49071876       5.12154836      -0.00114557       0.00162492       0.00198536
S        2.95692747       3.89129941       8.06164718       0.00115079      -0.00161955      -0.00198805
S        2.95692685       3.89129849       5.12154831       0.00114228      -0.00162530       0.00198552
S        4.65439427       1.49071841       8.06164794      -0.00115167       0.00162751      -0.00198599
