9
Lattice="6.538347671089186 1.320050760978355e-07 3.774916690608116 2.17944935878456 6.164413264289866 3.7749166721918366 5.56633304967311e-08 1.6804739585738715e-08 7.5498332848044525" Properties=species:S:1:pos:R:3:forces:R:3 energy=-40.48369598388672 free_energy=-40.48369598388672 stress="-0.00024922710144892335 1.0698403052344929e-08 4.437475109586586e-10 1.0698403052344929e-08 -0.0002492555940989405 -2.8768731841211093e-09 4.437475109586586e-10 -2.8768731841211093e-09 -0.0002492561179678887" pbc="T T T"
Mn       2.17944925       1.54110381       3.77491646      -0.00000061       0.00000196      -0.00000081
Mn       6.53834779       4.62330981      11.32475047      -0.00000076      -0.00000157       0.00000339
Y       -0.00000011       0.00000033      -0.00000037      -0.00000073      -0.00000395       0.00000204
Te       2.40253134       1.69884614       7.54983325      -0.00519704      -0.00367253      -0.00000020
Te       6.31526532       4.46556688       7.54983328       0.00519841       0.00367627      -0.00000114
Te       5.33708221       1.69884649       5.85556986       0.00259931      -0.00367238      -0.00450040
Te       3.38071485       4.46556725       9.24409724      -0.00259772       0.00367139       0.00449977
Te       3.38071524       4.46556690       5.85556965      -0.00259814       0.00367408      -0.00450086
Te       5.33708247       1.69884604       9.24409675       0.00259728      -0.00367315       0.00449821
