9
Lattice="4.7350828126334275 8.154522111917771e-08 2.7338013668364782 1.5783610378361828 4.464278899857786 2.733801326288924 6.471954566406033e-08 -3.896750086746307e-09 5.467602621575429" Properties=species:S:1:pos:R:3:forces:R:3 energy=-55.451026916503906 free_energy=-55.451026916503906 stress="-0.00020691404643002898 -2.8701602872160947e-08 -7.211037456045233e-08 -2.8701602872160947e-08 -0.00020696278079412878 5.522138124547382e-08 -7.211037456045233e-08 5.522138124547382e-08 -0.00020697434956673533" pbc="T T T"
Mn       1.57836067       1.11606991       2.73380133      -0.00000290      -0.00000065       0.00000083
Mn       4.73508292       3.34820895       8.20140420       0.00000180       0.00000080       0.00000196
Y        0.00000044       0.00000032       0.00000024      -0.00000904      -0.00000478      -0.00001168
O        1.75112179       1.23823037       5.46760264       0.00509804       0.00360554       0.00000011
O        4.56232140       3.22604834       5.46760277      -0.00508609      -0.00359806      -0.00000190
O        3.85952218       1.23823025       4.25031753      -0.00254788       0.00360289       0.00441438
O        2.45392218       3.22604855       6.68488763       0.00254194      -0.00359735      -0.00440761
O        2.45392212       3.22604895       4.25031719       0.00254980      -0.00360695       0.00441471
O        3.85952200       1.23823030       6.68488774      -0.00254603       0.00359872      -0.00441083
