9
Lattice="5.857259950863697 -2.184948244739238e-07 3.3816906136848877 1.9524198076622818 5.522277409673409 3.3816905616541635 -6.696436240546594e-08 -1.1107526458177432e-07 6.763381343355405" Properties=species:S:1:pos:R:3:forces:R:3 energy=-45.71559143066406 free_energy=-45.71559143066406 stress="5.995017636450939e-05 -3.972514406314076e-08 1.5471636416464207e-08 -3.972514406314076e-08 5.994180537527427e-05 2.7420410830814035e-08 1.5471636416464207e-08 2.7420410830814035e-08 6.000563007546589e-05" pbc="T T T"
Mn       1.95242092       1.38056826       3.38168979       0.00000784      -0.00001275      -0.00001044
Mn       5.85725957       4.14170859      10.14507323      -0.00000012       0.00000741       0.00001163
Zr      -0.00000032      -0.00000063      -0.00000126       0.00000267       0.00000525       0.00001039
Se       2.11080698       1.49256554       6.76338179      -0.00107941      -0.00076495       0.00000340
Se       5.69887274       4.02971220       6.76338035       0.00107176       0.00076558      -0.00000472
Se       4.80185640       1.49256579       5.20970348       0.00054215      -0.00076698      -0.00094066
Se       3.00782322       4.02971175       8.31705958      -0.00053935       0.00076317       0.00093400
Se       3.00782365       4.02971207       5.20970345      -0.00053825       0.00077043      -0.00093818
Se       4.80185558       1.49256472       8.31705965       0.00053252      -0.00076729       0.00093478
