9
Lattice="4.652896227925669 6.4280535388529135e-09 2.6863508948404506 1.5509654109120863 4.386792525032274 2.686350902559992 -3.360901344719797e-08 -1.4310682685692778e-08 5.372701847893419" Properties=species:S:1:pos:R:3:forces:R:3 energy=-61.07525634765625 free_energy=-61.07525634765625 stress="-4.335576159064658e-05 7.366596577185192e-08 -4.636139294689201e-08 7.366596577185192e-08 -4.3300828110659495e-05 1.0014380791290023e-07 -4.636139294689201e-08 1.0014380791290023e-07 -4.343800901551731e-05" pbc="T T T"
Mn       1.55096539       1.09669778       2.68635076      -0.00000038      -0.00000234      -0.00000144
Mn       4.65289596       3.29009470       8.05905276      -0.00000123       0.00000115      -0.00000002
Zr       0.00000003       0.00000003       0.00000022      -0.00000120      -0.00000108       0.00000029
O        1.66456773       1.17702688       5.37270171      -0.00043297      -0.00030661      -0.00000122
O        4.53929378       3.20976549       5.37270157       0.00043511       0.00030911       0.00000111
O        3.82061255       1.17702686       4.12790903       0.00021675      -0.00030869      -0.00037509
O        2.38324901       3.20976541       6.61749478      -0.00021622       0.00030714       0.00037581
O        2.38324938       3.20976583       4.12790879      -0.00021496       0.00030458      -0.00037336
O        3.82061251       1.17702697       6.61749503       0.00021476      -0.00030375       0.00037426
