9
Lattice="5.494232067561692 -6.759627054341135e-08 3.1720963562365876 1.8314107145650431 5.1800115175791275 3.1720962018966623 8.808203004430273e-08 -1.2674359336313548e-07 6.34419255991063" Properties=species:S:1:pos:R:3:forces:R:3 energy=-50.75547790527344 free_energy=-50.75547790527344 stress="0.00020191319345030934 -3.5982381518806505e-08 3.0665688655062695e-08 -3.5982381518806505e-08 0.00020189231145195663 -3.913708468417099e-09 3.0665688655062695e-08 -3.913708468417099e-09 0.00020192796364426613" pbc="T T T"
Mn       1.83140986       1.29500291       3.17209647      -0.00000150       0.00000007       0.00000025
Mn       5.49423205       3.88500920       9.51628837       0.00000041       0.00000152      -0.00000127
Zr       0.00000009      -0.00000027      -0.00000010       0.00000036       0.00000107       0.00000098
S        1.99483128       1.41055777       6.34419311      -0.00173065      -0.00122532       0.00000183
S        5.33081222       3.76945334       6.34419297       0.00172788       0.00122121       0.00000106
S        4.49681668       1.41055802       4.89967076       0.00086620      -0.00122201      -0.00149813
S        2.82882620       3.76945351       7.78871417      -0.00086346       0.00122261       0.00149563
S        2.82882596       3.76945293       4.89967052      -0.00086471       0.00122410      -0.00149801
S        4.49681716       1.41055793       7.78871425       0.00086579      -0.00122294       0.00149810
