9
Lattice="6.411694547047252 -8.31803563464428e-09 3.701793621367416 2.137231487356046 6.045003570352775 3.701793656846865 4.708834372421579e-08 7.674975747055957e-08 7.403587161175458" Properties=species:S:1:pos:R:3:forces:R:3 energy=-42.883018493652344 free_energy=-42.883018493652344 stress="4.207955498714e-06 -5.713599371404143e-09 3.133534542953953e-09 -5.713599371404143e-09 4.2146866690018214e-06 -1.477290290097244e-09 3.133534542953953e-09 -1.477290290097244e-09 4.2167771425738465e-06" pbc="T T T"
Mn       2.13723083       1.51124999       3.70179420      -0.00000526      -0.00000423       0.00000342
Mn       6.41169461       4.53375304      11.10538011       0.00000075       0.00000146      -0.00000510
Zr      -0.00000046      -0.00000006       0.00000018       0.00000514       0.00000129      -0.00000178
Te       2.28978138       1.61911974       7.40358716      -0.00162837      -0.00115197      -0.00000072
Te       6.25914508       4.42588405       7.40358764       0.00162373       0.00115009       0.00000201
Te       5.26680407       1.61911965       5.68480233       0.00081350      -0.00115086      -0.00140821
Te       3.28212239       4.42588418       9.12237184      -0.00081358       0.00115452       0.00140871
Te       3.28212192       4.42588389       5.68480228      -0.00081345       0.00115072      -0.00140823
Te       5.26680451       1.61912004       9.12237203       0.00081749      -0.00115104       0.00140987
