9
Lattice="5.403431264301046 7.327691224170559e-08 3.119672651221185 1.8011437282944252 5.0944043064323346 3.119672816733783 -3.712589422915866e-09 2.000855015801182e-07 6.239345308872709" Properties=species:S:1:pos:R:3:forces:R:3 energy=-42.55208206176758 free_energy=-42.55208206176758 stress="0.0002665195206645876 -1.1125435861458755e-07 2.253917941175132e-08 -1.1125435861458755e-07 0.0002664885250851512 -1.7037647737083716e-08 2.253917941175132e-08 -1.7037647737083716e-08 0.00026656565023586154" pbc="T T T"
Mo       1.80114344       1.27359932       3.11967272      -0.00000231      -0.00001853      -0.00000379
Mo       5.40343109       3.82080403       9.35902008      -0.00000166       0.00000765       0.00002744
As      -0.00000007       0.00000001       0.00000080       0.00000249       0.00000419      -0.00000890
S        1.89367411       1.33902928       6.23934574      -0.00186849      -0.00132918      -0.00000007
S        5.31090121       3.75537631       6.23934422       0.00185812       0.00132900      -0.00001277
S        4.45659483       1.33903060       4.75964238       0.00094187      -0.00131911      -0.00162452
S        2.74797976       3.75537487       7.71904738      -0.00094205       0.00133318       0.00161940
S        2.74798135       3.75537508       4.75964266      -0.00092697       0.00132841      -0.00161904
S        4.45659401       1.33902932       7.71904707       0.00093949      -0.00133550       0.00162148
