9
Lattice="4.090660768014718 1.7345193746565813e-08 2.3617441117695637 1.3635536410162 3.8567115814812727 2.3617440505852936 1.2184068095226516e-08 -6.631968955916945e-08 4.723488202435707" Properties=species:S:1:pos:R:3:forces:R:3 energy=-62.77885055541992 free_energy=-62.77885055541992 stress="0.0004398449382279068 -1.201592851884925e-07 7.727769713028465e-08 -1.201592851884925e-07 0.00044000145862810314 1.0235567771132992e-07 7.727769713028465e-08 1.0235567771132992e-07 0.00043938617454841733" pbc="T T T"
Mo       1.36355392       0.96417795       2.36174402       0.00000415       0.00001090       0.00000121
Mo       4.09066050       2.89253645       7.08523302      -0.00000157       0.00003693       0.00001289
As       0.00000006      -0.00000021      -0.00000011       0.00000558      -0.00000125      -0.00001280
N        1.50908450       1.06708170       4.72348833      -0.00680733      -0.00483796       0.00000012
N        3.94513102       2.78962846       4.72348788       0.00681615       0.00481981      -0.00000402
N        3.33611883       1.06708337       3.66864824       0.00340524      -0.00482026      -0.00590640
N        2.11809527       2.78962797       5.77832781      -0.00341493       0.00481525       0.00590891
N        2.11809495       2.78962831       3.66864857      -0.00341290       0.00481138      -0.00590098
N        3.33611863       1.06708243       5.77832750       0.00340489      -0.00483441       0.00590110
