9
Lattice="5.529197163728607 -3.027717605908497e-08 3.192283519896117 1.8430656981797857 5.212976967612358 3.1922835104001064 8.441538837513093e-08 4.806050742085679e-08 6.384566893580523" Properties=species:S:1:pos:R:3:forces:R:3 energy=-38.764007568359375 free_energy=-38.764007568359375 stress="5.953270010650158e-05 5.656608337289981e-08 1.8401900447884145e-08 5.656608337289981e-08 5.941757626715116e-05 -1.0349276102772365e-08 1.8401900447884145e-08 -1.0349276102772365e-08 5.94995217397809e-05" pbc="T T T"
Mo       1.84306614       1.30324445       3.19228231       0.00000370       0.00000048      -0.00000541
Mo       5.52919686       3.90973176       9.57685038      -0.00000406      -0.00000550       0.00000138
As      -0.00000007      -0.00000006      -0.00000031      -0.00000174       0.00000224       0.00000381
Se       2.08708190       1.47579003       6.38456743       0.00161138       0.00113919       0.00000317
Se       5.28518074       3.73718730       6.38456684      -0.00160658      -0.00113659       0.00000365
Se       4.48565627       1.47579021       4.99974939      -0.00080523       0.00113776       0.00139439
Se       2.88660657       3.73718707       7.76938511       0.00080810      -0.00114383      -0.00139846
Se       2.88660711       3.73718743       4.99974931       0.00080226      -0.00113724       0.00139448
Se       4.48565632       1.47578969       7.76938526      -0.00080809       0.00114326      -0.00139694
