9
Lattice="4.402412415368983 4.265735366957386e-08 2.5417340072823182 1.4674708055055392 4.150634377794058 2.541734076278883 -6.252015593784319e-08 4.029473235308063e-08 5.083468122852707" Properties=species:S:1:pos:R:3:forces:R:3 energy=-54.94256591796875 free_energy=-54.94256591796875 stress="8.12384532764554e-05 3.704302287133032e-08 2.2403092714284867e-09 3.704302287133032e-08 8.153394446708262e-05 1.0556022544960797e-07 2.2403092714284867e-09 1.0556022544960797e-07 8.115969103528187e-05" pbc="T T T"
Mo       1.46747033       1.03765865       2.54173334      -0.00000571       0.00000161      -0.00001389
Mo       4.40241293       3.11297627       7.62519968       0.00000656       0.00000874      -0.00003130
As       0.00000002      -0.00000002       0.00000034      -0.00000080      -0.00000041      -0.00000281
O        1.47314668       1.04167263       5.08346913      -0.00047290      -0.00032961       0.00001038
O        4.39673625       3.10896163       5.08346863       0.00048053       0.00032961       0.00000704
O        3.66583852       1.04167165       3.81751728       0.00022978      -0.00034297      -0.00040233
O        2.20404504       3.10896248       6.34941973      -0.00023097       0.00033748       0.00041866
O        2.20404394       3.10896219       3.81751740      -0.00023979       0.00032914      -0.00039947
O        3.66583894       1.04167239       6.34941946       0.00023359      -0.00033271       0.00041461
