9
Lattice="5.39701619239953 4.797315498459384e-08 3.115968834328208 1.7990054249004774 5.088355763775741 3.1159688651510056 9.819430368050639e-09 4.469347351699313e-08 6.231937651648645" Properties=species:S:1:pos:R:3:forces:R:3 energy=-41.93604278564453 free_energy=-41.93604278564453 stress="-7.151481258915737e-05 3.934173875563829e-09 2.7521938061880746e-09 3.934173875563829e-09 -7.154595368774608e-05 1.5886536530729245e-08 2.7521938061880746e-09 1.5886536530729245e-08 -7.155787170631811e-05" pbc="T T T"
Mo       1.79900495       1.27208928       3.11596868      -0.00000367       0.00000028      -0.00000050
Mo       5.39701653       3.81626664       9.34790626       0.00000273      -0.00000046      -0.00000318
B       -0.00000003      -0.00000002       0.00000002       0.00000041       0.00000042       0.00000020
Se       1.73468898       1.22661013       6.23193765      -0.00343041      -0.00242493       0.00000135
Se       5.46133288       3.86174559       6.23193779       0.00343178       0.00242588       0.00000144
Se       4.52967191       1.22661037       4.61825350       0.00171576      -0.00242583      -0.00297165
Se       2.66634965       3.86174565       7.84562198      -0.00171558       0.00242475       0.00297190
Se       2.66634960       3.86174554       4.61825353      -0.00171639       0.00242490      -0.00297126
Se       4.52967200       1.22661027       7.84562202       0.00171505      -0.00242516       0.00297162
