9
Lattice="4.09917137582997 -7.11342917414527e-08 2.3666575138113544 1.3663904122159753 3.86473535769448 2.3666574780063385 7.071032505637103e-08 6.147698259041991e-09 4.733314905148853" Properties=species:S:1:pos:R:3:forces:R:3 energy=-58.7635498046875 free_energy=-58.7635498046875 stress="-0.00018945042393170297 -9.359120412000266e-08 4.782403095759946e-08 -9.359120412000266e-08 -0.00019027448433917016 -1.1726120163757514e-07 4.782403095759946e-08 -1.1726120163757514e-07 -0.00018923485185950994" pbc="T T T"
Mo       1.36639078       0.96618408       2.36665725       0.00000368       0.00000340      -0.00000584
Mo       4.09917088       2.89855152       7.09997313      -0.00001352       0.00000248       0.00001445
B       -0.00000012       0.00000008       0.00000025       0.00000049      -0.00000040      -0.00000433
O        1.31389785       0.92906545       4.73331519      -0.00220060      -0.00155145      -0.00000629
O        4.15166435       2.93566930       4.73331454       0.00220728       0.00155234      -0.00000202
O        3.44222266       0.92906565       3.50452606       0.00110012      -0.00155300      -0.00190699
O        2.02333940       2.93566943       5.96210365      -0.00110149       0.00155604       0.00190473
O        2.02333998       2.93566988       3.50452589      -0.00109798       0.00154966      -0.00190628
O        3.44222180       0.92906593       5.96210407       0.00110197      -0.00155777       0.00191152
