9
Lattice="4.9117399168751765 -3.665708689515597e-07 2.8357939689835283 1.637246311634364 4.630831997241119 2.8357939373176655 -1.2524277775820986e-08 -4.763862910125339e-08 5.67158795965973" Properties=species:S:1:pos:R:3:forces:R:3 energy=-45.25544357299805 free_energy=-45.25544357299805 stress="0.0002509492915123701 -4.927317576175483e-08 4.081777049691482e-08 -4.927317576175483e-08 0.0002505234442651272 -1.4237695467045342e-08 4.081777049691482e-08 -1.4237695467045342e-08 0.00025044570793397725" pbc="T T T"
Mo       1.63724589       1.15770847       2.83579380      -0.00000507       0.00000514      -0.00000247
Mo       4.91174016       3.47312383       8.50737994       0.00000388       0.00000160      -0.00001461
Be      -0.00000002       0.00000012      -0.00000025      -0.00000015      -0.00000152       0.00000260
S        1.66093117       1.17445486       5.67158826      -0.00775697      -0.00548802       0.00000383
S        4.88805593       3.45637552       5.67158853       0.00776167       0.00548633       0.00000347
S        4.08127432       1.17445499       4.27420234       0.00387839      -0.00548950      -0.00671929
S        2.46771190       3.45637673       7.06897409      -0.00387749       0.00548826       0.00671496
S        2.46771112       3.45637644       4.27420250      -0.00388313       0.00548343      -0.00671269
S        4.08127436       1.17445536       7.06897419       0.00387870      -0.00548606       0.00672418
