9
Lattice="5.227760618989442 -1.1405844971932988e-07 3.01824904794055 1.7425867857921111 4.9287799407176625 3.0182490127262636 1.7793512175126514e-08 -3.0546614121753844e-08 6.036498065061857" Properties=species:S:1:pos:R:3:forces:R:3 energy=-42.027099609375 free_energy=-42.027099609375 stress="0.00011910411558346823 -6.536666319334472e-08 -1.8985588212672155e-08 -6.536666319334472e-08 0.00011919007374672219 -2.0450176663189268e-08 -1.8985588212672155e-08 -2.0450176663189268e-08 0.00011924362479476258" pbc="T T T"
Mo       1.74258741       1.23219542       3.01824905       0.00000211       0.00000228       0.00000082
Mo       5.22776098       3.69658430       9.05474780       0.00000085      -0.00000312       0.00000263
Be      -0.00000027       0.00000012       0.00000008       0.00001042      -0.00001268       0.00000949
Se       1.67086100       1.18147754       6.03649828      -0.00343919      -0.00243121       0.00000079
Se       5.29948623       3.74730208       6.03649804       0.00344029       0.00243109       0.00000059
Se       4.39232945       1.18147787       4.46525736       0.00172064      -0.00243461      -0.00298116
Se       2.57801755       3.74730261       7.60773815      -0.00172247       0.00243497       0.00298476
Se       2.57801771       3.74730214       4.46525742      -0.00172693       0.00244227      -0.00299016
Se       4.39232960       1.18147717       7.60773841       0.00171421      -0.00242880       0.00297228
