9
Lattice="4.0695609005548405 2.601539605528635e-08 2.3495619672959274 1.3565203622932147 3.8368184481969894 2.349561902204238 1.2667235403694138e-07 9.850156546628844e-09 4.699123715188915" Properties=species:S:1:pos:R:3:forces:R:3 energy=-53.9063720703125 free_energy=-53.9063720703125 stress="-0.00011010705202352256 1.0233351055433104e-08 -1.4466495201759244e-07 1.0233351055433104e-08 -0.00011045320570701733 -8.46250429731299e-08 -1.4466495201759244e-07 -8.46250429731299e-08 -0.00011085115693276748" pbc="T T T"
Mo       1.35651877       0.95920590       2.34956014      -0.00002682       0.00002331      -0.00002614
Mo       4.06956071       2.87761477       7.04868836      -0.00000836       0.00001617       0.00004820
Be       0.00000005       0.00000002      -0.00000013       0.00000033      -0.00000064       0.00000119
O        1.36012057       0.96174941       4.69912497      -0.00102067      -0.00073582       0.00001580
O        4.06596183       2.87506794       4.69912264       0.00103378       0.00071555      -0.00002306
O        3.38950130       0.96174981       3.52746023       0.00052720      -0.00072795      -0.00088507
O        2.03658012       2.87506833       5.87078700      -0.00051594       0.00071985       0.00088632
O        2.03658060       2.87506799       3.52745981      -0.00050741       0.00072014      -0.00089705
O        3.38950169       0.96174970       5.87078713       0.00051874      -0.00073123       0.00088155
