9
Lattice="5.210615744635829 -1.020922883621518e-07 3.0083503365288973 1.736871776705448 4.912615684311137 3.0083504091357134 -6.156876772843224e-08 4.538914686061207e-08 6.016700779698026" Properties=species:S:1:pos:R:3:forces:R:3 energy=-46.30731964111328 free_energy=-46.30731964111328 stress="0.00038777984445914626 -1.580646502574723e-09 9.818400537042749e-10 -1.580646502574723e-09 0.0003877607232425362 1.9663934480718126e-08 9.818400537042749e-10 1.9663934480718126e-08 0.0003878739371430129" pbc="T T T"
Mo       1.73687218       1.22815481       3.00835106       0.00000264       0.00000349       0.00000349
Mo       5.21061638       3.68446232       9.02505253       0.00000345       0.00000426       0.00000733
B       -0.00000034      -0.00000049       0.00000163      -0.00000031       0.00000031       0.00000694
S        1.64578452       1.16374543       6.01670063      -0.00516576      -0.00365043      -0.00000167
S        5.30170167       3.74886976       6.01669982       0.00517654       0.00365388      -0.00000530
S        4.38772292       1.16374503       4.43364126       0.00257947      -0.00365731      -0.00447488
S        2.55976471       3.74887013       7.59975859      -0.00258894       0.00365204       0.00447425
S        2.55976514       3.74886959       4.43364168      -0.00258994       0.00365147      -0.00448361
S        4.38772274       1.16374594       7.59975879       0.00258327      -0.00365806       0.00447342
