9
Lattice="4.034425198649173 -6.723370589818518e-08 2.3292764917087334 1.3448083365985632 3.8036923478492155 2.3292764909511456 -3.662859279034829e-08 -2.68281596122142e-08 4.658553046860014" Properties=species:S:1:pos:R:3:forces:R:3 energy=-57.808349609375 free_energy=-57.808349609375 stress="-8.179042197298259e-05 2.5013777715798824e-09 2.357208330749927e-07 2.5013777715798824e-09 -8.197976421797648e-05 3.30323040031999e-08 2.357208330749927e-07 3.30323040031999e-08 -8.167666237568483e-05" pbc="T T T"
Mo       1.34480759       0.95092384       2.32927638      -0.00000960       0.00000895      -0.00000363
Mo       4.03442398       2.85276922       6.98782966      -0.00001026       0.00000097       0.00000799
C       -0.00000009       0.00000013       0.00000037      -0.00000285       0.00000128       0.00000193
O        1.24665785       0.88151987       4.65855295      -0.00585675      -0.00415087      -0.00000737
O        4.13257615       2.92217214       4.65855276       0.00586271       0.00414312       0.00000498
O        3.41109714       0.88151997       3.40891375       0.00293285      -0.00414765      -0.00507689
O        1.96813707       2.92217168       5.90819230      -0.00292397       0.00414693       0.00508189
O        1.96813770       2.92217208       3.40891336      -0.00292844       0.00414097      -0.00508320
O        3.41109655       0.88151995       5.90819229       0.00293577      -0.00414169       0.00507402
