9
Lattice="4.970849771739946 -1.386989170155157e-07 2.8699213174919387 1.6569497823772719 4.686561912772129 2.869921336145145 -3.8590370249248486e-08 -4.442052290598217e-09 5.739842701824384" Properties=species:S:1:pos:R:3:forces:R:3 energy=-45.41935729980469 free_energy=-45.41935729980469 stress="-6.103417035774328e-06 1.5806712383437116e-08 -6.852512512978137e-08 1.5806712383437116e-08 -6.076718364056433e-06 -3.659033964709124e-08 -6.852512512978137e-08 -3.659033964709124e-08 -6.072877113183495e-06" pbc="T T T"
Mo       1.65695024       1.17164181       2.86992148       0.00000162       0.00001576       0.00000837
Mo       4.97084942       3.51492273       8.60976354      -0.00000084       0.00001293       0.00000317
C       -0.00000009       0.00000635       0.00000661       0.00001231       0.00021206       0.00021065
S        1.62364853       1.14809263       5.73984253       0.00025840       0.00017353      -0.00001068
S        5.00414854       3.53846608       5.73984312      -0.00034395      -0.00025722      -0.00000627
S        4.15902587       1.14809102       4.27604081      -0.00011054       0.00013913       0.00017808
S        2.46877634       3.53846537       7.20363935       0.00019525      -0.00028783      -0.00034621
S        2.46877477       3.53846795       4.27604269       0.00014662      -0.00021810       0.00024216
S        4.15902437       1.14809311       7.20364121      -0.00015867       0.00020956      -0.00027908
