9
Lattice="5.2525974838398595 -1.3672080787417247e-08 3.03258857051981 1.7508658233485563 4.952196336317638 3.0325885561574677 1.7305397895398293e-08 -5.353437665773698e-09 6.065177111065792" Properties=species:S:1:pos:R:3:forces:R:3 energy=-42.22166442871094 free_energy=-42.22166442871094 stress="5.31085861439351e-05 -1.6883676531506686e-12 1.0776319392391542e-08 -1.6883676531506686e-12 5.30606739630457e-05 -9.256837962823283e-09 1.0776319392391542e-08 -9.256837962823283e-09 5.307639003149234e-05" pbc="T T T"
Mo       1.75086585       1.23804909       3.03258862      -0.00000012      -0.00000097       0.00000110
Mo       5.25259755       3.71414727       9.09776570      -0.00000048       0.00000008       0.00000004
Ga      -0.00000005       0.00000000      -0.00000022       0.00000113       0.00000218       0.00000843
S        1.85359862       1.31069216       6.06517710       0.00101948       0.00072049       0.00000010
S        5.14986470       3.64150418       6.06517715      -0.00102231      -0.00072214       0.00000067
S        4.32579816       1.31069214       4.63785206      -0.00050798       0.00071909       0.00088114
S        2.67766507       3.64150432       7.49250224       0.00051370      -0.00072606      -0.00088638
S        2.67766518       3.64150412       4.63785214       0.00050960      -0.00071940       0.00088161
S        4.32579824       1.31069201       7.49250222      -0.00051323       0.00072694      -0.00088686
