9
Lattice="5.478083316681595 5.227803658627913e-08 3.1627729577672192 1.8260278149201856 5.164786562026381 3.1627729691904483 2.0076257727499452e-08 2.818660020236878e-08 6.3255458807613225" Properties=species:S:1:pos:R:3:forces:R:3 energy=-37.76010513305664 free_energy=-37.76010513305664 stress="-0.00033291682484559715 4.104413164895959e-08 -1.1426674717540664e-08 4.104413164895959e-08 -0.0003329502360429615 -4.9034376559120574e-08 -1.1426674717540664e-08 -4.9034376559120574e-08 -0.00033296263427473605" pbc="T T T"
Mo       1.82602938       1.29119682       3.16277292       0.00000648      -0.00000032       0.00000146
Mo       5.47808275       3.87358979       9.48831946      -0.00000264       0.00000063       0.00000208
Ga       0.00000008      -0.00000003      -0.00000021      -0.00000054      -0.00000075       0.00000299
Se       2.00300392       1.41633777       6.32554540      -0.00643209      -0.00454830      -0.00000218
Se       5.30110706       3.74844888       6.32554557       0.00643219       0.00454918      -0.00000052
Se       4.47658112       1.41633784       4.89742495       0.00321332      -0.00454707      -0.00557290
Se       2.82752985       3.74844867       7.75366670      -0.00321368       0.00454427       0.00557129
Se       2.82753006       3.74844917       4.89742546      -0.00321377       0.00454938      -0.00557186
Se       4.47658044       1.41633767       7.75366691       0.00321036      -0.00454687       0.00556955
