9
Lattice="6.751987395230328 -1.4261479954422762 1.8776160900608845 0.9145146990452927 4.9447927029715535 1.975713587454827 0.007124661520271482 0.033084848642962746 3.943669867719968" Properties=species:S:1:pos:R:3:forces:R:3 energy=-73.26899719238281 free_energy=-73.26899719238281 stress="0.0002471613697707653 -9.849156049313024e-05 -8.436379721388221e-05 -9.849156049313024e-05 -4.588621777656954e-06 0.00022124395763967186 -8.436379721388221e-05 0.00022124395763967186 0.0003179117338731885" pbc="T T T"
Mo       1.65865563       1.64881023       2.16845705      -0.00524330      -0.00117040       0.00415955
Mo       3.88152075       4.41344839       5.99401983       0.00436640       0.00175637      -0.00392616
Ga      -0.38797587      -0.02113729       0.23988191       0.00351909      -0.00387245       0.00066824
N        1.32819809       0.87907967       4.16178062      -0.00274275       0.00119384       0.00398201
N        7.32152563       1.60173259       4.05478714       0.00040710       0.00436080      -0.00239856
N        5.07861940      -0.90905724       3.47669142      -0.00213641      -0.00256248      -0.00119427
N        3.55829465       4.64757167       4.23944719       0.00139017       0.00298342       0.00260448
N        3.18244590       2.71982299       2.13465285       0.00236856      -0.00081670      -0.00102563
N        5.07322523      -0.77338621       4.71829801      -0.00192881      -0.00187197      -0.00286913
