9
Lattice="5.26351770592612 7.665834895150832e-08 3.038893237316362 1.7545059847672932 4.9624920136383635 3.0388932190991467 5.950453302618029e-09 -1.8103853488835374e-08 6.077786464326268" Properties=species:S:1:pos:R:3:forces:R:3 energy=-49.188438415527344 free_energy=-49.188438415527344 stress="2.9841690775356255e-05 4.327392488789883e-08 -4.972608547149093e-09 4.327392488789883e-08 2.977025906147901e-05 1.7814334896115724e-08 -4.972608547149093e-09 1.7814334896115724e-08 2.97883634630125e-05" pbc="T T T"
Mo       1.75450616       1.24062346       3.03889321       0.00000107       0.00000138      -0.00000089
Mo       5.26351795       3.72186888       9.11668005       0.00000043       0.00000012       0.00000122
Ir       0.00000012       0.00000017      -0.00000024       0.00000073      -0.00000245       0.00000234
S        1.88514940       1.33300241       6.07778638      -0.00330496      -0.00233752       0.00000105
S        5.13287398       3.62948987       6.07778643       0.00330627       0.00233620       0.00000101
S        4.32094275       1.33300202       4.67148000       0.00165018      -0.00233489      -0.00286055
S        2.69708072       3.62948987       7.48409249      -0.00165042       0.00233358       0.00286239
S        2.69708062       3.62949019       4.67148048      -0.00165242       0.00233805      -0.00286251
S        4.32094323       1.33300137       7.48409268       0.00164950      -0.00233436       0.00285596
