9
Lattice="4.015301514936261 -3.379680512771532e-08 2.318235410870179 1.3384338014751278 3.785662588382736 2.3182354194837043 -1.6402595621753644e-08 -1.0490094811557976e-09 4.636470850150477" Properties=species:S:1:pos:R:3:forces:R:3 energy=-52.569061279296875 free_energy=-52.569061279296875 stress="-8.365226676687598e-06 5.994864693548152e-08 -9.071806772453783e-08 5.994864693548152e-08 -8.286579941341188e-06 4.8218149473200356e-09 -9.071806772453783e-08 4.8218149473200356e-09 -8.69459290697705e-06" pbc="T T T"
Mo       1.33843397       0.94641574       2.31823539      -0.00000011       0.00000211      -0.00000312
Mo       4.01530156       2.83924705       6.95470626      -0.00000066       0.00000134      -0.00000159
N        0.00000125      -0.00000099       0.00000089       0.00005075      -0.00003398       0.00002688
O        1.34050027       0.94787694       4.63647080      -0.00005057      -0.00003757       0.00000103
O        4.01323459       2.83778523       4.63647080       0.00003165       0.00002243       0.00000141
O        3.34505109       0.94787717       3.47914333       0.00001849      -0.00002703      -0.00002804
O        2.00868401       2.83778559       5.79379886      -0.00002441       0.00003606       0.00004441
O        2.00868370       2.83778589       3.47914247      -0.00003409       0.00005114      -0.00005868
O        3.34505076       0.94787756       5.79379793       0.00000985      -0.00001471       0.00001803
