9
Lattice="5.269257875830994 -1.9460092320654077e-07 3.0422074566595874 1.7564191309237047 4.967903673102994 3.0422074177722886 -4.00076711370658e-08 -7.591666973987553e-08 6.084414982614507" Properties=species:S:1:pos:R:3:forces:R:3 energy=-45.56367111206055 free_energy=-45.56367111206055 stress="7.279706187546253e-05 -2.286921940708453e-08 -1.9339381651661824e-08 -2.286921940708453e-08 7.276869291672483e-05 7.653255806872039e-08 -1.9339381651661824e-08 7.653255806872039e-08 7.27919177734293e-05" pbc="T T T"
Mo       1.75641783       1.24197592       3.04220736      -0.00000715       0.00000091      -0.00000028
Mo       5.26925819       3.72592812       9.12662132       0.00000425       0.00000388      -0.00000603
P       -0.00000005       0.00000018      -0.00000022      -0.00000070      -0.00000106      -0.00000005
S        1.76364083       1.24708190       6.08441474      -0.00028777      -0.00020581      -0.00000140
S        5.26203646       3.72082140       6.08441501       0.00028807       0.00020450       0.00000171
S        4.38743784       1.24708119       4.56956602       0.00014639      -0.00020993      -0.00024468
S        2.63823949       3.72082112       7.59926476      -0.00014517       0.00020409       0.00025201
S        2.63823908       3.72082162       4.56956531      -0.00014648       0.00020289      -0.00024766
S        4.38743808       1.24708229       7.59926477       0.00014883      -0.00019974       0.00024694
