9
Lattice="5.5609449328663505 -6.948506889788093e-08 3.2106131208602333 1.8536482217214496 5.242909329165066 3.210613161949375 -1.3663514441256182e-07 -4.629191674867382e-08 6.421226478379475" Properties=species:S:1:pos:R:3:forces:R:3 energy=-40.616390228271484 free_energy=-40.616390228271484 stress="0.00012284229160286486 1.7869625779098897e-08 -7.439289362309864e-08 1.7869625779098897e-08 0.00012290949234738946 -2.0266583966588314e-09 -7.439289362309864e-08 -2.0266583966588314e-09 0.00012296618660911918" pbc="T T T"
Mo       1.85364860       1.31072808       3.21061140       0.00000441       0.00000708      -0.00001237
Mo       5.56094420       3.93218239       9.63184262      -0.00000387       0.00000086       0.00002085
P        0.00000016      -0.00000024       0.00000034      -0.00000183       0.00000498      -0.00001111
Se       1.88597693       1.33358722       6.42122674      -0.00121051      -0.00085902       0.00000430
Se       5.52861657       3.90932207       6.42122499       0.00120687       0.00085026      -0.00000834
Se       4.61795650       1.33358710       4.84391695       0.00060558      -0.00085104      -0.00104749
Se       2.79663618       3.90932165       7.99853571      -0.00060934       0.00085798       0.00105053
Se       2.79663717       3.90932197       4.84391657      -0.00059515       0.00085145      -0.00104681
Se       4.61795579       1.33358667       7.99853582       0.00060374      -0.00086251       0.00105059
