9
Lattice="4.247398164435615 2.383779136313879e-08 2.4522364442077804 1.4157993975566319 4.004485366769735 2.452236466833656 -5.470498071502373e-08 -1.0971335471232939e-08 4.904472983167368" Properties=species:S:1:pos:R:3:forces:R:3 energy=-60.682334899902344 free_energy=-60.682334899902344 stress="0.0005492080235853791 -1.5032735234399297e-07 6.984008926735896e-10 -1.5032735234399297e-07 0.0005490824696607888 4.9675907831669974e-08 6.984008926735896e-10 4.9675907831669974e-08 0.0005495728109963238" pbc="T T T"
Mo       1.41579852       1.00112238       2.45223659      -0.00000881       0.00001053       0.00000220
Mo       4.24739783       3.00336403       7.35671035      -0.00000516       0.00000440       0.00001324
P        0.00000010      -0.00000018      -0.00000019       0.00000238       0.00000733      -0.00000473
O        1.37480691       0.97213493       4.90447294      -0.00070024      -0.00049400      -0.00000417
O        4.28839101       3.03235003       4.90447283       0.00069892       0.00048411      -0.00000262
O        3.55999518       0.97213531       3.64285397       0.00035745      -0.00049543      -0.00060999
O        2.10320264       3.03235009       6.16609163      -0.00035423       0.00049496       0.00060582
O        2.10320303       3.03234982       3.64285350      -0.00034672       0.00048816      -0.00060964
O        3.55999480       0.97213496       6.16609165       0.00035644      -0.00050056       0.00060928
