9
Lattice="5.467151122255533 -1.6001988321324997e-07 3.1564614753299938 1.822383641296598 5.154479182348195 3.1564613285450824 2.5477522652697176e-09 -1.7797242426926296e-07 6.312922946247113" Properties=species:S:1:pos:R:3:forces:R:3 energy=-44.68640899658203 free_energy=-44.68640899658203 stress="0.00012013880768790841 -6.740491897971879e-08 -3.885967458927553e-08 -6.740491897971879e-08 0.00012023051385767758 4.0226950659416616e-08 -3.885967458927553e-08 4.0226950659416616e-08 0.00012027368211420253" pbc="T T T"
Mo       1.82238188       1.28861965       3.15646096      -0.00001323       0.00000071      -0.00000182
Mo       5.46714976       3.86585783       9.46938318      -0.00000593      -0.00000797      -0.00000575
Ru      -0.00000035       0.00000012      -0.00000016       0.00000230       0.00000541       0.00000216
Se       1.98320784       1.40233860       6.31292314      -0.00021118      -0.00015160       0.00000236
Se       5.30632862       3.75213923       6.31292253       0.00021231       0.00014886       0.00000192
Se       4.47554798       1.40233980       4.87397051       0.00011283      -0.00015435      -0.00019175
Se       2.81398760       3.75213975       7.75187620      -0.00010213       0.00015387       0.00018746
Se       2.81398708       3.75214023       4.87397003      -0.00010771       0.00015345      -0.00018495
Se       4.47554872       1.40234015       7.75187641       0.00011295      -0.00014824       0.00019085
