9
Lattice="5.241119455946438 -7.356375148366174e-09 3.0259617452911973 1.7470398114924848 4.941374824751325 3.0259617456734116 7.583416240737786e-09 5.830410864384433e-09 6.0519234774475335" Properties=species:S:1:pos:R:3:forces:R:3 energy=-48.171424865722656 free_energy=-48.171424865722656 stress="-2.401268284302205e-05 4.3427245799421144e-08 -1.6465213192873307e-08 4.3427245799421144e-08 -2.406696876278147e-05 1.9633179804134926e-10 -1.6465213192873307e-08 1.9633179804134926e-10 -2.4087938072625548e-05" pbc="T T T"
Mo       1.74703953       1.23534347       3.02596165      -0.00000132      -0.00000078      -0.00000085
Mo       5.24111940       3.70603116       9.07788550      -0.00000029       0.00000072       0.00000201
Rh      -0.00000003      -0.00000003       0.00000038       0.00000097       0.00000121      -0.00000019
S        1.87385382       1.32501466       6.05192336      -0.00340927      -0.00241107       0.00000234
S        5.11430559       3.61636026       6.05192322       0.00340968       0.00241190      -0.00000011
S        4.30419273       1.32501490       4.64876634       0.00170588      -0.00241244      -0.00295156
S        2.68396669       3.61636017       7.45508042      -0.00170347       0.00240791       0.00295049
S        2.68396662       3.61636012       4.64876672      -0.00170520       0.00241196      -0.00295013
S        4.30419281       1.32501460       7.45508035       0.00170273      -0.00240910       0.00294828
