9
Lattice="5.1943753844225755 -2.8015506403660312e-09 2.998974136017328 1.7314584491238163 4.897304173300995 2.9989741528339264 4.3404761822686326e-08 5.1287830697553127e-08 5.99794819685544" Properties=species:S:1:pos:R:3:forces:R:3 energy=-49.91278076171875 free_energy=-49.91278076171875 stress="-2.9067223294987343e-05 -2.194974868530153e-08 -1.6373528310964502e-08 -2.194974868530153e-08 -2.9017930501140654e-05 5.450885254276727e-08 -1.6373528310964502e-08 5.450885254276727e-08 -2.904998473240994e-05" pbc="T T T"
Mo       1.73145866       1.22432609       2.99897380       0.00000034       0.00000011      -0.00000108
Mo       5.19437558       3.67297840       8.99692271       0.00000010       0.00000192       0.00000088
Ru       0.00000001       0.00000025       0.00000012       0.00000134      -0.00000026      -0.00000025
S        1.86740861       1.32045726       5.99794829      -0.00019014      -0.00013614      -0.00000046
S        5.05842523       3.57684683       5.99794820       0.00018799       0.00013280      -0.00000042
S        4.26067106       1.32045727       4.61619751       0.00009596      -0.00013530      -0.00016582
S        2.66516276       3.57684661       7.37969895      -0.00009668       0.00013679       0.00016886
S        2.66516258       3.57684714       4.61619736      -0.00009453       0.00013465      -0.00016570
S        4.26067112       1.32045699       7.37969909       0.00009489      -0.00013489       0.00016379
