9
Lattice="4.576311117572637 3.7840795862179475e-09 2.642134507804693 1.5254370394288352 4.3145876928508935 2.642134513571896 -5.929952862433733e-08 -3.486773834225814e-08 5.28426911831916" Properties=species:S:1:pos:R:3:forces:R:3 energy=-53.127952575683594 free_energy=-53.127952575683594 stress="0.00016954060993157327 -1.506043503241017e-07 -6.682958542114648e-08 -1.506043503241017e-07 0.00016960430366452783 -5.8632309674067074e-08 -6.682958542114648e-08 -5.8632309674067074e-08 0.00016952729492913932" pbc="T T T"
Mo       1.52543616       1.07864936       2.64213131      -0.00001156       0.00003730      -0.00004598
Mo       4.57631329       3.23594394       7.92640217       0.00003380       0.00005214      -0.00002628
Rh      -0.00000007      -0.00000019      -0.00000001       0.00000126       0.00000451      -0.00000137
O        1.56339214       1.10548433       5.28427092      -0.00107431      -0.00077501       0.00002480
O        4.53835647       3.20910213       5.28426923       0.00108320       0.00074989       0.00000819
O        3.79461549       1.10548338       3.99607331       0.00054345      -0.00079149      -0.00091180
O        2.30713214       3.20910140       6.57246692      -0.00055450       0.00074658       0.00094318
O        2.30713172       3.20910187       3.99607210      -0.00055707       0.00075457      -0.00092587
O        3.79461513       1.10548461       6.57246640       0.00053558      -0.00077787       0.00093535
