9
Lattice="5.468467616086937 5.120038016910829e-08 3.157221265072074 1.82282258813352 5.155720751847183 3.1572212630529592 5.349282001581998e-09 1.3096674655960217e-09 6.314442520878836" Properties=species:S:1:pos:R:3:forces:R:3 energy=-43.36991500854492 free_energy=-43.36991500854492 stress="0.0001134656704380177 -5.658697688204484e-08 -3.181833108101273e-08 -5.658697688204484e-08 0.00011349581473041326 1.098641000396583e-08 -3.181833108101273e-08 1.098641000396583e-08 0.00011353150330251083" pbc="T T T"
Mo       1.82282203       1.28892794       3.15722117      -0.00000310      -0.00001394      -0.00000026
Mo       5.46846848       3.86678947       9.47166626       0.00000561      -0.00000771       0.00001358
Rh      -0.00000043      -0.00000012       0.00000023       0.00000193       0.00000142      -0.00000294
Se       1.99912327       1.41359442       6.31444261       0.00014979       0.00010827       0.00000042
Se       5.29216588       3.74212797       6.31444153      -0.00015038      -0.00010180      -0.00000367
Se       4.46890611       1.41359467       4.88851294      -0.00007209       0.00010654       0.00012636
Se       2.82238415       3.74212711       7.74037078       0.00006992      -0.00009853      -0.00012809
Se       2.82238514       3.74212750       4.88851299       0.00007272      -0.00009996       0.00012574
Se       4.46890617       1.41359429       7.74037146      -0.00007421       0.00010571      -0.00013077
