9
Lattice="4.25036641642387 -4.455462670883442e-08 2.453950331848625 1.4167887830326045 4.007283875791039 2.453950297961935 6.328396834404899e-10 -4.105505657901692e-08 4.9079006626011354" Properties=species:S:1:pos:R:3:forces:R:3 energy=-56.255950927734375 free_energy=-56.255950927734375 stress="0.00019774193060584366 3.3804138155346664e-08 -7.385997946585121e-08 3.3804138155346664e-08 0.00019758247071877122 -8.690939523603447e-08 -7.385997946585121e-08 -8.690939523603447e-08 0.0001979040098376572" pbc="T T T"
Mo       1.41678856       1.00182096       2.45395084      -0.00000208       0.00000024       0.00000454
Mo       4.25036609       3.00546286       7.36185140      -0.00000185      -0.00000023       0.00000288
S        0.00000003       0.00000002      -0.00000012       0.00000262       0.00000121      -0.00000422
O        1.35874942       0.96078088       4.90790070       0.00073743       0.00051916      -0.00000361
O        4.30840597       3.04650294       4.90790065      -0.00073719      -0.00051844      -0.00000261
O        3.57099179       0.96078098       3.63066158      -0.00036955       0.00052071       0.00063598
O        2.09616348       3.04650294       6.18513960       0.00037056      -0.00052094      -0.00063694
O        2.09616351       3.04650292       3.63066156       0.00036734      -0.00052142       0.00064015
O        3.57099207       0.96078068       6.18513918      -0.00036716       0.00051904      -0.00063539
