9
Lattice="4.323770658518893 -5.32096504499961e-06 2.496334983099136 1.4412552292548846 4.076470744727416 2.4963291638964162 6.217262235912621e-06 -2.7307874055458307e-06 4.992659197635673" Properties=species:S:1:pos:R:3:forces:R:3 energy=-39.896385192871094 free_energy=-39.896385192871094 stress="-0.0009464952745474875 3.533065637384425e-06 9.73644205259916e-07 3.533065637384425e-06 -0.0009450786747038364 -1.3485491763276514e-06 9.73644205259916e-07 -1.3485491763276514e-06 -0.0009395917295478284" pbc="T T T"
N        1.44125959       1.01911402       2.49632776       0.00002571      -0.00004687       0.00005032
N        4.32378788       3.05735001       7.48899155      -0.00019072      -0.00000475       0.00007690
C        0.00000964       0.00000043      -0.00001556      -0.00013311      -0.00003335       0.00021492
O        1.23258455       0.87157095       4.99266354      -0.00588465      -0.00443718      -0.00003461
O        4.53244727       3.20489098       4.99266998       0.00577432       0.00428337      -0.00008027
O        3.70748136       0.87155237       3.56378968       0.00283366      -0.00399956      -0.00527388
O        2.05754195       3.20490270       6.42154174      -0.00261819       0.00411925       0.00520593
O        2.05753781       3.20490405       3.56378910      -0.00264397       0.00419462      -0.00539130
O        3.70748734       0.87155226       6.42154471       0.00283763      -0.00407594       0.00523150
