9
Lattice="5.673589394098588 2.3707780977681055e-07 3.2756483026905228 1.8911967548182664 5.3491113144734275 3.2756481873366154 8.205159999873753e-08 -8.325990512966484e-08 6.551296463263574" Properties=species:S:1:pos:R:3:forces:R:3 energy=-31.09920883178711 free_energy=-31.09920883178711 stress="-0.00033765548141673207 6.680094344346799e-08 1.3886300109788863e-08 6.680094344346799e-08 -0.00033761627855710685 3.2908453739821653e-09 1.3886300109788863e-08 3.2908453739821653e-09 -0.00033768778666853905" pbc="T T T"
Na       1.89119657       1.33727713       3.27564849      -0.00000015       0.00000141       0.00000017
Na       5.67358958       4.01183339       9.82694487       0.00000033      -0.00000059      -0.00000122
As       0.00000081       0.00000074      -0.00000026      -0.00000905      -0.00001243       0.00000643
S        1.94577785       1.37587410       6.55129548       0.00241864       0.00171089      -0.00000179
S        5.61900755       3.97323655       6.55129671      -0.00240624      -0.00170279      -0.00000032
S        4.70070106       1.37587417       4.96074117      -0.00120622       0.00170988       0.00209260
S        2.86408701       3.97323906       8.14185119       0.00121057      -0.00170821      -0.00209236
S        2.86408553       3.97323760       4.96074187       0.00120324      -0.00170803       0.00208902
S        4.70069912       1.37587264       8.14185182      -0.00121117       0.00170988      -0.00209308
