9
Lattice="5.672866470686824 2.0861195458518418e-07 3.2752308996236987 1.8909555235499709 5.34843036691479 3.2752311825718703 -1.4364235928879018e-07 2.4496877924804e-07 6.550462048043241" Properties=species:S:1:pos:R:3:forces:R:3 energy=-30.77114486694336 free_energy=-30.77114486694336 stress="-1.0669414223229978e-05 -5.964678750913777e-10 1.071442401467948e-08 -5.964678750913777e-10 -1.0684483640943654e-05 -1.9110762750074173e-08 1.071442401467948e-08 -1.9110762750074173e-08 -1.068973506335169e-05" pbc="T T T"
Na       1.89095556       1.33710758       3.27523124      -0.00000004       0.00000010      -0.00000043
Na       5.67286664       4.01132317       9.82569299      -0.00000057      -0.00000025      -0.00000046
As       0.00000012      -0.00000016      -0.00000081       0.00000318       0.00000290       0.00000615
Se       2.17245735       1.53616003       6.55046162      -0.00124508      -0.00088118       0.00000099
Se       5.39136612       3.81227299       6.55046174       0.00123861       0.00087433       0.00000050
Se       4.58663723       1.53615907       5.15663345       0.00062378      -0.00087894      -0.00107592
Se       2.97718272       3.81227228       7.94429010      -0.00061853       0.00087637       0.00107548
Se       2.97718370       3.81227045       5.15663496      -0.00062180       0.00088152      -0.00107899
Se       4.58663801       1.53615791       7.94429120       0.00062032      -0.00087483       0.00107276
