9
Lattice="6.654048970151982 4.3454193956799436e-08 3.8417168829785675 2.2180163986816575 6.273497422986927 3.8417168235195227 4.943831976092782e-08 -3.786395706013517e-08 7.683433680327421" Properties=species:S:1:pos:R:3:forces:R:3 energy=-27.48443603515625 free_energy=-27.48443603515625 stress="-6.064839908503927e-06 -2.5130211245283363e-09 1.6536115809984153e-09 -2.5130211245283363e-09 -6.071563348086784e-06 -6.436323474190431e-09 1.6536115809984153e-09 -6.436323474190431e-09 -6.04834849582403e-06" pbc="T T T"
Na       2.21801643       1.56837431       3.84171697       0.00000018      -0.00000004      -0.00000020
Na       6.65404898       4.70512311      11.52515039      -0.00000034      -0.00000001       0.00000012
Bi      -0.00000002       0.00000008       0.00000014      -0.00000046      -0.00000053       0.00000027
Te       2.49658710       1.76535361       7.68343365       0.00089014       0.00062902       0.00000000
Te       6.37547860       4.50814423       7.68343366      -0.00089189      -0.00063063       0.00000004
Te       5.40575547       1.76535336       6.00382447      -0.00044516       0.00063069       0.00077207
Te       3.46630979       4.50814380       9.36304256       0.00044686      -0.00062950      -0.00077158
Te       3.46630977       4.50814388       6.00382482       0.00044584      -0.00062940       0.00077151
Te       5.40575556       1.76535332       9.36304288      -0.00044520       0.00063047      -0.00077221
