9
Lattice="5.823528264214871 -5.352975583098892e-07 3.3622158756927902 1.9411755761881355 5.4904755860621135 3.3622158881637754 -7.399773971473817e-08 -3.705058100717139e-08 6.724431879553421" Properties=species:S:1:pos:R:3:forces:R:3 energy=-30.001934051513672 free_energy=-30.001934051513672 stress="-0.00031100536580197513 -2.3530049020337174e-07 5.0378158533703754e-08 -2.3530049020337174e-07 -0.0003108541714027524 -3.089578015647021e-08 5.0378158533703754e-08 -3.089578015647021e-08 -0.00031067876261658967" pbc="T T T"
Na       1.94117568       1.37261878       3.36221597       0.00000022      -0.00000046       0.00000079
Na       5.82352798       4.11785640      10.08664798      -0.00000011       0.00000046      -0.00000028
Bi      -0.00000022      -0.00000045       0.00000040       0.00000177       0.00001549      -0.00001054
S        1.99873943       1.41332191       6.72443185       0.00705016       0.00498447       0.00000016
S        5.76596434       4.07715318       6.72443144      -0.00705841      -0.00499097      -0.00000054
S        4.82415783       1.41332282       5.09317655      -0.00351985       0.00497636       0.00609639
S        2.94054632       4.07715229       8.35568682       0.00351886      -0.00497782      -0.00609612
S        2.94054567       4.07715232       5.09317712       0.00352198      -0.00497910       0.00609860
S        4.82415747       1.41332280       8.35568652      -0.00351478       0.00497153      -0.00608844
