9
Lattice="6.014654171271194 1.5284600151340765e-07 3.472562130618302 2.004884674158274 5.670670346544205 3.472562466122435 -7.40810696140965e-08 3.585237916621999e-07 6.9451243895487345" Properties=species:S:1:pos:R:3:forces:R:3 energy=-29.603958129882812 free_energy=-29.603958129882812 stress="3.5404704249231145e-05 -2.7197392782341012e-08 -2.783170138798141e-08 -2.7197392782341012e-08 3.544057472026907e-05 2.080547112370823e-08 -2.783170138798141e-08 2.080547112370823e-08 3.546267907950096e-05" pbc="T T T"
Na       2.00488466       1.41766786       3.47256227      -0.00000007      -0.00000048      -0.00000054
Na       6.01465400       4.25300303      10.41768649       0.00000032       0.00000015      -0.00000038
Bi       0.00000100      -0.00000008       0.00000114      -0.00000567      -0.00000060      -0.00000695
Se       2.36141845       1.66977661       6.94512555      -0.00385433      -0.00272563       0.00000223
Se       5.65811729       4.00089433       6.94512588       0.00385357       0.00272447       0.00000333
Se       4.83394595       1.66977496       5.51761034       0.00193026      -0.00272731      -0.00333805
Se       3.18559621       4.00089308       8.37263521      -0.00192482       0.00272553       0.00333896
Se       3.18559414       4.00089550       5.51761228      -0.00192674       0.00272636      -0.00333652
Se       4.83394343       1.66977808       8.37263687       0.00192750      -0.00272255       0.00333792
