9
Lattice="5.415439646996972 -1.1162929295591868e-07 3.1266052947017484 1.8051464573140115 5.105724725011913 3.1266052712149186 -2.1687874902973738e-07 -1.821218855969983e-07 6.253210965048631" Properties=species:S:1:pos:R:3:forces:R:3 energy=-29.216938018798828 free_energy=-29.216938018798828 stress="0.0001835715665947646 -3.74547823867033e-08 4.792335417391769e-09 -3.74547823867033e-08 0.00018363464914727956 5.3695643487117195e-08 4.792335417391769e-09 5.3695643487117195e-08 0.00018362975970376283" pbc="T T T"
Na       1.80514638       1.27643119       3.12660517      -0.00000010      -0.00000041       0.00000117
Na       5.41543914       3.82929324       9.37981613       0.00000047       0.00000036       0.00000027
Ga       0.00000102      -0.00000033       0.00000409      -0.00000972       0.00000393      -0.00004780
S        1.85752870       1.31347115       6.25321144      -0.00004826      -0.00003470       0.00000127
S        5.36305721       3.79225247       6.25321030       0.00005332       0.00003719      -0.00000127
S        4.48667482       1.31347101       4.73527194       0.00001993      -0.00002696      -0.00003630
S        2.73391082       3.79225308       7.77114738      -0.00003474       0.00004697       0.00005460
S        2.73391128       3.79225429       4.73527192      -0.00001623       0.00002369      -0.00003076
S        4.48667418       1.31347158       7.77114771       0.00003535      -0.00005006       0.00005881
