9
Lattice="4.444896239540842 1.5758982893186185e-06 2.5662626613825523 1.4816336488744057 4.190692617504186 2.566262517178664 5.3068150435678514e-08 -1.390882709520363e-07 5.13252523084835" Properties=species:S:1:pos:R:3:forces:R:3 energy=-37.672752380371094 free_energy=-37.672752380371094 stress="-2.9036265914328396e-05 2.2629423312992003e-07 -7.293312620504366e-08 2.2629423312992003e-07 -2.9044207622064278e-05 4.382145135650717e-08 -7.293312620504366e-08 4.382145135650717e-08 -2.9240292860777117e-05" pbc="T T T"
Na       1.48163254       1.04767354       2.56626235      -0.00000167       0.00000218      -0.00000133
Na       4.44489758       3.14302059       7.69878736       0.00000113      -0.00000126       0.00000023
Ga      -0.00000014       0.00000147      -0.00000250      -0.00000030      -0.00002725       0.00004739
O        1.54732317       1.09412435       5.13252555      -0.00055632      -0.00039545       0.00000123
O        4.37920611       3.09656871       5.13252617       0.00056882       0.00040542      -0.00000164
O        3.67123441       1.09412520       3.90628380       0.00028232      -0.00040019      -0.00049104
O        2.25529469       3.09656927       6.35876693      -0.00027518       0.00039078       0.00047627
O        2.25529438       3.09656949       3.90628421      -0.00028528       0.00040745      -0.00049657
O        3.67123703       1.09412389       6.35876760       0.00026646      -0.00038163       0.00046539
