9
Lattice="5.647123045255129 -1.0197812397219253e-08 3.260368566123492 1.8823742638884071 5.324159663873708 3.26036869588084 -2.29449927721475e-07 -3.325979177492846e-09 6.52073752966576" Properties=species:S:1:pos:R:3:forces:R:3 energy=-28.72831153869629 free_energy=-28.72831153869629 stress="7.646657650184352e-06 -3.482292854073421e-08 1.470590671459604e-08 -3.482292854073421e-08 7.625314538017847e-06 4.032986566926411e-08 1.470590671459604e-08 4.032986566926411e-08 7.5058242146042176e-06" pbc="T T T"
Na       1.88237421       1.33104009       3.26036837       0.00000049      -0.00000073      -0.00000045
Na       5.64712277       3.99311971       9.78110624       0.00000086      -0.00000032      -0.00000085
Ga       0.00000026      -0.00000108      -0.00000065      -0.00000253       0.00000426       0.00000556
Se       2.12336945       1.50144862       6.52073722      -0.00211197      -0.00149415       0.00000092
Se       5.40612693       3.82270933       6.52073671       0.00211379       0.00149553       0.00000045
Se       4.58543718       1.50145137       5.09926178       0.00105824      -0.00149934      -0.00183524
Se       2.94405849       3.82271147       7.94221495      -0.00105497       0.00149083       0.00182897
Se       2.94406028       3.82271023       5.09926019      -0.00105827       0.00149755      -0.00183155
Se       4.58543889       1.50144887       7.94221443       0.00105426      -0.00149372       0.00183223
