9
Lattice="4.852268535515616 -2.1957489811552e-07 2.80145873611905 1.6174227150002713 4.574762442353033 2.8014586030186526 6.769878282376516e-08 -1.151438307380581e-07 5.602917354980429" Properties=species:S:1:pos:R:3:forces:R:3 energy=-38.10539245605469 free_energy=-38.10539245605469 stress="-7.044769517960958e-06 -4.901236820842314e-07 1.246357754780547e-07 -4.901236820842314e-07 -6.993765964580234e-06 -9.417126278776777e-08 1.246357754780547e-07 -9.417126278776777e-08 -6.697129720123485e-06" pbc="T T T"
Na       1.61742302       1.14369185       2.80145495       0.00000312       0.00000155      -0.00001382
Na       4.85226954       3.43107225       8.40437256       0.00000028       0.00000287      -0.00001415
N        0.00000083       0.00000133      -0.00000961       0.00000232       0.00000914      -0.00003837
O        1.27024121       0.89819371       5.60292367       0.00015879       0.00011909      -0.00000752
O        5.19945219       3.67656961       5.60292405      -0.00017190      -0.00012338      -0.00000599
O        4.21715168       0.89818801       3.90152139      -0.00007284       0.00010979       0.00013638
O        2.25254763       3.67655842       7.30431749       0.00005674      -0.00008202      -0.00010157
O        2.25253704       3.67657183       3.90151966       0.00007272      -0.00010812       0.00013351
O        4.21714112       0.89820251       7.30431558      -0.00004828       0.00007153      -0.00008893
