9
Lattice="5.763193763452179 1.8652057470216294e-07 3.327381549480956 1.921064735270082 5.433591719590128 3.3273815986721718 -1.3734200371835953e-07 -3.6868733544083397e-08 6.654763336845233" Properties=species:S:1:pos:R:3:forces:R:3 energy=-30.799407958984375 free_energy=-30.799407958984375 stress="-5.316724855219945e-05 3.011879456948918e-08 4.4659511644340455e-09 3.011879456948918e-08 -5.332488944986835e-05 -3.0924667271392536e-08 4.4659511644340455e-09 -3.0924667271392536e-08 -5.3316805860958993e-05" pbc="T T T"
Na       1.92106424       1.35839845       3.32738197       0.00000079      -0.00000019      -0.00000019
Na       5.76319393       4.07519374       9.98214453      -0.00000004      -0.00000043      -0.00000011
Sb       0.00000016      -0.00000011       0.00000029      -0.00000327      -0.00000198      -0.00001053
S        1.99073801       1.40766388       6.65476341       0.00026655       0.00018719       0.00000070
S        5.69352018       4.02592761       6.65476378      -0.00026256      -0.00018474       0.00000043
S        4.76782472       1.40766410       5.05141008      -0.00013733       0.00019133       0.00023431
S        2.91643350       4.02592818       8.25811611       0.00013298      -0.00018522      -0.00022906
S        2.91643379       4.02592768       5.05141018       0.00013590      -0.00019148       0.00023258
S        4.76782481       1.40766389       8.25811578      -0.00013319       0.00018534      -0.00022817
