9
Lattice="5.857722425664306 5.451371621808776e-09 3.3819574541286044 1.9525740667405094 5.522713559430371 3.3819575931902763 -1.9414322391953606e-07 3.303498146851701e-08 6.763915244523234" Properties=species:S:1:pos:R:3:forces:R:3 energy=-30.089406967163086 free_energy=-30.089406967163086 stress="-5.5618009355384856e-05 2.549156086217863e-08 1.0679545248137856e-08 2.549156086217863e-08 -5.559601777349599e-05 3.6899305833060225e-09 1.0679545248137856e-08 3.6899305833060225e-09 -5.5602886277483776e-05" pbc="T T T"
Na       1.95257402       1.38067843       3.38195749       0.00000001       0.00000009      -0.00000013
Na       5.85772234       4.14203520      10.14587267      -0.00000024       0.00000010       0.00000020
Sb       0.00000000       0.00000037      -0.00000015       0.00000108      -0.00000258       0.00000091
Se       2.26864402       1.60417479       6.76391601      -0.00212097      -0.00149973       0.00000038
Se       5.54165150       3.91853987       6.76391564       0.00212039       0.00149967      -0.00000079
Se       4.72340111       1.60417299       5.34666023       0.00105992      -0.00149810      -0.00183561
Se       3.08689659       3.91853864       8.18116789      -0.00106050       0.00149991       0.00183579
Se       3.08689585       3.91853990       5.34666215      -0.00105956       0.00149967      -0.00183602
Se       4.72339970       1.60417417       8.18116922       0.00105982      -0.00149898       0.00183524
