9
Lattice="6.548037382025965 -1.4472604745568288e-08 3.780511111499326 2.1826790965315084 6.173548981419685 3.7805111412309276 -4.3393896480055855e-08 5.7296003112283265e-09 7.561022298158995" Properties=species:S:1:pos:R:3:forces:R:3 energy=-27.628210067749023 free_energy=-27.628210067749023 stress="1.3479660083248746e-05 8.322629696522199e-09 3.5262444075812027e-09 8.322629696522199e-09 1.348554633295862e-05 5.11078779297236e-09 3.5262444075812027e-09 5.11078779297236e-09 1.3466542441165075e-05" pbc="T T T"
Na       2.18267921       1.54338725       3.78051105       0.00000001      -0.00000002       0.00000022
Na       6.54803731       4.63016166      11.34153345      -0.00000013       0.00000006      -0.00000017
Sb       0.00000008       0.00000024       0.00000047      -0.00000011      -0.00000079      -0.00000077
Te       2.41015205       1.70423505       7.56102236      -0.00043823      -0.00030975       0.00000007
Te       6.32056356       4.46931338       7.56102233       0.00043923       0.00031081      -0.00000005
Te       5.34296139       1.70423530       5.86776434       0.00021904      -0.00030999      -0.00037965
Te       3.38775569       4.46931357       9.25427969      -0.00021975       0.00031023       0.00037965
Te       3.38775551       4.46931388       5.86776472      -0.00021935       0.00030962      -0.00037941
Te       5.34296094       1.70423555       9.25427983       0.00021920      -0.00031024       0.00038005
