9
Lattice="5.091687274968264 1.5962265440839743e-07 2.9396873127643373 1.6972290730904156 4.80048946364465 2.9396876055836088 -1.0271836803217973e-07 2.859961659588056e-07 5.879374803442009" Properties=species:S:1:pos:R:3:forces:R:3 energy=-40.092628479003906 free_energy=-40.092628479003906 stress="-0.0004677649703808129 -1.148495627489865e-07 -9.171287729259348e-09 -1.148495627489865e-07 -0.00046762326383031905 -8.254585459610553e-09 -9.171287729259348e-09 -8.254585459610553e-09 -0.00046766179730184376" pbc="T T T"
Na       1.69722944       1.20012130       2.93968732       0.00000051      -0.00000051      -0.00000112
Na       5.09168755       3.60036849       8.81906297      -0.00000042       0.00000009      -0.00000197
Sb      -0.00000004       0.00000009      -0.00000221       0.00000662       0.00000049       0.00006590
O        1.61295841       1.14053384       5.87937486      -0.00417387      -0.00295198      -0.00000200
O        5.17595817       3.65995613       5.87937557       0.00416958       0.00294954      -0.00000204
O        4.28520764       1.14053473       4.33655044       0.00209588      -0.00296503      -0.00363308
O        2.50370873       3.65995661       7.42219926      -0.00208271       0.00294715       0.00360501
O        2.50370843       3.65995538       4.33655100      -0.00209701       0.00296581      -0.00363368
O        4.28520711       1.14053358       7.42219935       0.00208074      -0.00294608       0.00360358
