9
Lattice="6.195735446602405 -4.1535325081879065e-07 3.577109818811554 2.0652447156302585 5.841395480380211 3.577109890931172 -1.9003264676936223e-07 -4.604508360513876e-08 7.154219966769163" Properties=species:S:1:pos:R:3:forces:R:3 energy=-33.074275970458984 free_energy=-33.074275970458984 stress="-6.615981692448258e-05 2.146980548900501e-08 1.2133837046235385e-08 2.146980548900501e-08 -6.615740130655468e-05 1.0998281396723542e-08 1.2133837046235385e-08 1.0998281396723542e-08 -6.617555482080206e-05" pbc="T T T"
Na       2.06524487       1.46034877       3.57711002       0.00000020      -0.00000053       0.00000113
Na       6.19573492       4.38104614      10.73132993      -0.00000032       0.00000028       0.00000113
Y       -0.00000082      -0.00000053       0.00000002       0.00000273       0.00000152      -0.00000914
Se       2.35238803       1.66338918       7.15421779      -0.00255089      -0.00180528      -0.00000531
Se       5.90859255       4.17800546       7.15421757       0.00255495       0.00180582      -0.00000566
Se       5.01954051       1.66339121       5.61433828       0.00127102      -0.00179984      -0.00220777
Se       3.24143688       4.17800869       8.69410348      -0.00128304       0.00181305       0.00221729
Se       3.24144006       4.17800447       5.61433830      -0.00127409       0.00179833      -0.00220843
Se       5.01954287       1.66338672       8.69410335       0.00127940      -0.00181338       0.00221669
