9
Lattice="4.796834875288189 2.8898218576251928e-08 2.769453941775323 1.5989449951634207 4.522499192356478 2.769453925340735 2.1941168375484317e-08 -4.613427337925163e-09 5.538907845547445" Properties=species:S:1:pos:R:3:forces:R:3 energy=-44.08082580566406 free_energy=-44.08082580566406 stress="0.00012825883459299803 4.594527780454882e-08 -1.5456183888318265e-08 4.594527780454882e-08 0.00012809038162231445 6.100955296517441e-09 -1.5456183888318265e-08 6.100955296517441e-09 0.00012832247011829168" pbc="T T T"
Na       1.59894503       1.13062481       2.76945398      -0.00000002      -0.00000098      -0.00000013
Na       4.79683494       3.39187454       8.30836181       0.00000044       0.00000087      -0.00000009
Y        0.00000005       0.00000001       0.00000004      -0.00000108       0.00000072       0.00000032
O        1.82615637       1.29128732       5.53890783      -0.00219586      -0.00155354      -0.00000013
O        4.56962351       3.23121175       5.53890781       0.00219727       0.00155270      -0.00000026
O        3.88375677       1.29128747       4.35095159       0.00109804      -0.00155172      -0.00190067
O        2.51202317       3.23121179       6.72686403      -0.00109901       0.00155300       0.00190225
O        2.51202307       3.23121171       4.35095166      -0.00109783       0.00155139      -0.00190228
O        3.88375669       1.29128745       6.72686419       0.00109807      -0.00155258       0.00190106
