9
Lattice="5.981884607277889 2.5516317391422197e-07 3.4536423916327093 1.9939617328047596 5.6397750440785925 3.4536424670196633 -7.114789242472865e-08 4.202056735453541e-08 6.907284906497156" Properties=species:S:1:pos:R:3:forces:R:3 energy=-34.35797119140625 free_energy=-34.35797119140625 stress="-7.272441143868491e-05 -1.0062400690458162e-08 2.3434310492120858e-08 -1.0062400690458162e-08 -7.273056689882651e-05 -1.1549357026297002e-08 2.3434310492120858e-08 -1.1549357026297002e-08 -7.264003943419084e-05" pbc="T T T"
Na       1.99396148       1.40994372       3.45364239      -0.00000027      -0.00000050      -0.00000034
Na       5.98188475       4.22983141      10.36092716      -0.00000017      -0.00000022      -0.00000017
Y       -0.00000037       0.00000022      -0.00000065       0.00000257      -0.00000071       0.00000533
S        2.23417285       1.57979857       6.90728547       0.00206671       0.00146309      -0.00000049
S        5.74167311       4.05997630       6.90728542      -0.00206821      -0.00146102      -0.00000208
S        4.86479892       1.57979855       5.38849315      -0.00103431       0.00146247       0.00179001
S        3.11104884       4.05997582       8.42607674       0.00103401      -0.00146197      -0.00179163
S        3.11104791       4.05997718       5.38849294       0.00103387      -0.00146210       0.00179123
S        4.86479758       1.57979967       8.42607637      -0.00103417       0.00146105      -0.00179193
