9
Lattice="6.695421500664719 -7.844110617089061e-08 3.865603497538222 2.23180707346413 6.312504018513678 3.865603531259741 2.494588858134355e-08 5.893965382391972e-08 7.731206951868884" Properties=species:S:1:pos:R:3:forces:R:3 energy=-32.494598388671875 free_energy=-32.494598388671875 stress="4.664743391913362e-05 5.785567136484815e-09 3.2579530184762007e-09 5.785567136484815e-09 4.665369851863943e-05 -4.085454641256092e-09 3.2579530184762007e-09 -4.085454641256092e-09 4.665068627218716e-05" pbc="T T T"
Na       2.23180705       1.57812619       3.86560363      -0.00000059      -0.00000017      -0.00000007
Na       6.69542146       4.73437807      11.59681042      -0.00000000       0.00000036       0.00000033
Y        0.00000010      -0.00000005      -0.00000014      -0.00000016       0.00000055       0.00000024
Te       2.48482765       1.75703879       7.73120696       0.00467853       0.00330888       0.00000068
Te       6.44240099       4.55546474       7.73120693      -0.00467743      -0.00330845       0.00000032
Te       5.45300757       1.75703894       6.01752764      -0.00233847       0.00330780       0.00405145
Te       3.47422089       4.55546549       9.44488663       0.00233938      -0.00330951      -0.00405293
Te       3.47422102       4.55546511       6.01752753       0.00233841      -0.00330799       0.00405174
Te       5.45300766       1.75703871       9.44488629      -0.00233968       0.00330850      -0.00405189
