9
Lattice="5.485069847849944 3.6992196036744443e-10 3.1668065500056337 1.8283565957439218 5.171373540902605 3.1668065856076604 2.30455760835624e-09 4.5232951019420506e-08 6.3336130960196435" Properties=species:S:1:pos:R:3:forces:R:3 energy=-42.94831085205078 free_energy=-42.94831085205078 stress="-4.021872427983908e-06 1.1891823525900236e-08 4.311483792207582e-08 1.1891823525900236e-08 -4.041301963297883e-06 4.8104180194741275e-08 4.311483792207582e-08 4.8104180194741275e-08 -3.906197889591567e-06" pbc="T T T"
Nb       1.82835642       1.29284235       3.16680507      -0.00000626      -0.00001613      -0.00002606
Nb       5.48507127       3.87853219       9.50042268       0.00002040       0.00002932       0.00003959
As       0.00000002       0.00000005       0.00000048       0.00000511       0.00000373      -0.00000650
S        1.89482888       1.33984627       6.33361324      -0.00329924      -0.00233626       0.00000494
S        5.41859806       3.83152740       6.33361107       0.00329173       0.00232911      -0.00002516
S        4.53765574       1.33984558       4.80777713       0.00165236      -0.00233722      -0.00284511
S        2.77577036       3.83152696       7.85944894      -0.00166219       0.00233752       0.00285214
S        2.77577116       3.83152849       4.80777691      -0.00164139       0.00234109      -0.00284433
S        4.53765387       1.33984511       7.85944918       0.00163889      -0.00235116       0.00285035
