9
Lattice="4.316014305176029 2.0138985323456277e-08 2.4918520861093647 1.4386714511979266 4.069177305790322 2.4918520910422215 1.750242680564942e-08 1.841754654487258e-08 4.983704141903664" Properties=species:S:1:pos:R:3:forces:R:3 energy=-64.71922302246094 free_energy=-64.71922302246094 stress="-0.00015509575314354151 3.034179574257223e-09 1.4772999712420187e-08 3.034179574257223e-09 -0.00015509710647165775 8.390559003146336e-08 1.4772999712420187e-08 8.390559003146336e-08 -0.00015502017049584538" pbc="T T T"
Nb       1.43867180       1.01729508       2.49185243       0.00000427       0.00000743       0.00000493
Nb       4.31601379       3.05188320       7.47555429      -0.00000685       0.00000342      -0.00002070
As      -0.00000010      -0.00000012       0.00000044       0.00000185       0.00000197      -0.00000733
O        1.46639316       1.03689647       4.98370426      -0.00257254      -0.00182053      -0.00000019
O        4.28829276       3.03228064       4.98370470       0.00257140       0.00181499       0.00000693
O        3.58281760       1.03689657       3.76178608       0.00128642      -0.00182271      -0.00222737
O        2.17186837       3.03228045       6.20562277      -0.00128579       0.00181919       0.00223756
O        2.17186798       3.03228062       3.76178597      -0.00128707       0.00181684      -0.00222611
O        3.58281769       1.03689653       6.20562247       0.00128809      -0.00182077       0.00223178
