9
Lattice="4.316042825058 4.222186044679917e-08 2.49186860863529 1.438680987590432 4.069204310118806 2.491868598074492 7.214937233497771e-08 3.80830247463414e-08 4.983737092304202" Properties=species:S:1:pos:R:3:forces:R:3 energy=-64.71922302246094 free_energy=-64.71922302246094 stress="-0.00013642474368680269 1.1094234508846057e-07 -7.50069659716246e-08 1.1094234508846057e-07 -0.0001365077478112653 -3.658653113802757e-08 -7.50069659716246e-08 -3.658653113802757e-08 -0.00013643801503349096" pbc="T T T"
Nb       1.43868159       1.01730112       2.49186837       0.00000726       0.00000009      -0.00000508
Nb       4.31604207       3.05190269       7.47560705      -0.00001256      -0.00000585       0.00001741
As      -0.00000012       0.00000002      -0.00000014      -0.00000061      -0.00000056       0.00000850
O        1.46639366       1.03689669       4.98373677      -0.00241864      -0.00171000       0.00000064
O        4.28833022       3.03230744       4.98373675       0.00242490       0.00171706      -0.00000468
O        3.58284613       1.03689738       3.76180257       0.00121224      -0.00171289      -0.00210470
O        2.17187787       3.03230768       6.20567165      -0.00120834       0.00170702       0.00209266
O        2.17187801       3.03230750       3.76180282      -0.00121400       0.00171715      -0.00210279
O        3.58284613       1.03689714       6.20567144       0.00121003      -0.00171235       0.00209868
