9
Lattice="4.119943825917066 -3.518844179493949e-07 2.378650749573021 1.3733143086796575 3.88431971970009 2.378650694493032 -2.1530112053486633e-07 -2.196998417711858e-07 4.757301872058519" Properties=species:S:1:pos:R:3:forces:R:3 energy=-68.24504089355469 free_energy=-68.24504089355469 stress="0.0002882203843910247 -9.071786166714446e-08 -1.612924549476702e-08 -9.071786166714446e-08 0.0002881244581658393 4.183005941627016e-08 -1.612924549476702e-08 4.183005941627016e-08 0.00028840010054409504" pbc="T T T"
Nb       1.37331432       0.97107964       2.37865051       0.00000042      -0.00000072       0.00000068
Nb       4.11994376       2.91323954       7.13595269      -0.00000035       0.00000002       0.00000032
As       0.00000006      -0.00000005      -0.00000008       0.00000071      -0.00000223      -0.00000103
N        1.50903139       1.06704594       4.75730190      -0.00494689      -0.00349718       0.00000032
N        3.98422664       2.81727323       4.75730176       0.00494540       0.00349677      -0.00000170
N        3.36542766       1.06704621       3.68551047       0.00247517      -0.00349724      -0.00428933
N        2.12783026       2.81727307       5.82909265      -0.00247559       0.00350004       0.00428969
N        2.12783003       2.81727327       3.68551045      -0.00247207       0.00349861      -0.00428587
N        3.36542788       1.06704560       5.82909262       0.00247353      -0.00349849       0.00428683
