9
Lattice="5.485401466907564 6.623132305992612e-08 3.1669979001916397 1.828467156712879 5.171686501219101 3.166998006481549 -5.772891403419563e-08 8.935752908538396e-08 6.333995900372695" Properties=species:S:1:pos:R:3:forces:R:3 energy=-42.94830322265625 free_energy=-42.94830322265625 stress="0.00015601304767187685 -2.8953962782907183e-08 1.0183493159843238e-08 -2.8953962782907183e-08 0.00015607110981363803 -1.4265100212185189e-08 1.0183493159843238e-08 -1.4265100212185189e-08 0.00015603912470396608" pbc="T T T"
Nb       1.82846951       1.29292146       3.16699868       0.00003286      -0.00000243       0.00001183
Nb       5.48540080       3.87876482       9.50099089      -0.00001514       0.00000014      -0.00003877
As       0.00000004      -0.00000038      -0.00000065       0.00000336       0.00000822       0.00000763
S        1.89502768       1.33998664       6.33399537      -0.00623012      -0.00440842      -0.00000556
S        5.41884140       3.83169996       6.33399723       0.00622284       0.00440687       0.00001927
S        4.53788595       1.33998691       4.80813930       0.00309819      -0.00441015      -0.00540632
S        2.77598148       3.83169983       7.85985303      -0.00309891       0.00439632       0.00539625
S        2.77598013       3.83170011       4.80814046      -0.00312006       0.00440603      -0.00538927
S        4.53788725       1.33998723       7.85985279       0.00310749      -0.00439680       0.00540406
