9
Lattice="5.555063470468224 6.469465702644989e-08 3.2072175926121274 1.8516878842085842 5.2373642193244 3.2072175930893843 7.224926211380541e-09 5.693299287067974e-09 6.414435172710322" Properties=species:S:1:pos:R:3:forces:R:3 energy=-39.64654541015625 free_energy=-39.64654541015625 stress="-0.0002326967369299382 1.2296342610795818e-08 -5.523615698166395e-08 1.2296342610795818e-08 -0.00023266793868970126 1.6177857276034047e-08 -5.523615698166395e-08 1.6177857276034047e-08 -0.00023273169063031673" pbc="T T T"
Nb       1.85168789       1.30933998       3.20721711       0.00000020      -0.00001025      -0.00000869
Nb       5.55506172       3.92802379       9.62165552      -0.00001528       0.00000879       0.00002782
As       0.00000006       0.00000015      -0.00000017       0.00000105      -0.00000034       0.00000015
Se       2.03847804       1.44142090       6.41443517      -0.00834915      -0.00590956      -0.00000144
Se       5.36827359       3.79594308       6.41443465       0.00834793       0.00590748      -0.00000776
Se       4.53582505       1.44142234       4.97259094       0.00418083      -0.00590014      -0.00723693
Se       2.87092667       3.79594310       7.85627885      -0.00417492       0.00590888       0.00723022
Se       2.87092801       3.79594314       4.97259057      -0.00416268       0.00590596      -0.00723457
Se       4.53582437       1.44142069       7.85627886       0.00417213      -0.00591081       0.00723132
