9
Lattice="5.459653585552579 2.0637761317608664e-08 3.152132605810652 1.8198845445627865 5.147410784057885 3.1521326117207407 4.4594889061649795e-08 3.8771716277740496e-08 6.304265134380666" Properties=species:S:1:pos:R:3:forces:R:3 energy=-43.334922790527344 free_energy=-43.334922790527344 stress="3.619396375142969e-05 -4.379740570215063e-09 3.1604712180666183e-09 -4.379740570215063e-09 3.625437238952145e-05 4.8070654123932854e-09 3.1604712180666183e-09 4.8070654123932854e-09 3.624850432970561e-05" pbc="T T T"
Nb       1.81988433       1.28685246       3.15213275      -0.00000289      -0.00000162       0.00000233
Nb       5.45965344       3.86055810       9.45639757      -0.00000226      -0.00000018       0.00000018
B        0.00000014       0.00000009      -0.00000006       0.00000070      -0.00000017       0.00000091
Se       1.73561056       1.22726211       6.30426514      -0.00384858      -0.00272168       0.00000128
Se       5.54392767       3.92014873       6.30426535       0.00384793       0.00272171      -0.00000094
Se       4.59184815       1.22726195       4.65521555       0.00192614      -0.00272070      -0.00333479
Se       2.68768997       3.92014910       7.95331490      -0.00192411       0.00272202       0.00333188
Se       2.68769010       3.92014864       4.65521542      -0.00192131       0.00272302      -0.00333421
Se       4.59184834       1.22726217       7.95331475       0.00192490      -0.00272244       0.00333329
