9
Lattice="5.748718241753442 -7.955470871653861e-08 3.3190241216428533 1.9162393660229322 5.4199433884618555 3.3190240746869146 1.1438796582377329e-07 2.3375515677242087e-08 6.638048045159911" Properties=species:S:1:pos:R:3:forces:R:3 energy=-37.86306381225586 free_energy=-37.86306381225586 stress="-2.3567441530758515e-05 6.522153483956572e-08 -1.6700864691188144e-08 6.522153483956572e-08 -2.3681001039221883e-05 -2.9520652589098972e-08 -1.6700864691188144e-08 -2.9520652589098972e-08 -2.378015597059857e-05" pbc="T T T"
Nb       1.91623596       1.35498404       3.31902447      -0.00004168      -0.00001854       0.00000321
Nb       5.74872008       4.06495544       9.95707468       0.00002116      -0.00002265       0.00002901
Bi      -0.00000036      -0.00000024       0.00000039       0.00000651       0.00000187       0.00000109
Se       2.18747917       1.54678260       6.63804787       0.00286135       0.00203668      -0.00000281
Se       5.47747778       3.87316123       6.63804684      -0.00286368      -0.00202882      -0.00001443
Se       4.65497970       1.54678295       5.21343663      -0.00142388       0.00204097       0.00248250
Se       3.00997871       3.87316277       8.06265810       0.00142597      -0.00201993      -0.00249583
Se       3.00997939       3.87316286       5.21343807       0.00143392      -0.00201891       0.00249308
Se       4.65498045       1.54678159       8.06265802      -0.00141951       0.00202963      -0.00249600
