9
Lattice="5.607004909452958 -2.1484345307228234e-09 3.2372058187684036 1.8690016420698292 5.2863349103219965 3.237205805585584 6.13460428043569e-08 2.723267054313577e-08 6.4744115312823345" Properties=species:S:1:pos:R:3:forces:R:3 energy=-41.56224822998047 free_energy=-41.56224822998047 stress="0.00025847196229733527 -1.3820798727692818e-08 -2.037697788281889e-09 -1.3820798727692818e-08 0.0002585320034995675 1.5654546103860412e-08 -2.037697788281889e-09 1.5654546103860412e-08 0.0002584894828032702" pbc="T T T"
Nb       1.86900176       1.32158332       3.23720568       0.00000231      -0.00000675      -0.00000184
Nb       5.60700502       3.96475193       9.71161700       0.00000067       0.00000663       0.00000017
Bi      -0.00000007       0.00000007      -0.00000015       0.00000025      -0.00000359       0.00000016
S        2.00584768       1.41834820       6.47441162      -0.00681794      -0.00482623      -0.00000216
S        5.47015906       3.86798630       6.47441170       0.00682458       0.00482252      -0.00000040
S        4.60408104       1.41834819       4.97432099       0.00340842      -0.00482637      -0.00590733
S        2.87192567       3.86798666       7.97450210      -0.00341162       0.00482951       0.00590816
S        2.87192570       3.86798680       4.97432119      -0.00341196       0.00482999      -0.00590703
S        4.60408064       1.41834829       7.97450247       0.00340542      -0.00482605       0.00591069
