9
Lattice="5.236599042232864 -1.568336119269076e-08 3.023351781322865 1.745533011218478 4.937112724072276 3.0233517606642195 5.865358918185901e-08 1.6172755054945095e-08 6.046703461054743" Properties=species:S:1:pos:R:3:forces:R:3 energy=-46.55123519897461 free_energy=-46.55123519897461 stress="7.835572614567354e-05 1.6386952905733665e-09 -1.8885476293917236e-08 1.6386952905733665e-09 7.853216811781749e-05 -2.987318481473267e-08 -1.8885476293917236e-08 -2.987318481473267e-08 7.835616997908801e-05" pbc="T T T"
Nb       1.74553244       1.23427937       3.02335260      -0.00000234       0.00001251       0.00000805
Nb       5.23659821       3.70283323       9.07005375      -0.00000759      -0.00001347      -0.00001055
B       -0.00000002      -0.00000063       0.00000141      -0.00000020      -0.00000467       0.00001206
S        1.65351664       1.16921286       6.04670351       0.00375634       0.00265563      -0.00000119
S        5.32861576       3.76789954       6.04670318      -0.00374952      -0.00265707      -0.00000264
S        4.40984023       1.16921253       4.45533849      -0.00188251       0.00265518       0.00324684
S        2.57229201       3.76789962       7.63806824       0.00187774      -0.00265852      -0.00324968
S        2.57229135       3.76790063       4.45533895       0.00187728      -0.00265154       0.00325048
S        4.40984185       1.16921390       7.63806773      -0.00186937       0.00266205      -0.00325382
