9
Lattice="6.312160744386469 -4.5709243764017006e-08 3.644327702591386 2.1040535283596347 5.9511622223725915 3.644327719924773 -2.9733593532148872e-08 2.0414762892939172e-10 7.2886554566828625" Properties=species:S:1:pos:R:3:forces:R:3 energy=-34.74275588989258 free_energy=-34.74275588989258 stress="-1.4994979210314341e-05 -4.54885800138527e-08 4.308023715537956e-09 -4.54885800138527e-08 -1.4960205589886755e-05 1.7915040118055003e-08 4.308023715537956e-09 1.7915040118055003e-08 -1.492023056925973e-05" pbc="T T T"
Nb       2.10405345       1.48779052       3.64432764      -0.00000031      -0.00000006      -0.00000112
Nb       6.31216111       4.46337137      10.93298245       0.00000127      -0.00000286      -0.00000600
Bi      -0.00000021      -0.00000019      -0.00000038       0.00000056       0.00000353       0.00000059
Te       2.33035762       1.64781173       7.28865557       0.00010182       0.00007260       0.00000161
Te       6.08585663       4.30335069       7.28865607      -0.00010611      -0.00007223       0.00000321
Te       5.14698203       1.64781169       5.66247683      -0.00004741       0.00007017       0.00008541
Te       3.26923224       4.30335046       8.91483417       0.00004894      -0.00007024      -0.00008668
Te       3.26923192       4.30335041       5.66247675       0.00004961      -0.00007211       0.00008751
Te       5.14698217       1.64781201       8.91483446      -0.00004824       0.00007123      -0.00008459
