9
Lattice="5.734986276004508 1.3471419944606182 5.340339169098058 2.6112218593970433 8.702775260783357 6.523986367898954 1.1825639854601633 2.594516312084023 9.101505074027594" Properties=species:S:1:pos:R:3:forces:R:3 energy=-58.23921203613281 free_energy=-58.23921203613281 stress="9.153162682196125e-05 -9.541105100652203e-05 4.181620170129463e-05 -9.541105100652203e-05 -1.8193393771070987e-05 -2.135260365321301e-05 4.181620170129463e-05 -2.135260365321301e-05 0.00010816563008120283" pbc="T T T"
Nb       1.50767880       0.98216962       4.06516232      -0.00010598       0.00183961       0.00023186
Nb       7.62978190      11.55785743      17.41821241      -0.00061661       0.00092311       0.00103608
C        0.73928954       0.95621930       2.03720382       0.00109103      -0.00028926       0.00043264
S        3.12486875       4.74424046      10.76209341      -0.00207800      -0.00012499      -0.00108411
S        6.51047432       9.11671189      10.66258228       0.00278345      -0.00002624       0.00031316
S        4.93261572       2.71296559       8.09845965      -0.00269377      -0.00242490       0.00051363
S        2.94132694       8.09087419      11.90748689       0.00133768      -0.00057775       0.00433318
S        3.93509921       8.03215798       8.40656029       0.00338347      -0.00063306      -0.00002205
S        6.79395382       4.38456253      10.50559480      -0.00310111       0.00131354      -0.00575463
