9
Lattice="5.47068461566689 -6.21537501928233e-08 3.15850142575865 1.8235614725914153 5.157810897870986 3.1585014385153922 5.418488807290186e-08 5.39382439319828e-08 6.317002757666335" Properties=species:S:1:pos:R:3:forces:R:3 energy=-47.463829040527344 free_energy=-47.463829040527344 stress="0.00011693413398461416 -2.0114748977562158e-08 -1.0428745644830428e-09 -2.0114748977562158e-08 0.00011694414570229128 -2.802771348342503e-09 -1.0428745644830428e-09 -2.802771348342503e-09 0.00011686584912240505" pbc="T T T"
Nb       1.82356321       1.28945374       3.15850275       0.00001153       0.00000740       0.00001029
Nb       5.47068322       3.86835759       9.47550379      -0.00001256      -0.00000472      -0.00000182
Cr       0.00000009      -0.00000014      -0.00000017      -0.00000149       0.00000168      -0.00000048
Se       1.93925177       1.37125843       6.31700236      -0.00271857      -0.00192028      -0.00000318
Se       5.35499430       3.78655238       6.31700286       0.00271618       0.00191879      -0.00000009
Se       4.50105799       1.37125814       4.83794254       0.00135660      -0.00192240      -0.00235701
Se       2.79318789       3.78655291       7.79606316      -0.00135443       0.00192133       0.00235367
Se       2.79318789       3.78655214       4.83794201      -0.00135538       0.00191796      -0.00235701
Se       4.50105819       1.37125836       7.79606312       0.00135821      -0.00191972       0.00235555
