9
Lattice="5.147202025902682 -8.875923660409449e-08 2.971738582321557 1.7157339757050996 4.8528284717266805 2.971738494413257 -4.5385159086008487e-08 -1.3975735393638744e-07 5.943477243252524" Properties=species:S:1:pos:R:3:forces:R:3 energy=-51.60026168823242 free_energy=-51.60026168823242 stress="-0.00019515756866894662 -1.0956275886542244e-09 -2.4579678736813548e-08 -1.0956275886542244e-09 -0.00019479576440062374 1.9217587521325186e-08 -2.4579678736813548e-08 1.9217587521325186e-08 -0.0001951702288351953" pbc="T T T"
Nb       1.71573311       1.21320669       2.97173988      -0.00000792      -0.00000427       0.00001333
Nb       5.14720277       3.63962147       8.91521393       0.00000905       0.00000164      -0.00001694
Cr      -0.00000032       0.00000037       0.00000036       0.00000314      -0.00000361      -0.00000477
S        1.83935732       1.30062259       5.94347702      -0.00048542      -0.00034171      -0.00000245
S        5.02357803       3.55220662       5.94347830       0.00048196       0.00034231       0.00000343
S        4.22752365       1.30062206       4.56466889       0.00023925      -0.00033414      -0.00041068
S        2.63541337       3.55220588       7.32228531      -0.00024265       0.00034881       0.00042516
S        2.63541227       3.55220570       4.56466866      -0.00024322       0.00033736      -0.00041956
S        4.22752369       1.30062161       7.32228486       0.00024632      -0.00034654       0.00041169
