9
Lattice="5.950167806294655 -5.833761247626711e-08 3.435331035924836 1.983389228662187 5.609872069485584 3.435331010119785 -9.561578729985237e-09 -3.836561865621446e-08 6.870662088410725" Properties=species:S:1:pos:R:3:forces:R:3 energy=-44.3613166809082 free_energy=-44.3613166809082 stress="-7.655064109712839e-05 1.7336555302449597e-08 -1.4873347886634747e-08 1.7336555302449597e-08 -7.657678361283615e-05 3.2940846494966536e-08 -1.4873347886634747e-08 3.2940846494966536e-08 -7.65183285693638e-05" pbc="T T T"
Nb       1.98338994       1.40246842       3.43533103       0.00000296       0.00000243       0.00000132
Nb       5.95016783       4.20740355      10.30599413      -0.00000018      -0.00000184       0.00000428
Cr      -0.00000025      -0.00000016      -0.00000021       0.00000319      -0.00000319       0.00000208
Te       2.04667647       1.44721885       6.87066195      -0.00847042      -0.00598925      -0.00000086
Te       5.88688063       4.16265309       6.87066189       0.00846989       0.00598921      -0.00000003
Te       4.92682931       1.44721921       5.20780455       0.00423438      -0.00599210      -0.00733485
Te       3.00672711       4.16265320       8.53351907      -0.00423604       0.00599033       0.00733749
Te       3.00672766       4.16265310       5.20780482      -0.00423534       0.00599001      -0.00733790
Te       4.92682940       1.44721861       8.53351931       0.00423156      -0.00598581       0.00732868
