9
Lattice="5.870758827031798 9.178799242765892e-09 3.389484202529854 1.956919586195602 5.535004616110132 3.3894842570355683 -4.552347523293592e-08 3.4565629203820834e-08 6.77896848390867" Properties=species:S:1:pos:R:3:forces:R:3 energy=-43.00480270385742 free_energy=-43.00480270385742 stress="-1.1988131518592127e-05 1.1088330253983258e-08 -1.1153213463899192e-08 1.1088330253983258e-08 -1.2000344213447534e-05 -6.1421698838159955e-09 -1.1153213463899192e-08 -6.1421698838159955e-09 -1.2020929716527462e-05" pbc="T T T"
Nb       1.95691945       1.38375161       3.38948388      -0.00000004       0.00000071      -0.00000093
Nb       5.87075888       4.15125364      10.16845332       0.00000004       0.00000089       0.00000220
Co      -0.00000007      -0.00000003      -0.00000001      -0.00000223      -0.00000283       0.00000059
Te       1.96770604       1.39137867       6.77896841       0.00080115       0.00056668      -0.00000070
Te       5.85997213       4.14362597       6.77896839      -0.00079670      -0.00056376      -0.00000044
Te       4.88690579       1.39137860       5.09356795      -0.00040103       0.00056523       0.00069331
Te       2.94077284       4.14362575       8.46436901       0.00039935      -0.00056555      -0.00069240
Te       2.94077294       4.14362621       5.09356788       0.00040110      -0.00056572       0.00069298
Te       4.88690546       1.39137822       8.46436892      -0.00040156       0.00056446      -0.00069426
