9
Lattice="4.262051567188732 1.0984353082356476e-07 2.4606967774051434 1.4206839038008126 4.0183009807612615 2.460696873517041 7.086643503996743e-08 1.678226926798734e-07 4.921393432066025" Properties=species:S:1:pos:R:3:forces:R:3 energy=-67.18630981445312 free_energy=-67.18630981445312 stress="-0.0009936417918652296 -1.4309233797860088e-08 -2.7553193149287836e-07 -1.4309233797860088e-08 -0.00099351501557976 -1.4436591300182045e-07 -2.7553193149287836e-07 -1.4436591300182045e-07 -0.0009934233967214823" pbc="T T T"
Nb       1.42068385       1.00457441       2.46069601      -0.00000161      -0.00001385      -0.00001293
Nb       4.26205195       3.01372452       7.38209275       0.00000509      -0.00001902       0.00003666
Cr      -0.00000022      -0.00000011      -0.00000020       0.00001149       0.00000284       0.00000747
O        1.47658000       1.04410088       4.92139365      -0.00150469      -0.00105134       0.00000147
O        4.20615506       2.97420174       4.92139286       0.00148371       0.00105852      -0.00001096
O        3.52376185       1.04410067       3.73945273       0.00075053      -0.00104979      -0.00130221
O        2.15897384       2.97420135       6.10333389      -0.00074907       0.00106364       0.00129035
O        2.15897437       2.97420142       3.73945277      -0.00074120       0.00106254      -0.00129902
O        3.52376147       1.04410017       6.10333400       0.00074567      -0.00105321       0.00128946
