9
Lattice="5.430744488092743 -2.0190526240590044e-07 3.135441782385101 1.8102480194544088 5.120154791937712 3.1354417007796154 -6.24924474843769e-08 -1.4413474608345487e-07 6.270883673010244" Properties=species:S:1:pos:R:3:forces:R:3 energy=-44.383392333984375 free_energy=-44.383392333984375 stress="0.0002132029621861875 1.9609625923067142e-08 -6.762246584912646e-08 1.9609625923067142e-08 0.00021333832410164177 -4.498958716681045e-08 -6.762246584912646e-08 -4.498958716681045e-08 0.0002132376394001767" pbc="T T T"
Nb       1.81024826       1.28004079       3.13544207       0.00000212       0.00002202       0.00000339
Nb       5.43074371       3.84011281       9.40632141      -0.00000377      -0.00002956      -0.00003384
Co      -0.00000007       0.00000002       0.00000036      -0.00000016       0.00000034       0.00000133
Se       1.89681247       1.34124959       6.27088335       0.00111139       0.00079024       0.00000010
Se       5.34418007       3.77890448       6.27088439      -0.00110891      -0.00079003       0.00000840
Se       4.48233788       1.34124908       4.77813013      -0.00055864       0.00078836       0.00096321
Se       2.75865493       3.77890453       7.76363807       0.00056042      -0.00079072      -0.00095594
Se       2.75865398       3.77890538       4.77813042       0.00055140      -0.00078893       0.00096482
Se       4.48233861       1.34125115       7.76363847      -0.00055374       0.00079814      -0.00095168
