9
Lattice="5.061072239411454 -3.1950534775150757e-08 2.922011462621085 1.6870240745925797 4.771624407204493 2.9220114194721574 4.990152778265887e-08 -1.7560675098919866e-08 5.844022838810119" Properties=species:S:1:pos:R:3:forces:R:3 energy=-49.000911712646484 free_energy=-49.000911712646484 stress="0.00016688311006873846 2.0703572189972874e-08 -6.60696670706784e-08 2.0703572189972874e-08 0.00016695370140951127 1.2466952803436016e-08 -6.60696670706784e-08 1.2466952803436016e-08 0.00016694303485564888" pbc="T T T"
Nb       1.68702253       1.19290492       2.92201317      -0.00001114      -0.00001103       0.00002220
Nb       5.06107220       3.57871958       8.76603155       0.00000490       0.00001041      -0.00002553
Co       0.00000036       0.00000016       0.00000008       0.00000259      -0.00000147       0.00000193
S        1.76441034       1.24762516       5.84402313       0.00539881       0.00381505       0.00000092
S        4.98368793       3.52399693       5.84402386      -0.00538868      -0.00382161       0.00000251
S        4.17886629       1.24762551       4.45003452      -0.00270596       0.00381619       0.00467038
S        2.56922940       3.52399989       7.23801010       0.00270110      -0.00381136      -0.00467587
S        2.56922864       3.52399964       4.45003583       0.00269744      -0.00381273       0.00467837
S        4.17886776       1.24762553       7.23801074      -0.00269896       0.00381666      -0.00467485
