9
Lattice="4.186162339453972 6.136229644649631e-08 2.416881869699377 1.395387474551498 3.9467517084489043 2.4168819212904076 -3.805224920940706e-09 6.0495143771839e-08 4.8337637459896" Properties=species:S:1:pos:R:3:forces:R:3 energy=-67.40534973144531 free_energy=-67.40534973144531 stress="0.0002954577503260225 -6.879583480667861e-08 2.1249604742479278e-07 -6.879583480667861e-08 0.00029457296477630734 1.0016886164976313e-07 2.1249604742479278e-07 1.0016886164976313e-07 0.00029475096380338073" pbc="T T T"
Nb       1.39538740       0.98668789       2.41688193       0.00000126      -0.00000057       0.00000177
Nb       4.18616237       2.96006404       7.25064561      -0.00000016      -0.00000009       0.00000124
C       -0.00000018      -0.00000033      -0.00000026       0.00000011      -0.00000457      -0.00001022
O        1.29556258       0.91610091       4.83376376       0.00184405       0.00131296      -0.00000079
O        4.28598747       3.03065106       4.83376371      -0.00184628      -0.00131373       0.00000476
O        3.53838118       0.91610094       3.53887173      -0.00092186       0.00131162       0.00160758
O        2.04316850       3.03065085       6.12865582       0.00092088      -0.00130662      -0.00160502
O        2.04316868       3.03065093       3.53887180       0.00092110      -0.00131188       0.00160578
O        3.53838117       0.91610097       6.12865593      -0.00091897       0.00131263      -0.00160541
