9
Lattice="5.880323743704947 1.4786911949054557e-07 3.39500654622925 1.9601079871313591 5.544022715893493 3.395006662015623 -1.1940652531185747e-07 5.7375594633012385e-08 6.790013299276692" Properties=species:S:1:pos:R:3:forces:R:3 energy=-43.770179748535156 free_energy=-43.770179748535156 stress="-4.940350481774658e-05 6.74868660954786e-10 1.8702445148122138e-10 6.74868660954786e-10 -4.946059925714508e-05 -1.3176952862181679e-08 1.8702445148122138e-10 -1.3176952862181679e-08 -4.943192107020877e-05" pbc="T T T"
Nb       1.96010880       1.38600579       3.39500680       0.00000307      -0.00000023       0.00000259
Nb       5.88032306       4.15801760      10.18502015      -0.00000479       0.00000303       0.00000220
Fe      -0.00000012       0.00000016      -0.00000027       0.00000200      -0.00000030       0.00000147
Te       1.97462959       1.39627337       6.79001332       0.00024275       0.00016993       0.00000054
Te       5.86580216       4.14774963       6.79001307      -0.00024542      -0.00017174      -0.00000117
Te       4.89300906       1.39627391       5.10508549      -0.00011968       0.00017229       0.00021330
Te       2.94742232       4.14774887       8.47494085       0.00012276      -0.00017439      -0.00021461
Te       2.94742239       4.14774850       5.10508551       0.00011899      -0.00017391       0.00020944
Te       4.89300914       1.39627389       8.47494107      -0.00011979       0.00017528      -0.00021374
