9
Lattice="4.2817230443256555 -1.555075857465836e-08 2.4720540826924258 1.4272410172452432 4.036847246528517 2.472054053019906 2.716050205053443e-08 -1.7135909149491478e-08 4.9441081183414965" Properties=species:S:1:pos:R:3:forces:R:3 energy=-63.20510482788086 free_energy=-63.20510482788086 stress="-0.00017764601216185838 -1.0569800679149921e-07 -1.230261261753185e-07 -1.0569800679149921e-07 -0.0001775954442564398 -8.993234956733431e-08 -1.230261261753185e-07 -8.993234956733431e-08 -0.00017779624613467604" pbc="T T T"
Nb       1.42723958       1.00921162       2.47205433      -0.00002035      -0.00000035       0.00000189
Nb       4.28172433       3.02763624       7.41616393       0.00001772       0.00001244       0.00003105
Fe      -0.00000008       0.00000015      -0.00000000       0.00000548      -0.00000265       0.00000452
O        1.46546137       1.03623799       4.94410844      -0.00100921      -0.00071033       0.00000013
O        4.24350266       3.00060901       4.94410763       0.00101396       0.00070861      -0.00000825
O        3.54899246       1.03623756       3.74118122       0.00050695      -0.00072450      -0.00086821
O        2.15997122       3.00060987       6.14703437      -0.00051492       0.00072318       0.00085696
O        2.15997239       3.00060884       3.74118016      -0.00050136       0.00071014      -0.00088225
O        3.54899250       1.03623753       6.14703501       0.00050168      -0.00071613       0.00086396
