9
Lattice="5.538270221285945 4.0294927244054694e-08 3.197521787742609 1.846090046501653 5.221531539192207 3.1975219007601465 -1.8484649491776634e-07 7.711522777687514e-09 6.3950438956487154" Properties=species:S:1:pos:R:3:forces:R:3 energy=-45.107120513916016 free_energy=-45.107120513916016 stress="0.0001602466800250113 2.2480541872482718e-09 -5.209098707936732e-10 2.2480541872482718e-09 0.00016020041948650032 2.810265442576565e-08 -5.209098707936732e-10 2.810265442576565e-08 0.00016024628712330014" pbc="T T T"
Nb       1.84608780       1.30537968       3.19752286      -0.00002143      -0.00003429       0.00001165
Nb       5.53827102       3.91614992       9.59256139       0.00000862       0.00001207      -0.00004445
Fe       0.00000010       0.00000036      -0.00000035       0.00000086       0.00000049       0.00000683
Se       1.90391990       1.34627413       6.39504358       0.00626177       0.00442004      -0.00000510
Se       5.48043987       3.87525813       6.39504664      -0.00626314      -0.00441486       0.00002008
Se       4.58631134       1.34627372       4.84636564      -0.00312361       0.00441986       0.00543141
Se       2.79805006       3.87525768       7.94372267       0.00313312      -0.00441688      -0.00542432
Se       2.79804909       3.87525766       4.84636522       0.00312552      -0.00441599       0.00542647
Se       4.58631123       1.34627511       7.94372274      -0.00312182       0.00442940      -0.00542271
