9
Lattice="5.052738119717915 -1.7245574610671434e-07 2.9171997031304624 1.6842458487458467 4.7637661876850625 2.9171997526104687 -1.3775382565008765e-07 -3.680628863392832e-08 5.8343996448575375" Properties=species:S:1:pos:R:3:forces:R:3 energy=-49.472023010253906 free_energy=-49.472023010253906 stress="0.00012288775178603828 5.542162995197941e-08 9.077437823634682e-08 5.542162995197941e-08 0.0001229522458743304 1.88130186984381e-08 9.077437823634682e-08 1.88130186984381e-08 0.0001227483298862353" pbc="T T T"
Nb       1.68424635       1.19094397       2.91719682       0.00000780       0.00002572      -0.00001779
Nb       5.05273668       3.57282282       8.75159725      -0.00001116      -0.00002246      -0.00000653
Fe      -0.00000013       0.00000010       0.00000008       0.00000143       0.00000109       0.00000812
S        1.79058975       1.26613697       5.83440028       0.00095916       0.00067389       0.00000301
S        4.94639493       3.49762800       5.83439986      -0.00095797      -0.00067985       0.00000106
S        4.15744448       1.26613807       4.46789547      -0.00047314       0.00068212       0.00083220
S        2.57954173       3.49762809       7.20090519       0.00048637      -0.00068343      -0.00082719
S        2.57953903       3.49762820       4.46789610       0.00047195      -0.00067866       0.00083554
S        4.15744248       1.26613763       7.20090517      -0.00048500       0.00068235      -0.00082827
