9
Lattice="5.381734492575073 2.167197894481308e-08 3.1071458771209644 1.7939115239050096 5.07394799382479 3.107145866819673 3.1508465411425475e-08 9.663409658224161e-09 6.21429169966765" Properties=species:S:1:pos:R:3:forces:R:3 energy=-42.88962936401367 free_energy=-42.88962936401367 stress="-0.0002459727111272514 4.404394715606941e-08 -2.9517084332297827e-09 4.404394715606941e-08 -0.0002460068208165467 6.635197724591535e-09 -2.9517084332297827e-09 6.635197724591535e-09 -0.00024596802541054785" pbc="T T T"
Nb       1.79391105       1.26848714       3.10714588      -0.00000603      -0.00000197      -0.00000118
Nb       5.38173557       3.80546121       9.32143733       0.00001176       0.00000321      -0.00000225
Ga       0.00000008      -0.00000000      -0.00000003      -0.00000052       0.00000028      -0.00000500
S        1.87815746       1.32805795       6.21429231      -0.00640848      -0.00452897       0.00000385
S        5.29748893       3.74588976       6.21429228       0.00640741       0.00452611       0.00000253
S        4.44265583       1.32805777       4.73367762       0.00320102      -0.00452724      -0.00554541
S        2.73298991       3.74589054       7.69490522      -0.00320482       0.00453511       0.00554365
S        2.73298969       3.74589012       4.73367777      -0.00320610       0.00452816      -0.00554332
S        4.44265566       1.32805756       7.69490548       0.00320657      -0.00453508       0.00554687
