9
Lattice="6.072775830107033 -3.468283719526549e-09 3.5061187544709593 2.0242586087529215 5.725467939611567 3.5061187510291063 -1.2573071856924493e-08 -1.3105900919412549e-08 7.012237530719136" Properties=species:S:1:pos:R:3:forces:R:3 energy=-37.54497146606445 free_energy=-37.54497146606445 stress="3.160526148349163e-06 -3.256574565568826e-09 2.6775832662195853e-09 -3.256574565568826e-09 3.1627143926016288e-06 -1.317220910124206e-08 2.6775832662195853e-09 -1.317220910124206e-08 3.162893108310527e-06" pbc="T T T"
Nb       2.02425843       1.43136659       3.50611867      -0.00000201      -0.00000299       0.00000045
Nb       6.07277548       4.29410096      10.51835693      -0.00000179       0.00000029       0.00000565
Ge       0.00000001      -0.00000017       0.00000013      -0.00000051       0.00000002       0.00000046
Te       2.13890968       1.51243716       7.01223740      -0.00030243      -0.00021648       0.00000064
Te       5.95812495       4.21303091       7.01223740       0.00030240       0.00021566      -0.00000208
Te       5.00332134       1.51243761       5.35846865       0.00015464      -0.00021238      -0.00026362
Te       3.09371312       4.21303064       8.66600632      -0.00015318       0.00021572       0.00026103
Te       3.09371348       4.21303054       5.35846852      -0.00015022       0.00021628      -0.00026470
Te       5.00332117       1.51243744       8.66600612       0.00015308      -0.00021587       0.00026225
