9
Lattice="5.38173421191673 6.470878639090129e-08 3.107145673168802 1.7939114445216708 5.073947832782464 3.107145708604125 2.4226306409783213e-09 4.5112315327849567e-08 6.214291342141486" Properties=species:S:1:pos:R:3:forces:R:3 energy=-42.88962936401367 free_energy=-42.88962936401367 stress="-0.00024600332835689187 1.3617454719394573e-08 1.4306842821554255e-08 1.3617454719394573e-08 -0.00024596787989139557 -3.781530466540062e-08 1.4306842821554255e-08 -3.781530466540062e-08 -0.00024591278634034097" pbc="T T T"
Nb       1.79390994       1.26848705       3.10714631      -0.00001535       0.00000000       0.00000422
Nb       5.38173528       3.80546165       9.32143654       0.00001302       0.00000679      -0.00000326
Ga       0.00000006      -0.00000012      -0.00000011      -0.00000202      -0.00000004      -0.00000563
S        1.87815741       1.32805792       6.21429184      -0.00640893      -0.00453064       0.00000236
S        5.29748840       3.74589002       6.21429218       0.00640905       0.00453171       0.00000343
S        4.44265591       1.32805759       4.73367778       0.00320520      -0.00453183      -0.00554538
S        2.73298933       3.74589041       7.69490468      -0.00320898       0.00453511       0.00554457
S        2.73298967       3.74588976       4.73367723      -0.00320636       0.00452584      -0.00554711
S        4.44265658       1.32805752       7.69490449       0.00321504      -0.00453678       0.00554660
