9
Lattice="5.559377458935252 -7.487998383264716e-08 3.2097080869602985 1.8531258141601317 5.241431209482939 3.209707974181966 7.492945653756141e-08 -8.514153540937837e-08 6.419416044138959" Properties=species:S:1:pos:R:3:forces:R:3 energy=-39.491859436035156 free_energy=-39.491859436035156 stress="2.8711527193081565e-05 -4.136208175964384e-08 -2.3725680975417163e-08 -4.136208175964384e-08 2.868858427973464e-05 -9.600914729901433e-09 -2.3725680975417163e-08 -9.600914729901433e-09 2.873176163120661e-05" pbc="T T T"
Nb       1.85312505       1.31035731       3.20970792      -0.00000631      -0.00000282      -0.00000013
Nb       5.55937778       3.93107384       9.62912356      -0.00000006       0.00000611      -0.00000220
Ga       0.00000014      -0.00000008       0.00000009       0.00000093       0.00000373       0.00000199
Se       1.98961104       1.40686647       6.41941612      -0.00040036      -0.00028923      -0.00000197
Se       5.42289329       3.83456358       6.41941628       0.00040245       0.00027743       0.00000003
Se       4.56457215       1.40686668       4.93276130       0.00020249      -0.00028336      -0.00034741
Se       2.84793090       3.83456457       7.90607057      -0.00020027       0.00028476       0.00034198
Se       2.84793112       3.83456460       4.93276151      -0.00019963       0.00028774      -0.00034413
Se       4.56457197       1.40686718       7.90607105       0.00020123      -0.00028431       0.00035152
