9
Lattice="4.280700329425581 -3.811235174686476e-08 2.471463405627432 1.4269001068374794 4.035882768504766 2.471463348536218 3.354581878844374e-08 -4.620167907238641e-08 4.942926753151787" Properties=species:S:1:pos:R:3:forces:R:3 energy=-65.32612609863281 free_energy=-65.32612609863281 stress="0.0001861433411249891 -1.0444951570320882e-08 6.54871428196202e-08 -1.0444951570320882e-08 0.00018610928964335471 3.918935931324086e-08 6.54871428196202e-08 3.918935931324086e-08 0.00018647953402251005" pbc="T T T"
Nb       1.42690019       1.00897144       2.47146348      -0.00000148       0.00000802       0.00000084
Nb       4.28070028       3.02691184       7.41438970      -0.00000177      -0.00000239      -0.00000710
Ge      -0.00000001      -0.00000003      -0.00000006      -0.00000358      -0.00000486      -0.00000826
O        1.47236017       1.04111508       4.94292689       0.00213885       0.00150996       0.00000033
O        4.23524035       2.99476746       4.94292685      -0.00213575      -0.00150871       0.00000019
O        3.54452046       1.04111562       3.74656446      -0.00106663       0.00151408       0.00184929
O        2.16308001       2.99476669       6.13928928       0.00106490      -0.00151217      -0.00184411
O        2.16307970       2.99476686       3.74656431       0.00106579      -0.00151360       0.00185275
O        3.54452070       1.04111569       6.13928913      -0.00105995       0.00150913      -0.00184506
