9
Lattice="6.059747648357801 5.87154743691394e-08 3.4985968836432724 2.0199159431466427 5.713184885968915 3.4985968749774123 1.835559067431897e-08 2.3659225212619795e-09 6.997193735493733" Properties=species:S:1:pos:R:3:forces:R:3 energy=-36.53848648071289 free_energy=-36.53848648071289 stress="3.265892883064225e-05 7.415304814628598e-09 -1.3688442379589105e-08 7.415304814628598e-09 3.2680931326467544e-05 7.0760384218715444e-09 -1.3688442379589105e-08 7.0760384218715444e-09 3.2659452699590474e-05" pbc="T T T"
Nb       2.01991537       1.42829505       3.49859795      -0.00000466      -0.00000767       0.00000607
Nb       6.05974776       4.28488820      10.49579104       0.00000024      -0.00000276       0.00000593
Ga      -0.00000010      -0.00000013      -0.00000012      -0.00000289      -0.00000064       0.00000308
Te       2.13620743       1.51052688       6.99719364       0.00201523       0.00142558      -0.00000004
Te       5.94345606       4.20265884       6.99719355      -0.00201522      -0.00142024      -0.00000244
Te       4.99164380       1.51052729       5.34860650      -0.00100602       0.00142488       0.00174151
Te       3.08801948       4.20265865       8.64578034       0.00100907      -0.00142334      -0.00174983
Te       3.08801982       4.20265815       5.34860680       0.00100815      -0.00142343       0.00174405
Te       4.99164483       1.51052689       8.64578031      -0.00100373       0.00142774      -0.00174840
