9
Lattice="4.284342154638763 -3.175550596106661e-08 2.4735660401834547 1.4281140374527688 4.039316436192678 2.473566012737557 2.0367655264213214e-08 -1.921211863154576e-08 4.947132045089087" Properties=species:S:1:pos:R:3:forces:R:3 energy=-61.93156433105469 free_energy=-61.93156433105469 stress="0.00012723697000183165 1.4135466130937857e-07 -1.3526505426852964e-07 1.4135466130937857e-07 0.00012775513459928334 1.432161553793776e-07 -1.3526505426852964e-07 1.432161553793776e-07 0.00012750845053233206" pbc="T T T"
Nb       1.42811414       1.00982926       2.47356619       0.00000401       0.00000013       0.00000151
Nb       4.28434198       3.02948726       7.42069889      -0.00000320       0.00000170       0.00001393
Ga      -0.00000002      -0.00000008      -0.00000006      -0.00000056      -0.00000073       0.00000045
O        1.48550302       1.05040936       4.94713196      -0.00096488      -0.00068191      -0.00000126
O        4.22695314       2.98890715       4.94713167       0.00096607       0.00067917      -0.00000487
O        3.54159051       1.05040911       3.76004946       0.00048152      -0.00068292      -0.00083607
O        2.17086554       2.98890737       6.13421459      -0.00048333       0.00068492       0.00083268
O        2.17086584       2.98890708       3.76004922      -0.00047898       0.00067666      -0.00083888
O        3.54159056       1.05040910       6.13421472       0.00047952      -0.00067711       0.00083232
