9
Lattice="5.659127759598066 -9.037525437668588e-08 3.267298936859945 1.8863758537279574 5.3354769343418145 3.2672989038322804 -2.2938337332282805e-08 -5.667032032507759e-08 6.534597913450257" Properties=species:S:1:pos:R:3:forces:R:3 energy=-48.31483840942383 free_energy=-48.31483840942383 stress="1.4469273082795553e-05 -3.936649051183849e-08 -3.678212934232761e-08 -3.936649051183849e-08 1.4434940567298327e-05 -2.0417214585677357e-08 -3.678212934232761e-08 -2.0417214585677357e-08 1.4506518709822558e-05" pbc="T T T"
Nb       1.88637585       1.33386853       3.26729861      -0.00000022      -0.00000825      -0.00000268
Nb       5.65912814       4.00160733       9.80189678       0.00000511      -0.00000060       0.00000276
Hf      -0.00000005       0.00000003       0.00000041      -0.00000184       0.00000178      -0.00000607
Se       2.04655781       1.44713501       6.53459802      -0.00028776      -0.00020399       0.00000012
Se       5.49894568       3.88834191       6.53459766       0.00028795       0.00020570      -0.00000149
Se       4.63584863       1.44713507       5.03967014       0.00014272      -0.00020278      -0.00024973
Se       2.90965497       3.88834197       8.02952535      -0.00014546       0.00020721       0.00025071
Se       2.90965460       3.88834224       5.03967055      -0.00014598       0.00020802      -0.00024610
Se       4.63584873       1.44713504       8.02952548       0.00014535      -0.00020664       0.00025233
