9
Lattice="4.41301068092495 1.3634556901133875e-08 2.5478530115376494 1.4710035996637385 4.160626560428545 2.547852965637203 8.014185747495332e-08 4.525242934169263e-10 5.0957058842655405" Properties=species:S:1:pos:R:3:forces:R:3 energy=-71.44046020507812 free_energy=-71.44046020507812 stress="-0.00010986574488924816 -7.666247370252677e-08 -1.3140305554770748e-07 -7.666247370252677e-08 -0.00011012105824192986 -9.523805033495591e-08 -1.3140305554770748e-07 -9.523805033495591e-08 -0.00010975023178616539" pbc="T T T"
Nb       1.47100363       1.04015694       2.54785234      -0.00000101      -0.00000100      -0.00000991
Nb       4.41301097       3.12046788       7.64355972       0.00000596      -0.00002905       0.00001553
Hf      -0.00000004      -0.00000013      -0.00000013       0.00000274       0.00000664       0.00000539
O        1.57229692       1.11178302       5.09570590       0.00130650       0.00093628      -0.00000323
O        4.31171700       3.04884408       5.09570571      -0.00131141      -0.00093168      -0.00000327
O        3.62686233       1.11178237       3.90950260      -0.00065503       0.00092953       0.00113310
O        2.25715188       3.04884450       6.28190898       0.00065185      -0.00092560      -0.00114013
O        2.25715305       3.04884477       3.90950247       0.00066065      -0.00091892       0.00112964
O        3.62686171       1.11178287       6.28190993      -0.00066069       0.00093363      -0.00112681
