9
Lattice="5.415480259197331 -9.115237195844248e-08 3.126628932999098 1.8051599927456239 5.10576368071087 3.126628946360495 -4.566054713718478e-08 -1.5922581982314225e-08 6.253257945084566" Properties=species:S:1:pos:R:3:forces:R:3 energy=-53.04224395751953 free_energy=-53.04224395751953 stress="-7.097065099515021e-05 9.298863901108234e-09 7.645441613135517e-09 9.298863901108234e-09 -7.096660556271672e-05 3.459600250721451e-08 7.645441613135517e-09 3.459600250721451e-08 -7.093520980561152e-05" pbc="T T T"
Nb       1.80515991       1.27644007       3.12662862       0.00000039      -0.00000570      -0.00000462
Nb       5.41548015       3.82932306       9.37988740       0.00000007       0.00000455       0.00000780
Hf       0.00000015       0.00000010      -0.00000010      -0.00000061      -0.00000048       0.00000192
S        1.95359376       1.38139942       6.25325812      -0.00206345      -0.00145918       0.00000088
S        5.26704624       3.72436449       6.25325761       0.00206125       0.00146055      -0.00000168
S        4.43868368       1.38139923       4.81849100       0.00103313      -0.00145924      -0.00178775
S        2.78195698       3.72436445       7.68802505      -0.00103131       0.00146028       0.00178388
S        2.78195700       3.72436435       4.81849065      -0.00103018       0.00145808      -0.00178671
S        4.43868301       1.38139912       7.68802499       0.00103092      -0.00145835       0.00178653
