9
Lattice="6.139761778472575 8.94318005372019e-08 3.544793043708051 2.0465873461099044 5.788622929086794 3.5447930397210325 -4.03181109437653e-09 -7.734062339566411e-09 7.089586094399427" Properties=species:S:1:pos:R:3:forces:R:3 energy=-44.81589126586914 free_energy=-44.81589126586914 stress="4.218512458464829e-06 -1.8686796554590046e-09 -5.414910297929509e-09 -1.8686796554590046e-09 4.226379587635165e-06 7.3863968275134084e-09 -5.414910297929509e-09 7.3863968275134084e-09 4.1996581785497256e-06" pbc="T T T"
Nb       2.04658800       1.44715470       3.54479297       0.00000360      -0.00000856      -0.00000049
Nb       6.13976193       4.34146720      10.63437884       0.00000163       0.00000178      -0.00000559
Hf       0.00000022       0.00000014      -0.00000026      -0.00000450       0.00000373       0.00000203
Te       2.18918562       1.54798812       7.08958617      -0.00123130      -0.00086917       0.00000055
Te       5.99716293       4.24063530       7.08958607       0.00123268       0.00087458       0.00000141
Te       5.04516879       1.54798780       5.44068338       0.00061555      -0.00087297      -0.00106798
Te       3.14118024       4.24063533       8.73848915      -0.00061469       0.00087082       0.00106613
Te       3.14117975       4.24063535       5.44068337      -0.00061806       0.00087120      -0.00106433
Te       5.04516899       1.54798806       8.73848903       0.00061528      -0.00087166       0.00106837
