9
Lattice="5.664739174697781 6.466236483033927e-08 3.2705386741238907 1.888246458297221 5.340767412365151 3.2705386641351195 -5.840052752608316e-09 -1.636323050349045e-08 6.5410773583630135" Properties=species:S:1:pos:R:3:forces:R:3 energy=-44.76732635498047 free_energy=-44.76732635498047 stress="-8.97162826731801e-05 2.8980085886587403e-08 -5.3025829060970864e-08 2.8980085886587403e-08 -8.969505142886192e-05 -1.852711584149347e-08 -5.3025829060970864e-08 -1.852711584149347e-08 -8.972620707936585e-05" pbc="T T T"
Nb       1.88824725       1.33519376       3.27053893       0.00000680       0.00002191       0.00000350
Nb       5.66473903       4.00557568       9.81161394      -0.00000056       0.00000135      -0.00001994
Ir      -0.00000009       0.00000001      -0.00000017       0.00000187       0.00000036      -0.00000164
Se       1.98614921       1.40441902       6.54107738       0.00137919       0.00097066       0.00000121
Se       5.56683714       3.93634743       6.54107882      -0.00137782      -0.00098196       0.00001201
Se       4.67166454       1.40441905       4.99059432      -0.00069091       0.00097367       0.00119799
Se       2.88132060       3.93634782       8.09156075       0.00068781      -0.00097734      -0.00119376
Se       2.88132049       3.93634707       4.99059367       0.00068772      -0.00098801       0.00119102
Se       4.67166431       1.40442001       8.09156121      -0.00069389       0.00097966      -0.00118989
