9
Lattice="5.303863611514278 -1.6710602356466373e-08 3.062187165013897 1.7679545758348383 5.000530471502661 3.062187070758651 -4.83096637074152e-09 -1.1885464411485493e-07 6.12437433839528" Properties=species:S:1:pos:R:3:forces:R:3 energy=-48.79400634765625 free_energy=-48.79400634765625 stress="3.0732026061741635e-05 1.5554801890971248e-08 3.684637306378136e-08 1.5554801890971248e-08 3.066971476073377e-05 3.238331913735237e-08 3.684637306378136e-08 3.238331913735237e-08 3.071797254960984e-05" pbc="T T T"
Nb       1.76795607       1.25012962       3.06218733       0.00001586      -0.00003240      -0.00000619
Nb       5.30386165       3.75040034       9.18656407      -0.00001863       0.00002928       0.00002886
Ir      -0.00000078      -0.00000053      -0.00000086      -0.00000147       0.00000083      -0.00000057
S        1.90195609       1.34488488       6.12437455       0.00156033       0.00109172       0.00000429
S        5.16986190       3.65564570       6.12437314      -0.00156248      -0.00108659      -0.00000743
S        4.35288564       1.34488617       4.70932914      -0.00077772       0.00109410       0.00133967
S        2.71893230       3.65564508       7.53941930       0.00078022      -0.00110054      -0.00134981
S        2.71893390       3.65564520       4.70932866       0.00078624      -0.00109130       0.00134206
S        4.35288599       1.34488483       7.53941892      -0.00078201       0.00109506      -0.00135112
