9
Lattice="4.407105508581903 4.382734815970066e-08 2.544443610700984 1.4690352059305132 4.155058973406703 2.544443619218435 1.2062283573456629e-07 9.572499470641756e-08 5.0888870124770555" Properties=species:S:1:pos:R:3:forces:R:3 energy=-63.66929244995117 free_energy=-63.66929244995117 stress="6.980464968364686e-05 5.156032401032462e-08 -2.3332982834745053e-07 5.156032401032462e-08 6.969855166971684e-05 -2.2797557619469444e-07 -2.3332982834745053e-07 -2.2797557619469444e-07 6.9846682890784e-05" pbc="T T T"
Nb       1.46903564       1.03876677       2.54444277       0.00000417       0.00002876      -0.00001196
Nb       4.40710483       3.11629588       7.63333474      -0.00001129       0.00002636       0.00006552
Ir      -0.00000013      -0.00000040       0.00000016       0.00000637       0.00000363      -0.00000962
O        1.55661130       1.10068806       5.08888674      -0.00619251      -0.00441211      -0.00000418
O        4.31952997       3.05436981       5.08888550       0.00619680       0.00438827      -0.00002229
O        3.62880153       1.10069052       3.89250735       0.00311506      -0.00438035      -0.00537628
O        2.24733916       3.05436794       6.28526662      -0.00312445       0.00436962       0.00537586
O        2.24734063       3.05436872       3.89250693      -0.00309628       0.00437415      -0.00538313
O        3.62880043       1.10068917       6.28526625       0.00310129      -0.00439817       0.00536621
