9
Lattice="5.303766359606093 -5.274956555643296e-08 3.0621310394633503 1.7679221289816625 5.000438672539922 3.0621309375395387 7.600406068650088e-08 -7.108766560584538e-08 6.12426194728388" Properties=species:S:1:pos:R:3:forces:R:3 energy=-48.79400634765625 free_energy=-48.79400634765625 stress="1.939403409778606e-05 3.2987678366680484e-08 8.44124681265157e-09 3.2987678366680484e-08 1.9511859136400744e-05 -1.568665553008941e-08 8.44124681265157e-09 -1.568665553008941e-08 1.953403807419818e-05" pbc="T T T"
Nb       1.76791869       1.25010986       3.06213267      -0.00003883       0.00000028       0.00001912
Nb       5.30376841       3.75032782       9.18639174       0.00003083      -0.00000779      -0.00001694
Ir       0.00000016      -0.00000001       0.00000074      -0.00000001       0.00000039       0.00000084
S        1.90196229       1.34489089       6.12426098       0.00118256       0.00084519      -0.00000549
S        5.16972613       3.65554802       6.12426279      -0.00118279      -0.00084192       0.00000372
S        4.35278596       1.34488960       4.70927991      -0.00058562       0.00083780       0.00103569
S        2.71890324       3.65554939       7.53924360       0.00058842      -0.00083369      -0.00103414
S        2.71890307       3.65554753       4.70927916       0.00058621      -0.00084186       0.00102746
S        4.35278644       1.34489109       7.53924423      -0.00058132       0.00084114      -0.00103009
