9
Lattice="4.407361318590675 -1.4386474397558705e-07 2.5445912230770302 1.4691203028651054 4.15530009353678 2.544591224857828 -1.8855997877911127e-07 -1.311510277617375e-07 5.089182772749552" Properties=species:S:1:pos:R:3:forces:R:3 energy=-63.66930389404297 free_energy=-63.66930389404297 stress="-2.7696058168658055e-05 5.878570519257664e-08 5.649023933074204e-07 5.878570519257664e-08 -2.7635162041406147e-05 2.5422227167837264e-07 5.649023933074204e-07 2.5422227167837264e-07 -2.784806929412298e-05" pbc="T T T"
Nb       1.46911980       1.03882415       2.54459232      -0.00000682      -0.00001126       0.00001400
Nb       4.40736079       3.11647582       7.63376609      -0.00000923       0.00001448      -0.00012701
Ir       0.00000012       0.00000004      -0.00000007      -0.00000544      -0.00000640       0.00000991
O        1.55642969       1.10056243       5.08918347      -0.00016063      -0.00011349       0.00000761
O        4.32005188       3.05473726       5.08918561       0.00016975       0.00011295       0.00004576
O        3.62914543       1.10056042       3.89250011       0.00006720      -0.00013596      -0.00011939
O        2.24733686       3.05473868       6.28586684      -0.00005099       0.00012273       0.00014710
O        2.24733452       3.05473764       3.89249987      -0.00009036       0.00011498      -0.00012714
O        3.62914647       1.10056274       6.28586655       0.00008675      -0.00009894       0.00014997
