9
Lattice="4.421253200770088 2.364993420603346e-08 2.552611740151013 1.4737510891629577 4.168397490728938 2.552611740251075 2.355719572530146e-08 1.6779986402196784e-08 5.105223439499771" Properties=species:S:1:pos:R:3:forces:R:3 energy=-66.1461410522461 free_energy=-66.1461410522461 stress="3.774904939746193e-07 6.470185098805814e-08 -9.687841640015904e-09 6.470185098805814e-08 3.4456795106052596e-07 -6.321768353245716e-08 -9.687841640015904e-09 -6.321768353245716e-08 2.671119432307023e-07" pbc="T T T"
Nb       1.47375056       1.04209926       2.55261186      -0.00000755      -0.00000246       0.00000175
Nb       4.42125338       3.12629803       7.65783603      -0.00000134      -0.00000217       0.00001048
Mo       0.00000037       0.00000022       0.00000098      -0.00001333      -0.00000461      -0.00002902
O        1.55421877       1.09899871       5.10522350       0.00285438       0.00201829      -0.00000806
O        4.34078504       3.06939830       5.10522327      -0.00283018      -0.00200270      -0.00000611
O        3.64414425       1.09899877       3.89860423      -0.00143334       0.00202598       0.00247124
O        2.25086061       3.06939870       6.31184179       0.00141513      -0.00200368      -0.00245813
O        2.25086057       3.06939929       3.89860453       0.00142872      -0.00202465       0.00247455
O        3.64414382       1.09899878       6.31184150      -0.00141270       0.00199528      -0.00245687
