9
Lattice="5.601909666262839 -5.9422583487573166e-08 3.234264177833271 1.8673031613218187 5.281531065941724 3.2342641860461065 6.570800728934343e-08 5.6521197879856626e-08 6.4685282418569265" Properties=species:S:1:pos:R:3:forces:R:3 energy=-47.1325569152832 free_energy=-47.1325569152832 stress="-0.0001702604495221749 3.1029732117104913e-09 2.325054593299569e-09 3.1029732117104913e-09 -0.00017013195611070842 -3.55815359398548e-08 2.325054593299569e-09 -3.55815359398548e-08 -0.00017012162425089628" pbc="T T T"
Nb       1.86730356       1.32038698       3.23426365       0.00000101       0.00004303      -0.00000229
Nb       5.60191096       3.96114530       9.70279045       0.00001338      -0.00003282      -0.00002474
Mo      -0.00000026      -0.00000024       0.00000016       0.00000080       0.00000506       0.00000780
Se       1.99690858       1.41202899       6.46852897       0.00108868       0.00078371       0.00000694
Se       5.47230438       3.86950165       6.46852905      -0.00109333      -0.00078970       0.00000691
Se       4.60345408       1.41202838       4.96363850      -0.00055057       0.00077415       0.00094470
Se       2.86575743       3.86950211       7.97341854       0.00054681      -0.00078866      -0.00094497
Se       2.86575705       3.86950217       4.96363865       0.00053939      -0.00077838       0.00094867
Se       4.60345570       1.41202890       7.97341841      -0.00054613       0.00078365      -0.00094324
