9
Lattice="5.2661133326362615 1.2697929273644873e-07 3.040391763812464 1.755371280265083 4.964938877523907 3.0403916777829627 1.7250725477205943e-07 1.6616939639723264e-08 6.0807832288336465" Properties=species:S:1:pos:R:3:forces:R:3 energy=-51.54659652709961 free_energy=-51.54659652709961 stress="-0.0003723435802385211 -9.294377179003277e-08 5.1254737343242596e-08 -9.294377179003277e-08 -0.000372429407434538 8.32740738587745e-08 5.1254737343242596e-08 8.32740738587745e-08 -0.00037241788231767714" pbc="T T T"
Nb       1.75537272       1.24123264       3.04039003       0.00002055      -0.00002448      -0.00001745
Nb       5.26611054       3.72370526       9.12117493      -0.00003064       0.00001607      -0.00000016
Mo      -0.00000039       0.00000005       0.00000123       0.00001018       0.00000699      -0.00000703
S        1.90027463       1.34369562       6.08078266       0.00459647       0.00324285      -0.00000166
S        5.12121105       3.62124350       6.08078253      -0.00461113      -0.00325233      -0.00000714
S        4.31597614       1.34369591       4.68607770      -0.00230098       0.00324941       0.00398469
S        2.70550921       3.62124218       7.47549009       0.00230259      -0.00324464      -0.00396842
S        2.70550908       3.62124376       4.68607775       0.00231016      -0.00324404       0.00398421
S        4.31597626       1.34369706       7.47549024      -0.00229728       0.00324941      -0.00396758
