9
Lattice="5.134771963746895 -1.073365390317304e-07 2.9645619072333664 1.711590516157326 4.841109457430574 2.964561971712738 -1.6989122162661182e-07 -4.116054144738828e-08 5.929124108726937" Properties=species:S:1:pos:R:3:forces:R:3 energy=-50.11720275878906 free_energy=-50.11720275878906 stress="-8.17187101347372e-05 -5.201363961759853e-08 1.337720476612958e-07 -5.201363961759853e-08 -8.164611062966287e-05 5.5702756185382896e-08 1.337720476612958e-07 5.5702756185382896e-08 -8.15985695226118e-05" pbc="T T T"
Nb       1.71159087       1.21028234       2.96455874       0.00000491       0.00004662      -0.00004951
Nb       5.13477146       3.63083224       8.89369523      -0.00000282      -0.00001099       0.00008436
Mn       0.00000006      -0.00000139       0.00000038      -0.00000003      -0.00000963      -0.00000573
S        1.82556774       1.29087169       5.92912438       0.00213277       0.00151151       0.00000650
S        5.02079562       3.55023595       5.92912020      -0.00213611      -0.00152344      -0.00002258
S        4.22198883       1.29087286       4.54554956      -0.00105697       0.00151587       0.00184375
S        2.62437287       3.55023618       7.31269720       0.00105941      -0.00151891      -0.00185281
S        2.62437612       3.55023627       4.54554877       0.00107419      -0.00151104       0.00184000
S        4.22198595       1.29087082       7.31269706      -0.00107574       0.00149977      -0.00184423
