9
Lattice="5.452877381649371 -1.3175653044489637e-07 3.1482203344134025 1.81762575982709 5.14102176230405 3.1482201782426578 -3.411970147908391e-08 -2.1539555328949463e-07 6.296440727923875" Properties=species:S:1:pos:R:3:forces:R:3 energy=-46.265228271484375 free_energy=-46.265228271484375 stress="7.400042522931471e-05 -6.67573019086376e-09 3.828939654226815e-08 -6.67573019086376e-09 7.393811392830685e-05 1.78155645791378e-09 3.828939654226815e-08 1.78155645791378e-09 7.395954889943823e-05" pbc="T T T"
Nb       1.81762842       1.28525272       3.14821969       0.00002902      -0.00002731      -0.00001012
Nb       5.45287528       3.85576656       9.44466202      -0.00002407       0.00000959       0.00001241
Mn      -0.00000012       0.00000011       0.00000032      -0.00000111       0.00000255      -0.00000381
Se       1.95802828       1.38453462       6.29644053      -0.00181103      -0.00128365      -0.00000070
Se       5.31247427       3.75648783       6.29643985       0.00180387       0.00128928      -0.00000815
Se       4.47386281       1.38453470       4.84392222       0.00090072      -0.00127879      -0.00157386
Se       2.79664071       3.75648660       7.74895891      -0.00089970       0.00128400       0.00157416
Se       2.79664051       3.75648798       4.84392272      -0.00089699       0.00128683      -0.00156695
Se       4.47386228       1.38453455       7.74895887       0.00089976      -0.00128284       0.00157708
