9
Lattice="5.266399080611018 -3.7258925804233173e-07 3.040556600927902 1.7554660960521458 4.965207952566257 3.040556450016007 2.847810454276223e-07 1.6542032935844528e-08 6.081112708600531" Properties=species:S:1:pos:R:3:forces:R:3 energy=-51.546607971191406 free_energy=-51.546607971191406 stress="-0.0002885637222789228 1.5334740055550355e-07 -1.7547688457852928e-07 1.5334740055550355e-07 -0.0002884394198190421 -1.1823888712569897e-07 -1.7547688457852928e-07 -1.1823888712569897e-07 -0.00028828904032707214" pbc="T T T"
Nb       1.75546044       1.24130089       3.04056339      -0.00007061      -0.00001155       0.00007995
Nb       5.26640588       3.72390887       9.12166405       0.00007653       0.00002936      -0.00006699
Mo       0.00000066      -0.00000026      -0.00000138      -0.00000053       0.00000073       0.00000153
S        1.90035608       1.34375545       6.08111308       0.00278151       0.00197715      -0.00000619
S        5.12150962       3.62145220       6.08111506      -0.00278592      -0.00197977       0.00001693
S        4.31621874       1.34375231       4.68631307      -0.00140190       0.00195080       0.00242227
S        2.70564461       3.62145468       7.47591142       0.00139451      -0.00195944      -0.00243562
S        2.70564243       3.62145226       4.68631322       0.00137323      -0.00197411       0.00242227
S        4.31622350       1.34375416       7.47591105      -0.00136644       0.00196618      -0.00243342
