9
Lattice="4.2675898191021195 4.091270964527627e-08 2.4638942156636863 1.4225299504144233 4.0235221998261 2.463894263917168 -4.5547148335559375e-09 5.587752646909675e-08 4.927788439216377" Properties=species:S:1:pos:R:3:forces:R:3 energy=-67.14851379394531 free_energy=-67.14851379394531 stress="-0.0002408006985206157 2.538967081022747e-08 -1.2417885386639682e-07 2.538967081022747e-08 -0.0002408644068054855 -8.913987414871372e-08 -1.2417885386639682e-07 -8.913987414871372e-08 -0.00024082354502752423" pbc="T T T"
Nb       1.42252886       1.00588045       2.46389358      -0.00001359      -0.00000125      -0.00001073
Nb       4.26758906       3.01764168       7.39168349      -0.00001253       0.00000002       0.00001640
Mn      -0.00000000       0.00000022       0.00000010      -0.00000140      -0.00000714       0.00000337
O        1.46764735       1.03778265       4.92778841      -0.00560138      -0.00397325       0.00000042
O        4.22247274       2.98573956       4.92778791       0.00561197       0.00397307      -0.00000605
O        3.53376726       1.03778327       3.73491399       0.00281567      -0.00396535      -0.00485715
O        2.15635335       2.98573889       6.12066306      -0.00280569       0.00396687       0.00485949
O        2.15635341       2.98573913       3.73491387      -0.00280260       0.00396691      -0.00486186
O        3.53376704       1.03778346       6.12066323       0.00280997      -0.00396024       0.00485642
