9
Lattice="5.601908906571573 1.6569511456463096e-07 3.2342636591060443 1.8673030997054443 5.281530399133591 3.2342637030492343 1.0055206608338235e-07 1.2492025116503608e-07 6.468527144050851" Properties=species:S:1:pos:R:3:forces:R:3 energy=-47.13256072998047 free_energy=-47.13256072998047 stress="-0.00016651082842145115 -1.0433650743379985e-07 -9.242911147566701e-08 -1.0433650743379985e-07 -0.00016651785699650645 8.712331300841925e-09 -9.242911147566701e-08 8.712331300841925e-09 -0.00016658187087159604" pbc="T T T"
Nb       1.86730430       1.32038360       3.23426502       0.00001295       0.00000959       0.00001978
Nb       5.60190864       3.96114416       9.70278216      -0.00000455      -0.00003749      -0.00008608
Mo       0.00000009       0.00000037       0.00000038       0.00000372       0.00000249       0.00000000
Se       1.99691434       1.41203386       6.46852717       0.00095946       0.00069609      -0.00000122
Se       5.47229722       3.86949852       6.46853036      -0.00097048      -0.00068828       0.00002885
Se       4.60345033       1.41203226       4.96364275      -0.00049478       0.00068691       0.00083518
Se       2.86576237       3.86949769       7.97341344       0.00049698      -0.00068274      -0.00081593
Se       2.86575907       3.86949880       4.96364419       0.00047255      -0.00068504       0.00084919
Se       4.60345200       1.41203342       7.97341252      -0.00047529       0.00069854      -0.00082976
