9
Lattice="5.91881891871713 7.712282320082532e-10 3.417231734117835 1.9729396573138949 5.5803159601364545 3.4172317046480516 9.794011767137334e-09 -2.9167595431041223e-08 6.834463451271923" Properties=species:S:1:pos:R:3:forces:R:3 energy=-44.26182174682617 free_energy=-44.26182174682617 stress="-2.2861577235744335e-05 8.446190413735621e-10 1.070100719147149e-08 8.446190413735621e-10 -2.2806127162766643e-05 6.4560352619480454e-09 1.070100719147149e-08 6.4560352619480454e-09 -2.280237640661653e-05" pbc="T T T"
Nb       1.97293979       1.39507899       3.41723166      -0.00000214       0.00000119      -0.00000019
Nb       5.91881900       4.18523703      10.25169521      -0.00000114       0.00000156       0.00000023
Mn       0.00000013       0.00000001      -0.00000022      -0.00000071      -0.00000023      -0.00000137
Te       2.01695056       1.42619927       6.83446367       0.00262230       0.00185271      -0.00000006
Te       5.87480796       4.15411659       6.83446357      -0.00261913      -0.00185182      -0.00000058
Te       4.91034356       1.42619948       5.16396215      -0.00130942       0.00185233       0.00226758
Te       2.98141483       4.15411656       8.50496481       0.00130908      -0.00185239      -0.00226914
Te       2.98141492       4.15411654       5.16396198       0.00131063      -0.00185454       0.00227096
Te       4.91034359       1.42619930       8.50496473      -0.00130943       0.00185119      -0.00226760
