9
Lattice="4.421229280995785 -1.2204719678622019e-08 2.552597915548453 1.4737430704019043 4.168374964021036 2.552597935911556 -2.330237075595867e-08 8.462338201851732e-09 5.105195871457804" Properties=species:S:1:pos:R:3:forces:R:3 energy=-66.1461410522461 free_energy=-66.1461410522461 stress="0.00010112739255419001 -7.98737787022219e-08 1.059516137047467e-07 -7.98737787022219e-08 0.00010108358401339501 -8.326471601094454e-08 1.059516137047467e-07 -8.326471601094454e-08 0.0001012857974274084" pbc="T T T"
Nb       1.47374288       1.04209389       2.55259772      -0.00000370      -0.00000431      -0.00000179
Nb       4.42122866       3.12628028       7.65779294      -0.00000420      -0.00000721      -0.00001116
Mo       0.00000015      -0.00000004       0.00000030      -0.00000224      -0.00000077      -0.00001119
O        1.55436942       1.09910508       5.10519597      -0.00321805      -0.00226977       0.00000130
O        4.34060269       3.06926986       5.10519588       0.00322172       0.00227560      -0.00000001
O        3.64404474       1.09910501       3.89872161       0.00161162      -0.00227614      -0.00278673
O        2.25092843       3.06927015       6.31167029      -0.00161068       0.00228275       0.00279611
O        2.25092784       3.06926979       3.89872190      -0.00161320       0.00227883      -0.00279182
O        3.64404443       1.09910581       6.31167047       0.00161861      -0.00227930       0.00280502
