9
Lattice="5.1382539663324955 -5.4916359332780404e-08 2.9665723343674086 1.7127512095450073 4.844392383220928 2.9665724396591626 -4.153497879844295e-08 9.95858239164366e-08 5.933144740675666" Properties=species:S:1:pos:R:3:forces:R:3 energy=-46.65078353881836 free_energy=-46.65078353881836 stress="0.00018550788809079677 2.8048194877783317e-09 1.152036865903483e-08 2.8048194877783317e-09 0.00018542334146331996 -1.7035144850297e-08 1.152036865903483e-08 -1.7035144850297e-08 0.00018549340893514454" pbc="T T T"
Nb       1.71275220       1.21109906       2.96657119       0.00000627       0.00000609      -0.00001611
Nb       5.13825469       3.63329455       8.89971949       0.00000277       0.00000183       0.00002609
Ni      -0.00000012      -0.00000064      -0.00000131      -0.00001139       0.00001586       0.00002968
S        1.77277599       1.25354172       5.93314434      -0.00142574      -0.00101033       0.00000148
S        5.07822961       3.59085026       5.93314348       0.00142235       0.00100338      -0.00000726
S        4.25186604       1.25354216       4.50184149       0.00072068      -0.00101528      -0.00124824
S        2.59913802       3.59085008       7.36444882      -0.00070506       0.00098798       0.00121617
S        2.59913884       3.59085103       4.50184214      -0.00071371       0.00101316      -0.00123233
S        4.25186521       1.25354158       7.36444846       0.00070384      -0.00100210       0.00123042
