9
Lattice="5.889648470911204 7.626746379564553e-08 3.400390126615062 1.9632161839387663 5.552814049975965 3.400390204448726 5.008744856244524e-09 9.886808143278933e-08 6.800780244554703" Properties=species:S:1:pos:R:3:forces:R:3 energy=-41.241600036621094 free_energy=-41.241600036621094 stress="-0.00013294666132424027 3.333713305408992e-09 -3.20444080159632e-08 3.333713305408992e-09 -0.00013302042498253286 -5.330439201145509e-09 -3.20444080159632e-08 -5.330439201145509e-09 -0.00013299226702656597" pbc="T T T"
Nb       1.96321685       1.38820467       3.40038968       0.00000411       0.00000380      -0.00000160
Nb       5.88964873       4.16461030      10.20117140       0.00000115      -0.00000258       0.00000177
Ni      -0.00000004       0.00000000      -0.00000003      -0.00000160      -0.00000064       0.00000176
Te       2.01362376       1.42384758       6.80078020      -0.00037159      -0.00026169      -0.00000066
Te       5.83924063       4.12896654       6.80078004       0.00037375       0.00026175       0.00000060
Te       4.88283641       1.42384741       5.14423961       0.00018365      -0.00026287      -0.00032040
Te       2.97002786       4.12896646       8.45732094      -0.00018591       0.00026171       0.00031975
Te       2.97002849       4.12896671       5.14423955      -0.00018710       0.00026216      -0.00032072
Te       4.88283597       1.42384722       8.45732095       0.00018369      -0.00026165       0.00031938
