9
Lattice="4.267038501309577 -1.9099528602807614e-08 2.463575807396801 1.4223461406383786 4.023002435203002 2.4635758220458026 1.592732608239858e-08 2.9203607066890323e-08 4.9271515872066844" Properties=species:S:1:pos:R:3:forces:R:3 energy=-60.24647521972656 free_energy=-60.24647521972656 stress="-0.0009940924355760217 -7.119212330763958e-09 -2.473925775348107e-08 -7.119212330763958e-09 -0.0009941564640030265 1.0139899586647516e-07 -2.473925775348107e-08 1.0139899586647516e-07 -0.000994012109003961" pbc="T T T"
Nb       1.42234707       1.00575144       2.46357481       0.00001252       0.00001620      -0.00001178
Nb       4.26703853       3.01725142       7.39072737       0.00000163      -0.00000649       0.00000001
Ni      -0.00000009       0.00000004      -0.00000013       0.00000403      -0.00000448       0.00000614
O        1.44479682       1.02162568       4.92715174      -0.00344148      -0.00243519       0.00000349
O        4.24458781       3.00137686       4.92715165       0.00343632       0.00243010       0.00000175
O        3.54463984       1.02162527       3.71480671       0.00171965      -0.00243542      -0.00297994
O        2.14474397       3.00137642       6.13949695      -0.00172599       0.00242697       0.00298249
O        2.14474465       3.00137689       3.71480656      -0.00171970       0.00243397      -0.00298362
O        3.54463997       1.02162581       6.13949718       0.00171244      -0.00242608       0.00298101
