9
Lattice="5.460869250293582 -2.2983674019008896e-08 3.152834352801514 1.8202896931194141 5.148556731013421 3.152834413958847 -7.162391617741487e-09 6.983754509276604e-08 6.305668718008621" Properties=species:S:1:pos:R:3:forces:R:3 energy=-42.866973876953125 free_energy=-42.866973876953125 stress="0.00042239497997798026 2.345421101779266e-08 -1.620782441591473e-08 2.345421101779266e-08 0.00042236800072714686 3.527417291593338e-08 -1.620782441591473e-08 3.527417291593338e-08 0.0004224131116643548" pbc="T T T"
Nb       1.82029006       1.28713867       3.15283481       0.00000403      -0.00000461       0.00000551
Nb       5.46086987       3.86141750       9.45850321       0.00000436      -0.00000064      -0.00000335
Ni       0.00000015      -0.00000013       0.00000044      -0.00000333       0.00000651      -0.00001478
Se       1.90766736       1.34892497       6.30566854       0.00859141       0.00607708      -0.00000175
Se       5.37349159       3.79963183       6.30566863      -0.00859395      -0.00608015       0.00000102
Se       4.50703491       1.34892452       4.80492246      -0.00430122       0.00607556       0.00744241
Se       2.77412320       3.79963266       7.80641421       0.00429682      -0.00607157      -0.00744244
Se       2.77412316       3.79963248       4.80492287       0.00429933      -0.00607741       0.00745094
Se       4.50703539       1.34892462       7.80641484      -0.00429726       0.00607502      -0.00743741
