9
Lattice="4.372506567296435 7.194362193245673e-11 2.5244677906026705 1.4575022369887596 4.122438634450944 2.5244677077723345 1.1727447440184966e-07 -1.8520455285540702e-08 5.04893537807999" Properties=species:S:1:pos:R:3:forces:R:3 energy=-67.67365264892578 free_energy=-67.67365264892578 stress="-6.234983447939157e-05 3.2435440999734055e-08 -9.493339803157141e-08 3.2435440999734055e-08 -6.239735375856981e-05 -1.3768037376848952e-07 -9.493339803157141e-08 -1.3768037376848952e-07 -6.244253745535389e-05" pbc="T T T"
Nb       1.45750266       1.03060985       2.52446718       0.00000668       0.00000107      -0.00000472
Nb       4.37250680       3.09182826       7.57340507      -0.00000056      -0.00000867       0.00002841
Os      -0.00000008      -0.00000008      -0.00000011      -0.00000423       0.00000032      -0.00000385
O        1.54604646       1.09322009       5.04893541      -0.00041133      -0.00028938       0.00000096
O        4.28396247       3.02921842       5.04893446       0.00041425       0.00029108      -0.00001240
O        3.59948319       1.09322064       3.86338245       0.00020215      -0.00027966      -0.00036097
O        2.23052541       3.02921846       6.23448792      -0.00020397       0.00028396       0.00035447
O        2.23052553       3.02921900       3.86338357      -0.00020701       0.00029448      -0.00035393
O        3.59948323       1.09321980       6.23448743       0.00020412      -0.00029430       0.00035203
