9
Lattice="4.20217830413288 -7.354886122957079e-09 2.4261289213712827 1.4007261107202367 3.961851733225027 2.426128893178928 1.576617721455635e-08 -2.33800645739283e-08 4.8522578154347515" Properties=species:S:1:pos:R:3:forces:R:3 energy=-69.9872055053711 free_energy=-69.9872055053711 stress="0.0005806928966194391 -1.2066792010045901e-07 -1.850439979023122e-08 -1.2066792010045901e-07 0.0005806810804642737 -5.000565295176784e-09 -1.850439979023122e-08 -5.000565295176784e-09 0.0005808823625557125" pbc="T T T"
Nb       1.40072635       0.99046271       2.42612855       0.00000214      -0.00000311      -0.00000332
Nb       4.20217808       2.97138916       7.27838730      -0.00000263       0.00000236       0.00000428
P        0.00000007       0.00000030       0.00000005      -0.00000234      -0.00001010      -0.00000077
O        1.37346233       0.97118409       4.85225768      -0.00038368      -0.00026917      -0.00000062
O        4.22944200       2.99066724       4.85225800       0.00038838       0.00027335      -0.00000262
O        3.51544702       0.97118457       3.61558232       0.00019866      -0.00027522      -0.00034088
O        2.08745739       2.99066707       6.08893321      -0.00020090       0.00028160       0.00034642
O        2.08745753       2.99066706       3.61558239      -0.00019827       0.00028139      -0.00034505
O        3.51544705       0.97118463       6.08893304       0.00019822      -0.00028110       0.00034350
