9
Lattice="5.500543018858541 5.5964778892933905e-09 3.1757400316617326 1.8335143425704665 5.185961691224714 3.17574003568952 9.875913792983495e-10 5.631335853202164e-09 6.3514800616129135" Properties=species:S:1:pos:R:3:forces:R:3 energy=-41.372703552246094 free_energy=-41.372703552246094 stress="-0.00015312331379391253 1.1913130926188842e-08 -7.1892305442133875e-09 1.1913130926188842e-08 -0.00015315852942876518 -8.818414443112488e-09 -7.1892305442133875e-09 -8.818414443112488e-09 -0.00015318463556468487" pbc="T T T"
Nb       1.83351402       1.29649015       3.17574057      -0.00000112      -0.00000388      -0.00000043
Nb       5.50054305       3.88947190       9.52722033      -0.00000085       0.00000705       0.00000369
Pb      -0.00000015       0.00000006       0.00000006      -0.00000023       0.00000056       0.00000014
S        2.00479792       1.41760603       6.35148050      -0.00709030      -0.00501697       0.00000162
S        5.32925959       3.76835563       6.35147984       0.00709236       0.00501609      -0.00000079
S        4.49814410       1.41760605       4.91194592       0.00354493      -0.00501354      -0.00614098
S        2.83591362       3.76835576       7.79101399      -0.00354344       0.00501750       0.00613722
S        2.83591303       3.76835552       4.91194591      -0.00354594       0.00501242      -0.00613898
S        4.49814429       1.41760566       7.79101353       0.00354497      -0.00501899       0.00613812
