9
Lattice="5.5921123608517735 3.746295007451452e-08 3.228607572410434 1.864037505296636 5.272294228007159 3.2286075440758486 -1.2863164926939717e-07 -1.2565893423817423e-07 6.45721536761741" Properties=species:S:1:pos:R:3:forces:R:3 energy=-41.775081634521484 free_energy=-41.775081634521484 stress="-0.00011975214874837548 -5.0112632266063883e-08 1.5948968368206806e-08 -5.0112632266063883e-08 -0.00011977667600149289 -3.945558191276177e-08 1.5948968368206806e-08 -3.945558191276177e-08 -0.00011966755846515298" pbc="T T T"
Nb       1.86403756       1.31807290       3.22860550      -0.00000080      -0.00000606      -0.00001604
Nb       5.59210966       3.95422187       9.68582434      -0.00001810       0.00001041       0.00001061
P        0.00000009      -0.00000005       0.00000020       0.00000270       0.00000155      -0.00000247
Se       1.88269684       1.33126698       6.45721563       0.00175560       0.00123316       0.00000556
Se       5.57345343       3.94102696       6.45721439      -0.00175321      -0.00123906      -0.00000526
Se       4.65076464       1.33126747       4.85907118      -0.00087121       0.00123698       0.00151813
Se       2.80538639       3.94102635       8.05536027       0.00087991      -0.00123817      -0.00151169
Se       2.80538656       3.94102667       4.85907065       0.00088161      -0.00123554       0.00151235
Se       4.65076375       1.33126742       8.05535977      -0.00087628       0.00123692      -0.00151122
