9
Lattice="5.633272381910037 1.1185199812220467e-07 3.2523713888154115 1.8777575529835608 5.311100073657721 3.2523714115194657 7.494505120709094e-08 8.08008045060974e-08 6.504742647822189" Properties=species:S:1:pos:R:3:forces:R:3 energy=-37.95473861694336 free_energy=-37.95473861694336 stress="0.00016396290448028594 -4.6561243749465575e-08 1.9326437339373115e-08 -4.6561243749465575e-08 0.0001639738620724529 -2.2315160830288505e-09 1.9326437339373115e-08 -2.2315160830288505e-09 0.00016391187091358006" pbc="T T T"
Nb       1.87775849       1.32777733       3.25236876       0.00001093       0.00002380      -0.00003281
Nb       5.63327085       3.98332451       9.75711582      -0.00001915      -0.00000755       0.00001882
Pb      -0.00000011      -0.00000003       0.00000013       0.00000127       0.00000355       0.00000187
Se       2.13457909       1.50937476       6.50474360       0.00455408       0.00321347       0.00001341
Se       5.37645136       3.80172474       6.50474197      -0.00454913      -0.00322285      -0.00000605
Se       4.56598351       1.50937620       5.10097052      -0.00226950       0.00322489       0.00393474
Se       2.94504675       3.80172336       7.90851569       0.00227505      -0.00323669      -0.00393192
Se       2.94504759       3.80172501       5.10097059       0.00228130      -0.00321814       0.00393616
Se       4.56598248       1.50937520       7.90851484      -0.00228482       0.00321954      -0.00393428
