9
Lattice="5.542386504322261 -1.8074918615185187e-07 3.199898296570773 1.847462032093632 5.225411931456774 3.1998982369914035 -6.267004639410641e-09 -7.740097547321697e-08 6.399796603996313" Properties=species:S:1:pos:R:3:forces:R:3 energy=-41.67129135131836 free_energy=-41.67129135131836 stress="0.00033752963645383716 2.2023293411166378e-08 -6.959086640279111e-09 2.2023293411166378e-08 0.00033756508491933346 -2.698660850342094e-08 -6.959086640279111e-09 -2.698660850342094e-08 0.0003375495143700391" pbc="T T T"
Nb       1.84746238       1.30635120       3.19989656       0.00000236      -0.00001589      -0.00001719
Nb       5.54238726       3.91905809       9.59969521       0.00000699      -0.00000634       0.00000379
Pd      -0.00000009       0.00000015       0.00000021      -0.00000606      -0.00000143      -0.00000023
Se       2.01780044       1.42680117       6.39979727      -0.00314403      -0.00221610       0.00001096
Se       5.37204718       3.79861147       6.39979596       0.00313956       0.00222683      -0.00000645
Se       4.53348612       1.42680047       4.94736520       0.00157279      -0.00222147      -0.00272113
Se       2.85636266       3.79861139       7.85222781      -0.00157100       0.00222406       0.00272012
Se       2.85636238       3.79861194       4.94736602      -0.00157225       0.00223109      -0.00271195
Se       4.53348579       1.42680078       7.85222821       0.00157177      -0.00222084       0.00272191
