9
Lattice="4.620211369679809 6.902363122494529e-08 2.667480375346202 1.5400704709069108 4.3559770155925595 2.66748046321163 9.093706674760506e-08 1.7191494797155818e-07 5.334960593184759" Properties=species:S:1:pos:R:3:forces:R:3 energy=-55.793540954589844 free_energy=-55.793540954589844 stress="0.00019221974071115255 -2.0996580474275106e-08 -2.791960014292272e-07 -2.0996580474275106e-08 0.0001922880910569802 -1.337839279358377e-07 -2.791960014292272e-07 -1.337839279358377e-07 0.00019217802037019283" pbc="T T T"
Nb       1.54007092       1.08899394       2.66747686       0.00001002      -0.00000502      -0.00005022
Nb       4.62021253       3.26698268       8.00244153       0.00001513      -0.00000540       0.00000509
Pb      -0.00000000      -0.00000001      -0.00000004      -0.00000188      -0.00000219      -0.00000975
O        1.63796466       1.15821600       5.33496236       0.00220129       0.00155654       0.00002314
O        4.52231677       3.19776187       5.33496080      -0.00220598      -0.00154687       0.00000096
O        3.80122891       1.15821647       4.08599954      -0.00109800       0.00155991       0.00190428
O        2.35905191       3.19775976       6.58392247       0.00108393      -0.00156329      -0.00189115
O        2.35905271       3.19776207       4.08600048       0.00109552      -0.00154478       0.00191760
O        3.80122929       1.15821620       6.58392179      -0.00110012       0.00155083      -0.00189933
