9
Lattice="5.630998471397448 -1.8266875780924336e-09 3.2510584053927496 1.8769994867080724 5.308956077315365 3.251058408918383 6.890704922343509e-08 5.3042639815537134e-08 6.502116691434972" Properties=species:S:1:pos:R:3:forces:R:3 energy=-43.35234069824219 free_energy=-43.35234069824219 stress="-0.0002484615833964199 5.001884240130039e-09 -1.368819013691791e-08 5.001884240130039e-09 -0.00024850957561284304 3.2373865366253085e-08 -1.368819013691791e-08 3.2373865366253085e-08 -0.0002485373988747597" pbc="T T T"
Nb       1.87699941       1.32723890       3.25105784       0.00000074      -0.00000013      -0.00000410
Nb       5.63099958       3.98171719       9.75317407       0.00000777      -0.00000032      -0.00000976
Pt       0.00000009       0.00000003       0.00000015      -0.00000098      -0.00000230       0.00000424
Se       1.95296741       1.38095664       6.50211695       0.00417429       0.00295386       0.00000298
Se       5.55503036       3.92799973       6.50211745      -0.00417662      -0.00295132       0.00000391
Se       4.65451468       1.38095627       4.94237791      -0.00208557       0.00294882       0.00361919
Se       2.85348302       3.92799958       8.06185551       0.00208524      -0.00295219      -0.00361770
Se       2.85348293       3.92799947       4.94237825       0.00208521      -0.00295228       0.00361812
Se       4.65451462       1.38095672       8.06185597      -0.00209010       0.00295573      -0.00361669
