9
Lattice="5.592775326561604 7.240117269126748e-08 3.228990410152021 1.864258495454276 5.272919522321296 3.228990436121317 1.2150895295343142e-09 3.266499981690072e-08 6.45798081819941" Properties=species:S:1:pos:R:3:forces:R:3 energy=-41.77507400512695 free_energy=-41.77507400512695 stress="-7.452406134689227e-05 4.2548322198854294e-08 -1.0613105061452188e-08 4.2548322198854294e-08 -7.447861571563408e-05 5.736257335797745e-08 -1.0613105061452188e-08 5.736257335797745e-08 -7.464582449756563e-05" pbc="T T T"
Nb       1.86425877       1.31822975       3.22899046       0.00000016       0.00000361      -0.00000009
Nb       5.59277504       3.95468988       9.68697186      -0.00000365      -0.00000001       0.00000292
P       -0.00000013      -0.00000003      -0.00000050       0.00000154      -0.00000216       0.00001151
Se       1.88242371       1.33107518       6.45798091       0.00707257       0.00499976       0.00000089
Se       5.57461004       3.94184437       6.45798009      -0.00707340      -0.00500023      -0.00000174
Se       4.65156323       1.33107490       4.85921743      -0.00353914       0.00499743       0.00612283
Se       2.80547051       3.94184491       8.05674447       0.00354284      -0.00500083      -0.00612974
Se       2.80547064       3.94184467       4.85921730       0.00354025      -0.00500321       0.00612682
Se       4.65156351       1.33107488       8.05674458      -0.00354111       0.00500631      -0.00613314
