9
Lattice="5.349042247211263 -1.4393480653958427e-07 3.0882706541126037 1.7830139585714198 5.043125433001461 3.0882706335518346 -2.7463126750336827e-08 -4.4601005282357356e-08 6.176541355792649" Properties=species:S:1:pos:R:3:forces:R:3 energy=-45.638954162597656 free_energy=-45.638954162597656 stress="-2.5664212444098666e-05 3.535583203984061e-08 1.1849569858668474e-07 3.535583203984061e-08 -2.5670125978649594e-05 3.298182349453782e-08 1.1849569858668474e-07 3.298182349453782e-08 -2.562899317126721e-05" pbc="T T T"
Nb       1.78301186       1.26078160       3.08826860      -0.00002487       0.00000548      -0.00003574
Nb       5.34904174       3.78234304       9.26481894       0.00000148      -0.00001447       0.00007936
P       -0.00000029      -0.00000015      -0.00000086       0.00000227       0.00000085       0.00000536
S        1.77780359       1.25709610       6.17654173      -0.00234520      -0.00166196       0.00001063
S        5.35425282       3.78602846       6.17653718       0.00234902       0.00165975      -0.00004305
S        4.46014347       1.25709864       4.62789273       0.00119978      -0.00164157      -0.00203609
S        2.67191489       3.78602807       7.72518946      -0.00118363       0.00165111       0.00202888
S        2.67191573       3.78602898       4.62789357      -0.00117272       0.00166756      -0.00203484
S        4.46014107       1.25709621       7.72518897       0.00117344      -0.00166708       0.00202549
