9
Lattice="6.26254659068932 -4.278198968709012e-08 3.61568297136224 2.0875155059488537 5.904385596308008 3.615682943555376 4.1314591639206963e-08 -4.842504107003913e-09 7.231365871165469" Properties=species:S:1:pos:R:3:forces:R:3 energy=-34.49610137939453 free_energy=-34.49610137939453 stress="-2.1686357740691165e-06 4.654322260932986e-09 2.1998460830729982e-09 4.654322260932986e-09 -2.1903767901676474e-06 -5.2607735945287004e-09 2.1998460830729982e-09 -5.2607735945287004e-09 -2.131735755028785e-06" pbc="T T T"
Nb       2.08751685       1.47609696       3.61568286       0.00000937       0.00000565      -0.00000069
Nb       6.26254563       4.42828850      10.84704911      -0.00000654      -0.00000503       0.00000188
Pb       0.00000019       0.00000025       0.00000020       0.00000053      -0.00000553       0.00000010
Te       2.32053327       1.64086482       7.23136585      -0.00002506      -0.00001895      -0.00000001
Te       6.02952851       4.26352112       7.23136569       0.00002663       0.00002131      -0.00000110
Te       5.10227988       1.64086503       5.62532347       0.00001061      -0.00001536      -0.00002378
Te       3.24778233       4.26352020       8.83740833      -0.00001379       0.00001618       0.00002684
Te       3.24778242       4.26352007       5.62532327      -0.00001266       0.00001703      -0.00002773
Te       5.10227946       1.64086526       8.83740837       0.00001082      -0.00001545       0.00002468
