9
Lattice="5.348061186428856 1.774458162738699e-08 3.0877044163402627 1.7826870457406339 5.042200480938525 3.0877044737266752 -1.4141426779588408e-07 -2.971126283670852e-08 6.175409077617283" Properties=species:S:1:pos:R:3:forces:R:3 energy=-47.20738220214844 free_energy=-47.20738220214844 stress="-0.00020500755636021495 4.010890819472479e-08 1.4190207231479235e-08 4.010890819472479e-08 -0.00020493126066867262 4.0620761865284294e-08 1.4190207231479235e-08 4.0620761865284294e-08 -0.0002050052717095241" pbc="T T T"
Nb       1.78268595       1.26054995       3.08770327      -0.00001077      -0.00000444      -0.00001248
Nb       5.34806258       3.78165026       9.26311451       0.00001373       0.00000109       0.00001494
Pt      -0.00000007       0.00000012      -0.00000015       0.00000131      -0.00000572       0.00000475
S        1.86890738       1.32151776       6.17540998      -0.00487542      -0.00344312       0.00000765
S        5.26184058       3.72068284       6.17540845       0.00487709       0.00344718      -0.00000585
S        4.41360759       1.32151747       4.70622587       0.00244075      -0.00344509      -0.00422013
S        2.71714031       3.72068325       7.64459150      -0.00244310       0.00344616       0.00421673
S        2.71714067       3.72068344       4.70622635      -0.00243932       0.00345069      -0.00421965
S        4.41360738       1.32151664       7.64459191       0.00243556      -0.00344646       0.00421387
