9
Lattice="4.485108632832969 -7.092593615894525e-09 2.5894787419896503 1.4950361901995726 4.228601049005601 2.5894787663384395 7.3831098157084685e-09 3.504172209994701e-08 5.178957471191396" Properties=species:S:1:pos:R:3:forces:R:3 energy=-59.591312408447266 free_energy=-59.591312408447266 stress="-3.902206663042307e-05 6.696105714354417e-08 1.0408284900620401e-08 6.696105714354417e-08 -3.917969297617674e-05 -5.376310596716394e-08 1.0408284900620401e-08 -5.376310596716394e-08 -3.887534694513306e-05" pbc="T T T"
Nb       1.49503595       1.05715167       2.58947848      -0.00000092       0.00002306      -0.00000849
Nb       4.48510691       3.17145058       7.76843686      -0.00003040      -0.00000054       0.00001131
Pd      -0.00000002       0.00000013      -0.00000033       0.00000447      -0.00000968       0.00001734
O        1.55703603       1.10098847       5.17895820      -0.00040479      -0.00031795       0.00000822
O        4.42311008       3.12761108       5.17895720       0.00042246       0.00029790      -0.00000622
O        3.70659155       1.10099045       3.93791012       0.00021838      -0.00029321      -0.00036538
O        2.27355295       3.12761074       6.42000434      -0.00021205       0.00028633       0.00036539
O        2.27355376       3.12761049       3.93791025      -0.00021491       0.00029422      -0.00038299
O        3.70659218       1.10099079       6.42000492       0.00021844      -0.00028040       0.00036085
