9
Lattice="5.321577007598126 4.9356194827781064e-08 3.0724140989293507 1.7738590459582433 5.017231212459359 3.0724141043124487 -2.4498711871620216e-09 4.8606040351801056e-09 6.1448282021019995" Properties=species:S:1:pos:R:3:forces:R:3 energy=-45.00940704345703 free_energy=-45.00940704345703 stress="4.192246342427097e-05 -4.7258904345426345e-08 1.2837783280872372e-08 -4.7258904345426345e-08 4.196020381641574e-05 -2.1564543928320745e-08 1.2837783280872372e-08 -2.1564543928320745e-08 4.188738239463419e-05" pbc="T T T"
Nb       1.77385848       1.25430929       3.07241313       0.00000001       0.00001107      -0.00000915
Nb       5.32157574       3.76292201       9.21724320      -0.00001044      -0.00001100       0.00000882
Pd       0.00000011       0.00000000       0.00000041       0.00000333       0.00000283      -0.00000919
S        1.90783157       1.34904098       6.14482860       0.00084901       0.00060576       0.00000503
S        5.18760480       3.66819021       6.14482768      -0.00085032      -0.00060570      -0.00000390
S        4.36766170       1.34904100       4.72464472      -0.00042593       0.00060683       0.00073564
S        2.72777511       3.66819030       7.56501190       0.00042522      -0.00060505      -0.00073397
S        2.72777558       3.66819017       4.72464431       0.00043184      -0.00060660       0.00073779
S        4.36766125       1.34904124       7.56501168      -0.00042289       0.00060225      -0.00073087
