9
Lattice="5.347608657866958 8.961876361410339e-08 3.087443515221917 1.7825363368277145 5.041773932495673 3.0874434579856667 2.1989870146774983e-08 -5.455064151679796e-08 6.174886992356267" Properties=species:S:1:pos:R:3:forces:R:3 energy=-45.63893127441406 free_energy=-45.63893127441406 stress="-0.00012844568118453026 1.9287163866010815e-08 1.6181804340931194e-08 1.9287163866010815e-08 -0.00012850103667005897 -5.822137438826758e-08 1.6181804340931194e-08 -5.822137438826758e-08 -0.00012859291746281087" pbc="T T T"
Nb       1.78253838       1.26044366       3.08744437       0.00002205      -0.00000160       0.00001007
Nb       5.34760810       3.78133232       9.26232985      -0.00001142       0.00002006      -0.00000820
P       -0.00000018       0.00000008      -0.00000048      -0.00000099      -0.00000259       0.00000214
S        1.77783519       1.25711814       6.17488716      -0.00391507      -0.00278056      -0.00000022
S        5.35230985       3.78465547       6.17488820       0.00391996       0.00278199       0.00001038
S        4.45868998       1.25711895       4.62709300       0.00194591      -0.00277472      -0.00340146
S        2.67145381       3.78465462       7.72268095      -0.00195831       0.00276911       0.00339848
S        2.67145361       3.78465441       4.62709329      -0.00196314       0.00277150      -0.00340593
S        4.45869121       1.25711831       7.72267975       0.00196075      -0.00278372       0.00339580
