9
Lattice="4.433040887301801 -2.235256622060689e-08 2.559417294403155 1.477680245899529 4.179510835655016 2.559417344274998 -1.3256312591894305e-07 -3.265601058451802e-08 5.11883481841237" Properties=species:S:1:pos:R:3:forces:R:3 energy=-60.26872634887695 free_energy=-60.26872634887695 stress="0.00013737341214437038 -1.4374566603692074e-07 2.8336955892882543e-07 -1.4374566603692074e-07 0.0001379962923238054 1.929797548427814e-07 2.8336955892882543e-07 1.929797548427814e-07 0.0001374485291307792" pbc="T T T"
Nb       1.47768126       1.04487648       2.55941723       0.00001670      -0.00001974       0.00000099
Nb       4.43304256       3.13463597       7.67824814       0.00003017       0.00004749      -0.00006871
Pt      -0.00000029      -0.00000011       0.00000020       0.00000854      -0.00000478      -0.00000554
O        1.56907322       1.10950062       5.11883465      -0.00194570      -0.00139812      -0.00000076
O        4.34164785       3.07000995       5.11883634       0.00193611       0.00139254       0.00003047
O        3.64850428       1.10950079       3.91827528       0.00097319      -0.00139853      -0.00167549
O        2.26221564       3.07000848       6.31939509      -0.00099012       0.00138119       0.00169870
O        2.26221541       3.07000876       3.91827506      -0.00099979       0.00138187      -0.00168294
O        3.64850403       1.10950210       6.31939574       0.00097032      -0.00138181       0.00170356
