9
Lattice="4.381748504473513 8.439048801497798e-11 2.5298036990544257 1.4605828458512489 4.131152092736807 2.5298036800933397 9.886499499298288e-09 -1.623167069310618e-08 5.059607380984923" Properties=species:S:1:pos:R:3:forces:R:3 energy=-70.94880676269531 free_energy=-70.94880676269531 stress="-0.0005024540587328374 5.936703573183877e-08 5.015127158003452e-08 5.936703573183877e-08 -0.0005023920675739646 -5.715294904007351e-08 5.015127158003452e-08 -5.715294904007351e-08 -0.000502305047120899" pbc="T T T"
Nb       1.46058316       1.03278817       2.52980333       0.00000072      -0.00000241      -0.00000210
Nb       4.38174643       3.09836344       7.58941144      -0.00002899      -0.00000891      -0.00000016
Re       0.00000016      -0.00000015       0.00000001      -0.00000531       0.00000598      -0.00000117
O        1.54999166       1.09600970       5.05960723       0.00594002       0.00420210       0.00000233
O        4.29233995       3.03514213       5.05960692      -0.00593036      -0.00419688      -0.00000339
O        3.60675297       1.09600950       3.87213588      -0.00296700       0.00419801       0.00514209
O        2.23557917       3.03514306       6.24707924       0.00298133      -0.00420177      -0.00514412
O        2.23557920       3.03514257       3.87213563       0.00297982      -0.00419742       0.00514153
O        3.60675277       1.09600996       6.24707950      -0.00297007       0.00420231      -0.00513440
