9
Lattice="4.366913540670259 -3.4979298580421526e-08 2.521238670895938 1.4556378521342708 4.117165513614747 2.5212386046917907 -3.8588195703625386e-08 -1.0836916520026539e-07 5.042477408628573" Properties=species:S:1:pos:R:3:forces:R:3 energy=-65.47840118408203 free_energy=-65.47840118408203 stress="-0.0002701490302570164 -2.7452610851241843e-08 1.9599642087086977e-07 -2.7452610851241843e-08 -0.000270522985374555 -6.355761428267215e-08 1.9599642087086977e-07 -6.355761428267215e-08 -0.0002706238883547485" pbc="T T T"
Nb       1.45563761       1.02929170       2.52123941      -0.00000448       0.00000716       0.00001454
Nb       4.36691450       3.08787283       7.56371448       0.00001171      -0.00001914      -0.00002502
Ru       0.00000002      -0.00000010      -0.00000008       0.00000256      -0.00000071       0.00001057
O        1.54031848       1.08917037       5.04247742      -0.00341362      -0.00240588       0.00000536
O        4.28223284       3.02799516       5.04247795       0.00341177       0.00240630       0.00000612
O        3.59675406       1.08916950       3.85519394       0.00170198      -0.00240964      -0.00294238
O        2.22579697       3.02799669       6.22976052      -0.00169802       0.00240961       0.00293362
O        2.22579685       3.02799498       3.85519362      -0.00170925       0.00240788      -0.00295770
O        3.59675424       1.08917036       6.22976142       0.00169766      -0.00239596       0.00295526
