9
Lattice="5.559486509597363 3.888732768696384e-08 3.2097710997079236 1.8531622367923648 5.241533895295768 3.209771047290464 5.1774577787441975e-08 -2.7587882607978055e-08 6.419542109739661" Properties=species:S:1:pos:R:3:forces:R:3 energy=-45.829349517822266 free_energy=-45.829349517822266 stress="-0.0004805508360732347 -1.531820181810417e-08 9.807883571966158e-08 -1.531820181810417e-08 -0.00048051562043838203 -1.7164961008120372e-08 9.807883571966158e-08 -1.7164961008120372e-08 -0.00048052368219941854" pbc="T T T"
Nb       1.85316068       1.31038258       3.20977135      -0.00001400      -0.00000660      -0.00000075
Nb       5.55948654       3.93115042       9.62931451      -0.00000048       0.00000089       0.00001205
Ru       0.00000012      -0.00000006       0.00000009       0.00000213       0.00000309      -0.00000337
Se       1.98913224       1.40652856       6.41954216       0.00080860       0.00056994      -0.00000072
Se       5.42351704       3.83500513       6.41954151      -0.00081027      -0.00057304      -0.00000263
Se       4.56492127       1.40652865       4.93241015      -0.00040013       0.00057179       0.00070113
Se       2.84772799       3.83500615       7.90667349       0.00040394      -0.00056320      -0.00070906
Se       2.84772866       3.83500522       4.93240946       0.00040883      -0.00057131       0.00069827
Se       4.56492059       1.40652898       7.90667438      -0.00039864       0.00056881      -0.00069511
