9
Lattice="4.39530828537192 -2.3322014791057566e-08 2.5376324683952984 1.4651027594368637 4.1439362578879875 2.537632434387486 1.847324544496752e-08 -2.8588342508414133e-08 5.075264904793981" Properties=species:S:1:pos:R:3:forces:R:3 energy=-62.75569534301758 free_energy=-62.75569534301758 stress="-0.00019588124996516854 -2.4484918981215742e-08 4.0414906976593556e-08 -2.4484918981215742e-08 -0.00019545824034139514 -9.385622234958646e-08 4.0414906976593556e-08 -9.385622234958646e-08 -0.00019581749802455306" pbc="T T T"
Nb       1.46510201       1.03598023       2.53763298      -0.00001197      -0.00006517       0.00000907
Nb       4.39530768       3.10795310       7.61289832      -0.00001350       0.00001595       0.00001605
Rh      -0.00000000       0.00000002       0.00000001      -0.00000133       0.00000261       0.00000468
O        1.55096390       1.09669675       5.07526457      -0.00794500      -0.00562105      -0.00000584
O        4.30944680       3.04724080       5.07526430       0.00793535       0.00563747      -0.00000422
O        3.61982682       1.09669727       3.88080640       0.00398295      -0.00561783      -0.00688764
O        2.24058510       3.04724027       6.26972326      -0.00396191       0.00563177       0.00687358
O        2.24058501       3.04724020       3.88080664      -0.00396433       0.00563958      -0.00687814
O        3.61982690       1.09669623       6.26972271       0.00397898      -0.00562337       0.00687259
