9
Lattice="6.070553934416579 -1.0151554566939402e-07 3.5048360590657 2.0235179093573703 5.723373112516102 3.5048360124245606 -1.5624112725879734e-08 -6.817141643424517e-08 7.009672145193161" Properties=species:S:1:pos:R:3:forces:R:3 energy=-46.22317886352539 free_energy=-46.22317886352539 stress="-0.00019916486053261906 -9.560861968793688e-08 2.2634630170159653e-08 -9.560861968793688e-08 -0.00019912746211048216 -4.0596027872652485e-08 2.2634630170159653e-08 -4.0596027872652485e-08 -0.0001990772580029443" pbc="T T T"
Nb       2.02351808       1.43084265       3.50483636       0.00000121      -0.00000320       0.00000042
Nb       6.07055431       4.29252949      10.51450773       0.00000216      -0.00000122      -0.00000418
Re       0.00000018       0.00000020      -0.00000034      -0.00000270       0.00000309       0.00000973
Te       2.11233969       1.49364985       7.00967208      -0.00694850      -0.00491132       0.00000049
Te       5.98173185       4.22972326       7.00967227       0.00694686       0.00491379       0.00000344
Te       5.01438364       1.49364989       5.33417639       0.00347933      -0.00492194      -0.00602445
Te       3.07968775       4.22972353       8.68516791      -0.00347404       0.00491439       0.00601715
Te       3.07968798       4.22972284       5.33417653      -0.00348094       0.00492209      -0.00602651
Te       5.01438385       1.49365003       8.68516794       0.00347662      -0.00491543       0.00602382
