9
Lattice="5.630864364626542 -6.229776494012046e-08 3.250980825923037 1.8769547324621196 5.30883014495064 3.250980820747365 1.2232879949265577e-07 8.016065985575913e-08 6.501961439966353" Properties=species:S:1:pos:R:3:forces:R:3 energy=-49.10865020751953 free_energy=-49.10865020751953 stress="-0.00011926463048439473 -4.1808480233385126e-08 3.5568913148154024e-08 -4.1808480233385126e-08 -0.00011929158063139766 -1.655414827439472e-08 3.5568913148154024e-08 -1.655414827439472e-08 -0.00011929517495445907" pbc="T T T"
Nb       1.87695578       1.32720295       3.25098010       0.00001175      -0.00004168      -0.00000969
Nb       5.63086414       3.98162421       9.75294299      -0.00000468       0.00001825       0.00000414
Re      -0.00000003       0.00000017      -0.00000020      -0.00000181       0.00000518      -0.00000197
Se       1.99567235       1.41115199       6.50196180       0.00127506       0.00089449       0.00000212
Se       5.51214706       3.89767857       6.50196114      -0.00128275      -0.00088876      -0.00000416
Se       4.63302800       1.41115257       4.97928267      -0.00064063       0.00089842       0.00110453
Se       2.87479062       3.89767813       8.02463981       0.00063756      -0.00089198      -0.00110894
Se       2.87479076       3.89767881       4.97928356       0.00064164      -0.00088960       0.00111085
Se       4.63302824       1.41115326       8.02464045      -0.00063589       0.00089574      -0.00109744
