9
Lattice="5.529043880521791 -9.530642687629694e-09 3.192195072433611 1.8430146358553916 5.212832484582111 3.1921950412560403 7.045814270307178e-08 1.1636825158349189e-08 6.384390022830175" Properties=species:S:1:pos:R:3:forces:R:3 energy=-44.40388870239258 free_energy=-44.40388870239258 stress="-0.00012484421313274652 -1.1178672210121476e-08 5.086457033343095e-09 -1.1178672210121476e-08 -0.00012484889884945005 8.992014244313395e-09 5.086457033343095e-09 8.992014244313395e-09 -0.00012486788909882307" pbc="T T T"
Nb       1.84301556       1.30320908       3.19219572       0.00000859       0.00000793       0.00000707
Nb       5.52904214       3.90962326       9.57658324      -0.00001616      -0.00001197      -0.00001853
Rh      -0.00000012      -0.00000007       0.00000022       0.00000169      -0.00000091      -0.00000069
Se       2.00075458       1.41474684       6.38438962      -0.00031793      -0.00022525      -0.00000209
Se       5.37130397       3.79808525       6.38439051       0.00032115       0.00022441       0.00000478
Se       4.52866699       1.41474718       4.92489932       0.00015855      -0.00022256      -0.00027680
Se       2.84339296       3.79808556       7.84388145      -0.00015154       0.00022429       0.00028241
Se       2.84339183       3.79808492       4.92489893      -0.00016290       0.00022292      -0.00027794
Se       4.52866643       1.41474784       7.84388161       0.00015840      -0.00021875       0.00028145
