9
Lattice="4.366818771231599 6.736389628139252e-09 2.5211840114517603 1.4556062615595662 4.117076215101941 2.5211840146885582 -2.2233186944680008e-08 -1.175698149376527e-08 5.0423680614124935" Properties=species:S:1:pos:R:3:forces:R:3 energy=-65.4783935546875 free_energy=-65.4783935546875 stress="-0.00038054384640417993 -4.081488569340763e-08 1.147639778764642e-07 -4.081488569340763e-08 -0.00038052862510085106 -5.402418068456427e-08 1.147639778764642e-07 -5.402418068456427e-08 -0.0003805291198659688" pbc="T T T"
Nb       1.45560650       1.02926886       2.52118469       0.00000418      -0.00000316       0.00000974
Nb       4.36681929       3.08780813       7.56355077       0.00000960       0.00001314      -0.00001888
Ru      -0.00000007      -0.00000016      -0.00000016       0.00000643      -0.00000171       0.00000767
O        1.54028349       1.08914537       5.04236813      -0.00274420      -0.00193554       0.00000039
O        4.28214099       3.02793114       5.04236868       0.00273973       0.00193334       0.00000854
O        3.59667703       1.08914438       3.85510952       0.00137043      -0.00194937      -0.00236356
O        2.22574820       3.02793187       6.22962672      -0.00137198       0.00194561       0.00236714
O        2.22574819       3.02793035       3.85510841      -0.00137377       0.00193623      -0.00238764
O        3.59667640       1.08914500       6.22962763       0.00135958      -0.00193897       0.00237656
