9
Lattice="5.215894399777611 6.179272458329633e-08 3.011398292627627 1.738631501729551 4.917592051303678 3.01139833267557 1.4105994877491957e-07 1.487929707173912e-07 6.022796340932239" Properties=species:S:1:pos:R:3:forces:R:3 energy=-50.15109634399414 free_energy=-50.15109634399414 stress="-0.0001180169711005874 -1.2886824052316115e-08 -1.0177333820138301e-07 -1.2886824052316115e-08 -0.00011794374586315826 -4.458547309127425e-08 -1.0177333820138301e-07 -4.458547309127425e-08 -0.00011803662346210331" pbc="T T T"
Nb       1.73863101       1.22939979       3.01140030      -0.00000248       0.00001408       0.00002193
Nb       5.21589475       3.68819305       9.03419214       0.00000250      -0.00001227      -0.00002515
Ru      -0.00000032       0.00000002      -0.00000014      -0.00000162      -0.00000086      -0.00000040
S        1.88687340       1.33422116       6.02279607      -0.00096536      -0.00067973      -0.00000176
S        5.06765270       3.58337059       6.02279781       0.00096595       0.00067866       0.00000736
S        4.27245733       1.33422105       4.64547864       0.00047904      -0.00068450      -0.00083661
S        2.68206871       3.58337130       7.40011410      -0.00048232       0.00068402       0.00083923
S        2.68206810       3.58337065       4.64547883      -0.00048608       0.00067902      -0.00083876
S        4.27245840       1.33422151       7.40011416       0.00048983      -0.00067842       0.00083458
