9
Lattice="5.52890631480682 1.0999331072238527e-07 3.1921156525645253 1.842968852269115 5.212702886341243 3.192115692463785 2.7299640382541325e-08 6.817015288739157e-08 6.384231257844723" Properties=species:S:1:pos:R:3:forces:R:3 energy=-44.40388870239258 free_energy=-44.40388870239258 stress="-0.00015773999621160328 3.5596863234843568e-09 -3.0748971369121136e-08 3.5596863234843568e-09 -0.0001577243092469871 9.028689795798073e-09 -3.0748971369121136e-08 9.028689795798073e-09 -0.00015778312808834016" pbc="T T T"
Nb       1.84296675       1.30317482       3.19211746      -0.00001709      -0.00000814       0.00001681
Nb       5.52890696       3.90952864       9.57634348       0.00000396       0.00001395      -0.00003515
Rh       0.00000004       0.00000010      -0.00000039      -0.00000229      -0.00000102       0.00000783
Se       2.00076968       1.41475727       6.38423136      -0.00061321      -0.00043786      -0.00000053
Se       5.37110575       3.79794488       6.38423285       0.00061631       0.00043088       0.00001459
Se       4.52852127       1.41475716       4.92483320       0.00030670      -0.00044560      -0.00053215
Se       2.84335440       3.79794624       7.84363009      -0.00029451       0.00044441       0.00052994
Se       2.84335288       3.79794563       4.92483316      -0.00031725       0.00043672      -0.00052649
Se       4.52852300       1.41475752       7.84362928       0.00031689      -0.00043309       0.00052518
