9
Lattice="5.2500073189773735 1.0736705481853285e-07 3.0310929812860024 1.750002566933592 4.949753508037363 3.031092936169841 2.0840978298430544e-07 9.211218016816578e-08 6.062185601595691" Properties=species:S:1:pos:R:3:forces:R:3 energy=-54.1171760559082 free_energy=-54.1171760559082 stress="-8.81046726135537e-05 5.4194329024426224e-09 -7.076936725525229e-08 5.4194329024426224e-09 -8.801788499113172e-05 -5.049178852800651e-08 -7.076936725525229e-08 -5.049178852800651e-08 -8.808090206002817e-05" pbc="T T T"
Nb       1.75000199       1.23743997       3.03109396      -0.00000672       0.00001481       0.00001701
Nb       5.25000766       3.71231418       9.09327636       0.00000394      -0.00001164      -0.00002390
Re       0.00000014      -0.00000010       0.00000026       0.00000320      -0.00000048      -0.00000170
S        1.90027093       1.34369476       6.06218540       0.00029612       0.00021315      -0.00000324
S        5.09973964       3.60605847       6.06218637      -0.00029707      -0.00021803       0.00000503
S        4.29987164       1.34369419       4.67677561      -0.00015289       0.00021243       0.00025952
S        2.70013884       3.60605950       7.44759624       0.00015503      -0.00021124      -0.00025630
S        2.70013726       3.60605913       4.67677596       0.00014484      -0.00021517       0.00026095
S        4.29987219       1.34369468       7.44759613      -0.00014657       0.00021589      -0.00025702
