9
Lattice="5.21584988748433 -4.396268701751581e-08 3.011371990812729 1.7386165431423453 4.9175501740017005 3.0113720680114584 -9.506885452087881e-08 2.7324891076570898e-08 6.022744146289538" Properties=species:S:1:pos:R:3:forces:R:3 energy=-50.151092529296875 free_energy=-50.151092529296875 stress="-0.00013829313684254885 3.7785014228575164e-08 5.77965764136934e-08 3.7785014228575164e-08 -0.00013818278966937214 -4.2341195438666546e-08 5.77965764136934e-08 -4.2341195438666546e-08 -0.00013825474889017642" pbc="T T T"
Nb       1.73861577       1.22938811       3.01137246      -0.00000679       0.00000442       0.00000860
Nb       5.21585046       3.68816243       9.03411514       0.00000542      -0.00000369      -0.00001245
Ru      -0.00000012      -0.00000014       0.00000018      -0.00000038       0.00000023       0.00000138
S        1.88686438       1.33421455       6.02274355      -0.00095916      -0.00067627      -0.00000419
S        5.06760187       3.58333553       6.02274428       0.00095785       0.00067782       0.00000163
S        4.27241783       1.33421442       4.64544441       0.00048125      -0.00067854      -0.00082493
S        2.68204878       3.58333561       7.40004429      -0.00047588       0.00067449       0.00082803
S        2.68204869       3.58333538       4.64544422      -0.00048238       0.00067592      -0.00082946
S        4.27241762       1.33421480       7.40004427       0.00047982      -0.00067413       0.00083005
