9
Lattice="5.26468738342071 -1.5427240968170847e-07 3.039568755202601 1.7548956662946769 4.963594646942336 3.039568725289163 -4.39273427787519e-08 -6.76976461242071e-08 6.079137586489558" Properties=species:S:1:pos:R:3:forces:R:3 energy=-48.3323974609375 free_energy=-48.3323974609375 stress="6.700460653519258e-05 -5.246926004787156e-09 4.227519667665547e-08 -5.246926004787156e-09 6.703539111185819e-05 1.091168133626752e-08 4.227519667665547e-08 1.091168133626752e-08 6.701978418277577e-05" pbc="T T T"
Nb       1.75489546       1.24089768       3.03956682       0.00000025      -0.00000819      -0.00002403
Nb       5.26468704       3.72269583       9.11870917      -0.00000029       0.00000473       0.00002919
Rh      -0.00000021      -0.00000011      -0.00000066       0.00000034      -0.00000056       0.00000262
S        1.89437490       1.33952514       6.07913875       0.00014865       0.00010395       0.00000936
S        5.12520809       3.62406958       6.07913601      -0.00014842      -0.00010085      -0.00001023
S        4.31750047       1.33952576       4.68014566      -0.00006628       0.00010437       0.00012612
S        2.70208288       3.62406954       7.47812937       0.00007135      -0.00010592      -0.00012863
S        2.70208381       3.62406952       4.68014554       0.00007427      -0.00009936       0.00012410
S        4.31749961       1.33952473       7.47812985      -0.00008011       0.00010234      -0.00012887
