9
Lattice="5.560255612170304 1.0387794216140598e-07 3.2102150753171728 1.8534186396154335 5.242259477475434 3.2102150678896573 2.108865898012912e-09 -7.605609133542738e-09 6.420430146981701" Properties=species:S:1:pos:R:3:forces:R:3 energy=-45.829376220703125 free_energy=-45.829376220703125 stress="-0.0002785919059533626 -1.428298048722354e-07 7.097969501046464e-08 -1.428298048722354e-07 -0.0002784592506941408 2.6069336911405117e-08 7.097969501046464e-08 2.6069336911405117e-08 -0.00027850992046296597" pbc="T T T"
Nb       1.85341862       1.31056686       3.21021272       0.00000531       0.00001967      -0.00002252
Nb       5.56025490       3.93169593       9.63064709      -0.00000799       0.00000837       0.00001760
Ru      -0.00000003      -0.00000016       0.00000022       0.00000199      -0.00000105      -0.00000025
Se       1.98924600       1.40660804       6.42043163      -0.00137281      -0.00097883       0.00001198
Se       5.42442947       3.83565031       6.42042859       0.00137603       0.00096929      -0.00000830
Se       4.56563283       1.40660886       4.93295252       0.00069168      -0.00097853      -0.00119168
Se       2.84804141       3.83564966       7.90790869      -0.00069109       0.00096673       0.00119781
Se       2.84804105       3.83564978       4.93295180      -0.00069198       0.00097167      -0.00119805
Se       4.56563277       1.40660899       7.90790795       0.00068927      -0.00097764       0.00119352
