9
Lattice="5.264611564172852 -6.219651119415587e-08 3.0395249539937015 1.7548705149018402 4.963523236067173 3.039524863666648 4.8731656524818006e-08 -7.616905876224381e-08 6.079049823581685" Properties=species:S:1:pos:R:3:forces:R:3 energy=-48.33240509033203 free_energy=-48.33240509033203 stress="4.929746864945628e-05 1.9396809491922795e-08 6.254588669207806e-08 1.9396809491922795e-08 4.934487151331268e-05 3.192353048575569e-08 6.254588669207806e-08 3.192353048575569e-08 4.9316036893287674e-05" pbc="T T T"
Nb       1.75487002       1.24088284       3.03952495      -0.00000589       0.00001913      -0.00000430
Nb       5.26461236       3.72264085       9.11857524       0.00000635      -0.00001696       0.00000534
Rh      -0.00000021       0.00000000       0.00000021       0.00000199      -0.00000017       0.00000253
S        1.89438038       1.33952927       6.07904945      -0.00036418      -0.00025290      -0.00000124
S        5.12510194       3.62399370       6.07904917       0.00036311       0.00025064      -0.00000278
S        4.31742180       1.33952952       4.68010675       0.00018436      -0.00025094      -0.00031281
S        2.70206047       3.62399343       7.47799300      -0.00018245       0.00024992       0.00031495
S        2.70206039       3.62399357       4.68010650      -0.00018477       0.00025314      -0.00031495
S        4.31742131       1.33952927       7.47799323       0.00018126      -0.00025213       0.00031281
