9
Lattice="6.271476625246655 -4.858372951622881e-08 3.6208387067561585 2.09049220025602 5.9128048299216545 3.6208386415519453 4.745448072804103e-08 -4.630308374316652e-08 7.2416773313187575" Properties=species:S:1:pos:R:3:forces:R:3 energy=-35.19371032714844 free_energy=-35.19371032714844 stress="-1.1259930033702403e-05 1.5418091692254166e-08 6.200573388071007e-09 1.5418091692254166e-08 -1.1225290108995978e-05 1.6949803338661695e-08 6.200573388071007e-09 1.6949803338661695e-08 -1.1246520443819463e-05" pbc="T T T"
Nb       2.09049222       1.47820124       3.62083838       0.00000041       0.00000077      -0.00000301
Nb       6.27147652       4.43460344      10.86251527       0.00000054      -0.00000091      -0.00000392
Sb      -0.00000012      -0.00000024      -0.00000023      -0.00000141       0.00000659      -0.00000136
Te       2.26597330       1.60228491       7.24167761       0.00001509       0.00001166       0.00000166
Te       6.09599552       4.31052035       7.24167784      -0.00001841      -0.00001134       0.00000329
Te       5.13849023       1.60228494       5.58322931      -0.00000507       0.00001014       0.00001313
Te       3.22347864       4.31051963       8.90012596       0.00000763      -0.00001376      -0.00001447
Te       3.22347874       4.31051951       5.58322880       0.00000799      -0.00001508       0.00001574
Te       5.13849043       1.60228514       8.90012582      -0.00000692       0.00001172      -0.00001121
