9
Lattice="5.637596211361628 9.976345074741098e-08 3.2548676063801354 1.8791987612741077 5.315176932660489 3.2548677274579587 -9.448661146452963e-08 8.147732244217993e-08 6.509735376415914" Properties=species:S:1:pos:R:3:forces:R:3 energy=-41.41154479980469 free_energy=-41.41154479980469 stress="5.424423943622969e-05 1.0050772658587448e-08 -2.335173299172766e-08 1.0050772658587448e-08 5.4220003221416846e-05 -6.480836312050542e-09 -2.335173299172766e-08 -6.480836312050542e-09 5.417403735918924e-05" pbc="T T T"
Nb       1.87919840       1.32879522       3.25486689      -0.00000167       0.00001262      -0.00000806
Nb       5.63759629       3.98638149       9.76460398      -0.00000208      -0.00001684       0.00000799
Sb       0.00000005      -0.00000010       0.00000022      -0.00000043      -0.00000060       0.00000026
S        1.99131198       1.40807132       6.50973526       0.00008303       0.00006640       0.00000318
S        5.52548252       3.90710605       6.50973431      -0.00008339      -0.00006366      -0.00000987
S        4.64194016       1.40807098       4.97939525      -0.00003600       0.00006104       0.00007206
S        2.87485472       3.90710561       8.04007586       0.00003889      -0.00006878      -0.00007033
S        2.87485519       3.90710599       4.97939507       0.00004396      -0.00006109       0.00007159
S        4.64194022       1.40807195       8.04007600      -0.00004247       0.00007045      -0.00006682
