9
Lattice="4.4465566734134585 4.622017736926523e-08 2.56722065319307 1.4821855660864325 4.192253816310683 2.567220714325518 7.942120600751826e-09 8.048759897158063e-08 5.134441292629919" Properties=species:S:1:pos:R:3:forces:R:3 energy=-59.522708892822266 free_energy=-59.522708892822266 stress="0.0005207274807617068 -3.692035122071502e-08 8.696300568544757e-09 -3.692035122071502e-08 0.0005206191563047469 -7.860958817218489e-08 8.696300568544757e-09 -7.860958817218489e-08 0.0005205863853916526" pbc="T T T"
Nb       1.48218616       1.04806305       2.56722053       0.00000527      -0.00000350      -0.00000140
Nb       4.44655730       3.14418969       7.70166238       0.00000522      -0.00000364       0.00000527
Se      -0.00000036      -0.00000038      -0.00000005      -0.00000548       0.00000497      -0.00000350
O        1.47384304       1.04216473       5.13444117      -0.00358725      -0.00253448       0.00000206
O        4.45489923       3.15009004       5.13444110       0.00358748       0.00253800      -0.00000365
O        3.70963477       1.04216426       3.84360607       0.00179020      -0.00253621      -0.00310460
O        2.21910690       3.15009019       6.42527660      -0.00179437       0.00253555       0.00310379
O        2.21910679       3.15008975       3.84360589      -0.00179321       0.00253379      -0.00310317
O        3.70963511       1.04216433       6.42527702       0.00179195      -0.00253433       0.00310555
