9
Lattice="4.408812924366448 -2.6002288604810453e-09 2.5454294002244713 1.4696042779998382 4.156668904118706 2.545429448151633 2.73707817031599e-09 6.06340129383174e-08 5.0908587957081295" Properties=species:S:1:pos:R:3:forces:R:3 energy=-61.791900634765625 free_energy=-61.791900634765625 stress="2.42190344579285e-05 -1.121912074353304e-08 -8.590529176899508e-08 -1.121912074353304e-08 2.3649165086681023e-05 -1.1146102707471073e-07 -8.590529176899508e-08 -1.1146102707471073e-07 2.4045531972660683e-05" pbc="T T T"
Nb       1.46960322       1.03916980       2.54542830      -0.00001471       0.00002606      -0.00000857
Nb       4.40881213       3.11749985       7.63629010      -0.00000837      -0.00001881       0.00001812
Sb       0.00000002      -0.00000006       0.00000007       0.00000489      -0.00000776      -0.00001264
O        1.56482797       1.10649998       5.09085876       0.00082517       0.00057924       0.00000234
O        4.31358980       3.05016816       5.09085803      -0.00081289      -0.00058162      -0.00000858
O        3.62640004       1.10650044       3.90061002      -0.00040653       0.00058669       0.00071496
O        2.25201807       3.05016850       6.28110764       0.00040466      -0.00057805      -0.00070214
O        2.25201800       3.05016823       3.90060967       0.00041083      -0.00058877       0.00070268
O        3.62639968       1.10650082       6.28110785      -0.00040314       0.00058353      -0.00070572
