9
Lattice="5.726432024709307 -1.4155565055357878e-08 3.3061569458801845 1.9088105944358924 5.398932186263424 3.306157062137514 -5.9174529163172815e-08 1.0054285496209958e-07 6.612313994253657" Properties=species:S:1:pos:R:3:forces:R:3 energy=-39.17341232299805 free_energy=-39.17341232299805 stress="-2.65704784396803e-05 1.7984107536506144e-09 -3.724955277562003e-08 1.7984107536506144e-09 -2.6697811335907318e-05 2.1831171537201044e-08 -3.724955277562003e-08 2.1831171537201044e-08 -2.6541600163909607e-05" pbc="T T T"
Nb       1.90881046       1.34973408       3.30615628      -0.00000230       0.00000732      -0.00000868
Nb       5.72643144       4.04919860       9.91847178      -0.00000365      -0.00000500       0.00000423
Sn      -0.00000019       0.00000010      -0.00000008      -0.00000022       0.00000198      -0.00000159
Se       2.08542137       1.47461540       6.61231362      -0.00010273      -0.00007340      -0.00000202
Se       5.54982126       3.92431633       6.61231303       0.00010294       0.00007014      -0.00000573
Se       4.68372237       1.47461565       5.11218529       0.00005898      -0.00007233      -0.00008458
Se       2.95152140       3.92431610       8.11244373      -0.00004919       0.00006752       0.00009373
Se       2.95152110       3.92431679       5.11218480      -0.00005221       0.00007284      -0.00009078
Se       4.68372111       1.47461602       8.11244355       0.00004858      -0.00006910       0.00009573
