9
Lattice="6.271434707410227 1.3569316653739007e-08 3.620814619603288 2.090478234581163 5.912765349006408 3.6208146438788416 4.706902905528019e-08 6.301418633655562e-08 7.241629157680642" Properties=species:S:1:pos:R:3:forces:R:3 energy=-35.19371032714844 free_energy=-35.19371032714844 stress="-1.9305180103401653e-05 -3.223271605179434e-08 -3.9730110756863724e-08 -3.223271605179434e-08 -1.926179902511649e-05 1.3514311447693217e-08 -3.9730110756863724e-08 1.3514311447693217e-08 -1.9316365069244057e-05" pbc="T T T"
Nb       2.09047735       1.47819008       3.62081442      -0.00000641      -0.00001103      -0.00000270
Nb       6.27143496       4.43457463      10.86244525       0.00000038       0.00000388       0.00000990
Sb       0.00000020      -0.00000014      -0.00000009       0.00000054      -0.00000179      -0.00000200
Te       2.26595843       1.60227410       7.24162916       0.00004008       0.00002445       0.00000006
Te       6.09595450       4.31049155       7.24162867      -0.00003837      -0.00002367      -0.00000383
Te       5.13845626       1.60227460       5.58319211      -0.00001406       0.00002755       0.00003289
Te       3.22345705       4.31049128       8.90006588       0.00001526      -0.00002136      -0.00003184
Te       3.22345743       4.31049153       5.58319223       0.00002051      -0.00002320       0.00003244
Te       5.13845577       1.60227406       8.90006603      -0.00001777       0.00002523      -0.00003488
