9
Lattice="5.5466536301633935 1.0940436534725253e-08 3.202362016237817 1.848884551238537 5.2294353867289125 3.2023620205055976 -3.790660554002607e-09 2.5465443147162163e-09 6.4047240390412234" Properties=species:S:1:pos:R:3:forces:R:3 energy=-42.85593795776367 free_energy=-42.85593795776367 stress="6.432442023651674e-05 -1.836705543212247e-08 4.513291784746798e-08 -1.836705543212247e-08 6.433403177652508e-05 -5.323894924913475e-08 4.513291784746798e-08 -5.323894924913475e-08 6.428756023524329e-05" pbc="T T T"
Nb       1.84888355       1.30735897       3.20236203      -0.00000890       0.00000230      -0.00000010
Nb       5.54665402       3.92207692       9.60708623       0.00000787       0.00000300       0.00000161
Sn       0.00000010       0.00000017       0.00000005      -0.00000044      -0.00000277      -0.00000523
S        1.97317651       1.39524661       6.40472394      -0.00232971      -0.00164503      -0.00000051
S        5.42236183       3.83418855       6.40472371       0.00233281       0.00164664      -0.00000279
S        4.56006555       1.39524632       4.91118356       0.00116485      -0.00164834      -0.00201356
S        2.83547300       3.83418844       7.89826493      -0.00116926       0.00165150       0.00201851
S        2.83547270       3.83418874       4.91118344      -0.00116810       0.00164700      -0.00201607
S        4.56006550       1.39524692       7.89826439       0.00117046      -0.00165442       0.00201744
