9
Lattice="5.753497947343506 1.0038685154495526e-07 3.3217836482615706 1.917832710037677 5.424449838751932 3.3217837066706113 8.27583594734824e-08 1.300551877464142e-07 6.643567153181436" Properties=species:S:1:pos:R:3:forces:R:3 energy=-38.058406829833984 free_energy=-38.058406829833984 stress="0.000304380344459787 2.4783441077147472e-08 -1.0402535366438315e-07 2.4783441077147472e-08 0.0003043998731300235 4.1456349464397135e-08 -1.0402535366438315e-07 4.1456349464397135e-08 0.00030422245617955923" pbc="T T T"
Nb       1.91782910       1.35611229       3.32178163      -0.00004470      -0.00000190      -0.00002742
Nb       5.75350222       4.06833811       9.96535816       0.00004754       0.00000525       0.00007452
Sb       0.00000001       0.00000019       0.00000042      -0.00000141      -0.00000413      -0.00000060
Se       2.13265284       1.50801413       6.64356745       0.00536385       0.00380398       0.00000720
Se       5.53867813       3.91643530       6.64356372      -0.00536057      -0.00380488      -0.00003451
Se       4.68717303       1.50801484       5.16871532      -0.00266626       0.00380564       0.00464994
Se       2.98415725       3.91643642       8.11841771       0.00265889      -0.00379367      -0.00466320
Se       2.98415914       3.91643766       5.16871623       0.00268653      -0.00378440       0.00466150
Se       4.68717124       1.50801132       8.11841742      -0.00268412       0.00377423      -0.00466746
