9
Lattice="4.489921224866442 -4.4621653717876926e-08 2.5922571766811875 1.496640355878596 4.233138213374185 2.5922571945915025 -5.3874663655089635e-09 1.8126045886501193e-08 5.18451436269373" Properties=species:S:1:pos:R:3:forces:R:3 energy=-60.89250946044922 free_energy=-60.89250946044922 stress="6.920112355146557e-05 -5.7451540413921975e-08 -4.196401448552933e-08 -5.7451540413921975e-08 6.926539208507165e-05 6.880894432015339e-08 -4.196401448552933e-08 6.880894432015339e-08 6.928605580469593e-05" pbc="T T T"
Nb       1.49664052       1.05828388       2.59225706       0.00000116      -0.00001122      -0.00000026
Nb       4.48992115       3.17485341       7.77677200      -0.00000115      -0.00000446       0.00000665
Sn      -0.00000001      -0.00000008      -0.00000001       0.00000402       0.00000460      -0.00000056
O        1.59179160       1.12556678       5.18451427      -0.00070834      -0.00049704      -0.00000104
O        4.39476969       3.10757175       5.18451425       0.00070339       0.00050128      -0.00000095
O        3.69402546       1.12556704       3.97078912       0.00035450      -0.00049818      -0.00061631
O        2.29253645       3.10757161       6.39823949      -0.00035140       0.00050020       0.00061196
O        2.29253625       3.10757185       3.97078923      -0.00035250       0.00050133      -0.00060821
O        3.69402520       1.12556654       6.39823951       0.00035024      -0.00049657       0.00060827
