9
Lattice="4.257987484101856 2.4958085157414595e-09 2.45835020873245 1.4193291678365212 4.014469056190498 2.4583502016030545 -6.522786632808941e-09 -1.3344012176438588e-08 4.916700428762694" Properties=species:S:1:pos:R:3:forces:R:3 energy=-62.99573516845703 free_energy=-62.99573516845703 stress="2.1405199731816538e-05 1.8306788973632138e-08 -2.2175248304279194e-09 1.8306788973632138e-08 2.141397817467805e-05 4.050700752600278e-08 -2.2175248304279194e-09 4.050700752600278e-08 2.145493454008829e-05" pbc="T T T"
Nb       1.41932909       1.00361695       2.45835003       0.00000032      -0.00000428      -0.00000260
Nb       4.25798728       3.01085187       7.37505115      -0.00000068       0.00000017       0.00000465
S        0.00000035       0.00000026      -0.00000028      -0.00000277      -0.00000283       0.00000213
O        1.38170141       0.97701048       4.91670049      -0.00017689      -0.00012694      -0.00000116
O        4.29561488       3.03745836       4.91670058       0.00018349       0.00013078      -0.00000183
O        3.56713683       0.97701060       3.65493888       0.00008946      -0.00012672      -0.00015577
O        2.11018013       3.03745838       6.17846168      -0.00009205       0.00013045       0.00015641
O        2.11017995       3.03745852       3.65493902      -0.00008928       0.00012635      -0.00015536
O        3.56713665       0.97701075       6.17846182       0.00008872      -0.00012703       0.00015349
