9
Lattice="5.637625150890212 2.951179849858923e-08 3.254884428220568 1.8792084240861395 5.315203969483464 3.2548844063411626 -6.407527112203747e-09 -3.132750084537353e-08 6.509768867539303" Properties=species:S:1:pos:R:3:forces:R:3 energy=-41.411537170410156 free_energy=-41.411537170410156 stress="5.809219510410912e-05 -4.323867841549145e-08 -3.183828312103287e-08 -4.323867841549145e-08 5.808821879327297e-05 1.1170164349039169e-08 -3.183828312103287e-08 1.1170164349039169e-08 5.812738527311012e-05" pbc="T T T"
Nb       1.87920640       1.32880109       3.25488428      -0.00002395       0.00000223       0.00000038
Nb       5.63762504       3.98640333       9.76465378       0.00000046       0.00000276       0.00000703
Sb      -0.00000013      -0.00000006       0.00000024      -0.00000243      -0.00000306      -0.00000371
S        1.99130653       1.40806597       6.50976893       0.00026900       0.00018722       0.00000204
S        5.52552764       3.90713717       6.50976874      -0.00026196      -0.00019681      -0.00000190
S        4.64197252       1.40806664       4.97940673      -0.00012168       0.00019377       0.00023693
S        2.87486189       3.90713774       8.04013088       0.00012821      -0.00018221      -0.00023210
S        2.87486197       3.90713758       4.97940649       0.00013611      -0.00018835       0.00023061
S        4.64197245       1.40806634       8.04013078      -0.00012353       0.00018424      -0.00023884
