9
Lattice="5.581087882371395 4.9969464340140014e-08 3.2222426001843427 1.8603626840566723 5.261900079714599 3.22224258375089 2.6921830176858273e-09 -1.822314385952216e-08 6.444485195705707" Properties=species:S:1:pos:R:3:forces:R:3 energy=-42.66904830932617 free_energy=-42.66904830932617 stress="-5.1915631047450006e-05 -3.644331059149408e-08 1.3183920621884226e-09 -3.644331059149408e-08 -5.1831044402206317e-05 2.9568797188517237e-08 1.3183920621884226e-09 2.9568797188517237e-08 -5.194364348426461e-05" pbc="T T T"
Nb       1.86036328       1.31547416       3.22224263       0.00000396      -0.00000624      -0.00000288
Nb       5.58108772       3.94642551       9.66672823      -0.00000110       0.00000393       0.00000253
Si       0.00000010       0.00000007      -0.00000004      -0.00000336       0.00000081      -0.00000215
Se       1.89169473       1.33763022       6.44448502       0.00054032       0.00038104      -0.00000131
Se       5.54975555       3.92427017       6.44448497      -0.00054035      -0.00037901       0.00000018
Se       4.63524050       1.33763011       4.86049827      -0.00027007       0.00038089       0.00046569
Se       2.80621006       3.92427013       8.02847218       0.00027096      -0.00038014      -0.00046606
Se       2.80621010       3.92427016       4.86049820       0.00027184      -0.00038049       0.00046790
Se       4.63524027       1.33762988       8.02847210      -0.00027226       0.00037925      -0.00046378
