9
Lattice="4.337634065997429 1.490742315559169e-07 2.504334332311127 1.4458780946635112 4.0895610238081925 2.5043344498899374 -3.282664085122701e-08 1.2079212176664126e-07 5.008668721479679" Properties=species:S:1:pos:R:3:forces:R:3 energy=-62.27607727050781 free_energy=-62.27607727050781 stress="7.494981400668621e-05 -1.0321075194497098e-07 1.5515760765083542e-07 -1.0321075194497098e-07 7.508322596549988e-05 -7.346955044340575e-08 1.5515760765083542e-07 -7.346955044340575e-08 7.518884376622736e-05" pbc="T T T"
Nb       1.44587918       1.02238787       2.50433228       0.00001476      -0.00003789      -0.00003538
Nb       4.33763472       3.06717088       7.51299896       0.00000996      -0.00000368      -0.00006644
Sb       0.00000007      -0.00000010      -0.00000004      -0.00000561       0.00000167      -0.00000611
N        1.62283170       1.14751587       5.00866828      -0.00215638      -0.00151873      -0.00000377
N        4.16067853       2.94204737       5.00867089       0.00213432       0.00155693       0.00003128
N        3.52621714       1.14751318       3.90974921       0.00106034      -0.00156480      -0.00184900
N        2.25729476       2.94204399       6.10759009      -0.00106663       0.00150388       0.00187743
N        2.25729401       2.94204800       3.90975046      -0.00107980       0.00156581      -0.00183642
N        3.52621866       1.14751788       6.10758992       0.00108954      -0.00150263       0.00188690
