9
Lattice="5.301812023288968 -5.058879709590492e-10 3.061002766829007 1.7672706152110724 4.998596505789731 3.0610028685724533 -8.057782699999197e-08 6.763268600952148e-08 6.122005673222845" Properties=species:S:1:pos:R:3:forces:R:3 energy=-41.26561737060547 free_energy=-41.26561737060547 stress="7.576405096187955e-06 -9.620891461281644e-08 -3.396959158408208e-08 -9.620891461281644e-08 7.65675758884754e-06 4.6600277414654556e-08 -3.396959158408208e-08 4.6600277414654556e-08 7.578580607514596e-06" pbc="T T T"
Nb       1.76727214       1.24964755       3.06100265       0.00002336      -0.00001539      -0.00000382
Nb       5.30180877       3.74894753       9.18300975      -0.00003460       0.00000421       0.00001790
Se       0.00000019      -0.00000021      -0.00000082      -0.00000259      -0.00000055       0.00001760
S        1.83297193       1.29610663       6.12200561      -0.00230609      -0.00163844       0.00000086
S        5.23611017       3.70249051       6.12200566       0.00230487       0.00164350      -0.00000339
S        4.38532614       1.29610831       4.64840332       0.00116139      -0.00163853      -0.00201830
S        2.68375767       3.70249008       7.59560791      -0.00114646       0.00163919       0.00200333
S        2.68375848       3.70248941       4.64840260      -0.00114302       0.00164132      -0.00201597
S        4.38532480       1.29610649       7.59560849       0.00114295      -0.00163525       0.00200205
