9
Lattice="4.198111313261413 -2.874045465281632e-08 2.423780656696766 1.3993704345063704 3.9580173588925045 2.423780615388523 1.4556610621050485e-08 -4.0298992496605894e-08 4.847561288180733" Properties=species:S:1:pos:R:3:forces:R:3 energy=-71.3393783569336 free_energy=-71.3393783569336 stress="2.2348122001858428e-05 -4.82877986485164e-08 -1.0201382139030102e-07 -4.82877986485164e-08 2.2143816750030965e-05 1.0173726394668847e-07 -1.0201382139030102e-07 1.0173726394668847e-07 2.2149690266815014e-05" pbc="T T T"
Nb       1.39937045       0.98950449       2.42378062       0.00000012       0.00000034      -0.00000022
Nb       4.19811159       2.96851288       7.27134151       0.00000094      -0.00000014      -0.00000530
Si       0.00000002      -0.00000006      -0.00000002      -0.00000237       0.00000077      -0.00000156
O        1.40147622       0.99099339       4.84756123      -0.00384212      -0.00271344       0.00000011
O        4.19600551       2.96702385       4.84756150       0.00384498       0.00271291       0.00000331
O        3.49737310       0.99099326       3.63749474       0.00192153      -0.00271791      -0.00332606
O        2.10010859       2.96702398       6.05762785      -0.00192082       0.00271499       0.00333142
O        2.10010856       2.96702412       3.63749474      -0.00192165       0.00271457      -0.00332737
O        3.49737307       0.99099315       6.05762795       0.00191933      -0.00271171       0.00332582
