9
Lattice="6.218171556382677 -4.0874968896714345e-08 3.590063134234684 2.0727237985710434 5.862548412800371 3.5900631602487363 -2.1391881889318442e-09 3.034790277396872e-08 7.180126272174572" Properties=species:S:1:pos:R:3:forces:R:3 energy=-35.88765335083008 free_energy=-35.88765335083008 stress="-0.00032681605080142617 -1.4064902131849522e-08 -1.6017041915006303e-08 -1.4064902131849522e-08 -0.0003268068248871714 -3.4554281658216723e-09 -1.6017041915006303e-08 -3.4554281658216723e-09 -0.00032680455478839576" pbc="T T T"
Nb       2.07272362       1.46563692       3.59006258      -0.00000064       0.00000002      -0.00000382
Nb       6.21817117       4.39691149      10.77019013      -0.00000065       0.00000158       0.00000710
Sn      -0.00000014      -0.00000007       0.00000011       0.00000124      -0.00000040      -0.00000074
Te       2.23885969       1.58311276       7.18012628      -0.00371344      -0.00262852       0.00000034
Te       6.05203604       4.27943582       7.18012581       0.00371438       0.00262721      -0.00000253
Te       5.09874197       1.58311291       5.52897244       0.00185841      -0.00262588      -0.00321814
Te       3.19215355       4.27943537       8.83127999      -0.00185894       0.00262657       0.00321919
Te       3.19215380       4.27943582       5.52897279      -0.00185652       0.00262786      -0.00321840
Te       5.09874166       1.58311259       8.83128013       0.00185618      -0.00262858       0.00321685
