9
Lattice="5.395416527732002 1.3749364882810943e-07 3.115045137530967 1.798472287878755 5.08684777481633 3.1150451681227875 2.16144343735318e-08 5.275086795177879e-08 6.230090237624651" Properties=species:S:1:pos:R:3:forces:R:3 energy=-46.352996826171875 free_energy=-46.352996826171875 stress="-0.00011779988562921062 -3.0031085174186956e-08 -2.5857568530796016e-08 -3.0031085174186956e-08 -0.00011787773837568238 -1.6193480334436572e-08 -2.5857568530796016e-08 -1.6193480334436572e-08 -0.00011788009578594938" pbc="T T T"
Nb       1.79847268       1.27171155       3.11504476       0.00000930      -0.00000577      -0.00000334
Nb       5.39541586       3.81513759       9.34513547      -0.00001201       0.00001864       0.00000380
Si       0.00000003       0.00000003       0.00000009       0.00000082       0.00000017       0.00000093
S        1.80293808       1.27486831       6.23009019      -0.00498867      -0.00353998       0.00000002
S        5.39095161       3.81197874       6.23009016       0.00499439       0.00353056      -0.00000209
S        4.49394774       1.27486902       4.67643471       0.00249490      -0.00353336      -0.00432289
S        2.69994128       3.81197892       7.78374590      -0.00249481       0.00353217       0.00432366
S        2.69994110       3.81197870       4.67643474      -0.00249213       0.00353068      -0.00432289
S        4.49394697       1.27486893       7.78374603       0.00248826      -0.00353307       0.00432330
