9
Lattice="5.682632972968293 3.6727303265215538e-09 3.280869704727483 1.894210975355951 5.357637667009186 3.2808697378030187 -2.387771297063365e-08 2.3625001313463056e-08 6.561739450812375" Properties=species:S:1:pos:R:3:forces:R:3 energy=-50.09278106689453 free_energy=-50.09278106689453 stress="-0.00022534617164637893 -4.3807897753822544e-08 4.991071378412926e-08 -4.3807897753822544e-08 -0.00022526452085003257 9.112653742704424e-09 4.991071378412926e-08 9.112653742704424e-09 -0.00022534614254254848" pbc="T T T"
Nb       1.89421095       1.33940884       3.28087019      -0.00000159      -0.00000405       0.00000286
Nb       5.68263300       4.01822833       9.84260889      -0.00000146       0.00000067      -0.00000401
Ta       0.00000002       0.00000008      -0.00000005       0.00000136      -0.00000092      -0.00000082
Se       2.00962025       1.42101566       6.56173922      -0.00276682      -0.00195810      -0.00000182
Se       5.56722360       3.93662206       6.56173956       0.00276811       0.00195967       0.00000277
Se       4.67782300       1.42101608       5.02125182       0.00138468      -0.00195913      -0.00239649
Se       2.89902087       3.93662199       8.10222700      -0.00138529       0.00196011       0.00239760
Se       2.89902097       3.93662173       5.02125176      -0.00138747       0.00196038      -0.00239791
Se       4.67782303       1.42101601       8.10222720       0.00138862      -0.00195844       0.00239797
