9
Lattice="5.69890664181764 -1.784927228565275e-07 3.290265324184 1.8996354399990454 5.372980437996668 3.290265218509738 -6.613442374048671e-08 -1.761881172688791e-07 6.580530762916231" Properties=species:S:1:pos:R:3:forces:R:3 energy=-36.239227294921875 free_energy=-36.239227294921875 stress="-4.2484763980610296e-05 1.3944291943346343e-08 2.0028174674280308e-07 1.3944291943346343e-08 -4.2330393625888973e-05 1.438145318388706e-07 2.0028174674280308e-07 1.438145318388706e-07 -4.237587927491404e-05" pbc="T T T"
Nb       1.89964143       1.34324152       3.29027015       0.00006463      -0.00004192       0.00007549
Nb       5.69890728       4.02973678       9.87078196       0.00000243       0.00002749      -0.00016749
Te      -0.00000008      -0.00000013       0.00000043       0.00000200       0.00000108      -0.00000962
Se       2.21238662       1.56439390       6.58052890      -0.00406447      -0.00287649      -0.00002789
Se       5.38615371       3.80858864       6.58053748       0.00404263       0.00289509       0.00007294
Se       4.59270890       1.56438995       5.20624907       0.00198393      -0.00290978      -0.00351092
Se       3.00583184       3.80858795       7.95481299      -0.00200135       0.00289446       0.00353169
Se       3.00582624       3.80858652       5.20624984      -0.00205931       0.00286597      -0.00350326
Se       4.59271199       1.56439524       7.95481444       0.00202936      -0.00285596       0.00353909
