9
Lattice="4.297285508745572 1.31653924799417e-07 2.481039049746062 1.4324285738164035 4.051520138135084 2.481039141931527 7.503574242025362e-08 1.6596194588296493e-07 4.962077969526401" Properties=species:S:1:pos:R:3:forces:R:3 energy=-71.09468841552734 free_energy=-71.09468841552734 stress="5.4882006224943325e-05 1.1210921257998052e-07 -2.0838859882132965e-07 1.1210921257998052e-07 5.480235631694086e-05 -1.6768788668741763e-07 -2.0838859882132965e-07 -1.6768788668741763e-07 5.497804158949293e-05" pbc="T T T"
Nb       1.43242888       1.01288076       2.48103838       0.00000569       0.00000736      -0.00000721
Nb       4.29728596       3.03863949       7.44311894       0.00000703      -0.00001362       0.00002822
Ti      -0.00000016      -0.00000015       0.00000013      -0.00000440       0.00000082      -0.00000386
O        1.50866851       1.06679041       4.96207807       0.00018495       0.00013816       0.00000093
O        4.22104524       2.98473040       4.96207727      -0.00018734      -0.00012964      -0.00000985
O        3.54295146       1.06679022       3.78758463      -0.00009453       0.00013903       0.00016385
O        2.18676264       2.98473016       6.13657137       0.00008935      -0.00013739      -0.00017017
O        2.18676308       2.98473000       3.78758441       0.00009415      -0.00013790       0.00015867
O        3.54295093       1.06679041       6.13657138      -0.00009465       0.00013340      -0.00015956
