9
Lattice="4.398962564168635 -3.1234925085515355e-08 2.539742202772708 1.4663208393084406 4.147381516430095 2.5397421784648655 2.2933604100307886e-08 -1.3554392792623236e-08 5.079484365823229" Properties=species:S:1:pos:R:3:forces:R:3 energy=-74.49430847167969 free_energy=-74.49430847167969 stress="3.144974834867753e-05 3.11920551610001e-08 8.144748164795601e-08 3.11920551610001e-08 3.13844284391962e-05 -6.1442818832802e-08 8.144748164795601e-08 -6.1442818832802e-08 3.13663185806945e-05" pbc="T T T"
Nb       1.46632161       1.03684595       2.53974221       0.00000888       0.00000713       0.00000065
Nb       4.39896278       3.11053662       7.61922632       0.00000788       0.00001151      -0.00000131
Ta       0.00000005      -0.00000009       0.00000011      -0.00000089       0.00000489       0.00000359
O        1.55704935       1.10100001       5.07948449       0.00049630       0.00035648       0.00000011
O        4.30823415       3.04638108       5.07948448      -0.00050501      -0.00036184       0.00000231
O        3.62043750       1.10099999       3.88818640      -0.00025745       0.00035320       0.00043329
O        2.24484549       3.04638137       6.27078230       0.00025697      -0.00036642      -0.00044372
O        2.24484537       3.04638118       3.88818665       0.00024854      -0.00035696       0.00043661
O        3.62043741       1.10099975       6.27078208      -0.00025554       0.00035135      -0.00043128
