9
Lattice="5.60912716694755 -1.9399751653682019e-07 3.2384309930458905 1.8697090183296328 5.2883354165486 3.2384307408885915 2.25301786645038e-07 -1.4951593825661134e-07 6.476861595857688" Properties=species:S:1:pos:R:3:forces:R:3 energy=-39.213260650634766 free_energy=-39.213260650634766 stress="0.0001873615401564166 9.147240120910283e-08 -4.046406765212396e-09 9.147240120910283e-08 0.00018757078214548528 -9.478353746317225e-08 -4.046406765212396e-09 -9.478353746317225e-08 0.00018769179587252438" pbc="T T T"
Nb       1.86969885       1.32208462       3.23843293      -0.00014497       0.00001040       0.00003386
Nb       5.60913291       3.96625266       9.71528650       0.00009010       0.00001473      -0.00008352
Te      -0.00000014      -0.00000003      -0.00000032      -0.00000152      -0.00000019       0.00001057
S        1.94868676       1.37792995       6.47686224      -0.00194883      -0.00136447      -0.00000262
S        5.53015036       3.91040409       6.47686687       0.00195926       0.00134647       0.00005413
S        4.63478705       1.37792842       4.92604567       0.00101280      -0.00139749      -0.00164247
S        2.84405112       3.91040716       8.02767830      -0.00098243       0.00139058       0.00165683
S        2.84404932       3.91040471       4.92604427      -0.00102180       0.00137401      -0.00166368
S        4.63478930       1.37792872       8.02767674       0.00103751      -0.00137365       0.00163656
