9
Lattice="5.2376535446640915 4.323166581780774e-08 3.0239606484428423 1.7458845447704618 4.9381070617167415 3.0239606672818806 -9.466287923017104e-09 1.6379320744375218e-08 6.047921313281797" Properties=species:S:1:pos:R:3:forces:R:3 energy=-51.248992919921875 free_energy=-51.248992919921875 stress="0.0003295057103969157 -1.9344206236837636e-08 -1.9442490284404812e-08 -1.9344206236837636e-08 0.0003295525093562901 -4.126032848716932e-09 -1.9442490284404812e-08 -4.126032848716932e-09 0.00032952104811556637" pbc="T T T"
Nb       1.74588425       1.23452763       3.02396103      -0.00000439       0.00000301       0.00000978
Nb       5.23765357       3.70357989       9.07187976       0.00000308      -0.00000240      -0.00001759
Ti       0.00000002       0.00000006      -0.00000021      -0.00000226      -0.00000081      -0.00000049
S        1.87922155       1.32881067       6.04792127       0.00026238       0.00018919      -0.00000165
S        5.10431675       3.60929584       6.04792212      -0.00025672      -0.00018680       0.00000293
S        4.29804231       1.32880957       4.65141514      -0.00013456       0.00017869       0.00022364
S        2.68549583       3.60929703       7.44442811       0.00013161      -0.00018132      -0.00022203
S        2.68549495       3.60929709       4.65141530       0.00012898      -0.00018448       0.00022781
S        4.29804316       1.32881081       7.44442804      -0.00012842       0.00018513      -0.00022250
