9
Lattice="5.525016426022683 -2.1830490353254996e-08 3.1898698487230015 1.8416721562465739 5.20903527083687 3.1898697884112397 1.419255398935519e-07 2.6490004252575066e-08 6.3797394516237675" Properties=species:S:1:pos:R:3:forces:R:3 energy=-46.83216857910156 free_energy=-46.83216857910156 stress="-9.444732859265059e-05 3.45364314924268e-09 -1.1327244919812074e-07 3.45364314924268e-09 -9.453809616388753e-05 3.753859800781356e-08 -1.1327244919812074e-07 3.753859800781356e-08 -9.44740604609251e-05" pbc="T T T"
Nb       1.84167169       1.30225830       3.18986973      -0.00000223      -0.00000213       0.00000442
Nb       5.52501613       3.90677687       9.56960692      -0.00000412       0.00000221      -0.00002159
Ti      -0.00000006      -0.00000017       0.00000022       0.00000009       0.00000094       0.00001174
Se       1.97012384       1.39308766       6.37973987      -0.00029814      -0.00021395       0.00000434
Se       5.39656502       3.81594741       6.37974019       0.00029859       0.00021249       0.00000400
Se       4.53995437       1.39308779       4.89604742       0.00015162      -0.00021887      -0.00025973
Se       2.82673484       3.81594780       7.86343215      -0.00014436       0.00021386       0.00025517
Se       2.82673387       3.81594705       4.89604712      -0.00015230       0.00021037      -0.00025690
Se       4.53995516       1.39308840       7.86343264       0.00015077      -0.00020482       0.00025856
