9
Lattice="5.431961125247627 -1.1464436568944774e-07 3.1361442705299365 1.8106536188444575 5.121302070286979 3.1361442384587193 -3.249166217429965e-08 -6.225410698549391e-08 6.272288597337054" Properties=species:S:1:pos:R:3:forces:R:3 energy=-54.94396209716797 free_energy=-54.94396209716797 stress="-9.574493742547929e-05 -3.8541497104915834e-08 -8.201928913820211e-09 -3.8541497104915834e-08 -9.579324250807986e-05 4.609868486937785e-09 -8.201928913820211e-09 4.609868486937785e-09 -9.566929657012224e-05" pbc="T T T"
Nb       1.81065382       1.28032569       3.13614422      -0.00000054       0.00000326       0.00000041
Nb       5.43196113       3.84097630       9.40843281       0.00000145      -0.00000249       0.00000195
Ta      -0.00000015      -0.00000020      -0.00000020       0.00000013      -0.00000118      -0.00000053
S        1.93482142       1.36812548       6.27228840      -0.00591260      -0.00417948      -0.00000029
S        5.30779322       3.75317660       6.27228856       0.00591248       0.00417939      -0.00000159
S        4.46455010       1.36812515       4.81174907       0.00295731      -0.00418165      -0.00512236
S        2.77806441       3.75317643       7.73282822      -0.00295761       0.00418079       0.00512356
S        2.77806456       3.75317668       4.81174919      -0.00295660       0.00418225      -0.00512242
S        4.46455032       1.36812539       7.73282807       0.00295556      -0.00418094       0.00512141
