9
Lattice="4.476881271973826 9.158066224606628e-09 2.5847285698058577 1.4922937629208959 4.220844164054531 2.5847285750678735 1.4233446448596081e-08 1.6509199759911036e-08 5.169457114958683" Properties=species:S:1:pos:R:3:forces:R:3 energy=-60.4705810546875 free_energy=-60.4705810546875 stress="9.329945169156417e-05 5.222524634973524e-09 4.5760895517332756e-08 5.222524634973524e-09 9.318412048742175e-05 3.952516536287476e-08 4.5760895517332756e-08 3.952516536287476e-08 9.337124356534332e-05" pbc="T T T"
Nb       1.49229485       1.05521238       2.58472878       0.00001233       0.00001115      -0.00000050
Nb       4.47688114       3.16563190       7.75418466      -0.00000071      -0.00000914      -0.00000988
Te      -0.00000003       0.00000008       0.00000010      -0.00000619      -0.00000505       0.00000651
O        1.55095994       1.09669462       5.16945733      -0.00045472      -0.00031807       0.00000168
O        4.41821483       3.12414998       5.16945722       0.00045797       0.00032413       0.00000119
O        3.70140096       1.09669424       3.92789970       0.00022751      -0.00032364      -0.00039649
O        2.26777393       3.12414941       6.41101491      -0.00023118       0.00032000       0.00039825
O        2.26777355       3.12414942       3.92789952      -0.00023319       0.00032191      -0.00040075
O        3.70140101       1.09669467       6.41101487       0.00022824      -0.00032157       0.00039935
