9
Lattice="6.135644567584174 -7.181409936100041e-08 3.542416083255303 2.0452148244851847 5.784741138900771 3.5424160203285897 4.403057207087283e-08 -4.593486287865005e-08 7.0848320902474295" Properties=species:S:1:pos:R:3:forces:R:3 energy=-46.16484069824219 free_energy=-46.16484069824219 stress="2.417052564851474e-05 -3.833871176084358e-08 1.2205392252440106e-08 -3.833871176084358e-08 2.4211043637478724e-05 -1.9382092375508364e-08 1.2205392252440106e-08 -1.9382092375508364e-08 2.419396332697943e-05" pbc="T T T"
Nb       2.04521527       1.44618524       3.54241578       0.00000236      -0.00000092       0.00000002
Nb       6.13564517       4.33855568      10.62724835       0.00000533       0.00000115       0.00000353
Ta      -0.00000006       0.00000001       0.00000036      -0.00000128      -0.00000018      -0.00000693
Te       2.16008870       1.52741364       7.08483219      -0.00115775      -0.00081626      -0.00000190
Te       6.02077069       4.25732747       7.08483205       0.00115490       0.00081673      -0.00000146
Te       5.05559984       1.52741347       5.41310776       0.00057524      -0.00081544      -0.00100352
Te       3.12525920       4.25732743       8.75655602      -0.00058237       0.00082118       0.00100605
Te       3.12525937       4.25732774       5.41310828      -0.00057769       0.00081722      -0.00100364
Te       5.05559961       1.52741341       8.75655602       0.00058124      -0.00082342       0.00100820
