9
Lattice="5.479742186770933 3.8065465467049225e-08 3.163730621889629 1.8265807644071046 5.166350410401019 3.1637306225911277 4.5557265705707125e-08 3.3073007203406154e-08 6.32746116487177" Properties=species:S:1:pos:R:3:forces:R:3 energy=-46.840145111083984 free_energy=-46.840145111083984 stress="2.7545254852157086e-05 2.68035620365481e-08 4.901468741991266e-08 2.68035620365481e-08 2.751185638771858e-05 -1.4003325610190132e-08 4.901468741991266e-08 -1.4003325610190132e-08 2.7482845325721428e-05" pbc="T T T"
Nb       1.82658098       1.29158911       3.16372982      -0.00000328       0.00001244      -0.00000943
Nb       5.47974336       3.87476328       9.49119192       0.00001316       0.00000234       0.00000250
V       -0.00000030      -0.00000041       0.00000025       0.00000157      -0.00000054      -0.00000430
Se       1.96914043       1.39239179       6.32746113      -0.00650144      -0.00459731       0.00000002
Se       5.33718245       3.77395780       6.32746099       0.00650537       0.00459594       0.00000089
Se       4.49517241       1.39239238       4.86905622       0.00324726      -0.00459689      -0.00562656
Se       2.81115030       3.77395767       7.78586632      -0.00325671       0.00458974       0.00563270
Se       2.81115047       3.77395793       4.86905650      -0.00325614       0.00459421      -0.00562960
Se       4.49517196       1.39239239       7.78586639       0.00325030      -0.00459957       0.00563371
