9
Lattice="5.9877128391144705 4.1677148500533e-08 3.4570075758723795 1.9959043020208382 5.645269867652766 3.4570076052783283 -1.9761227055824153e-08 2.2041523261222986e-08 6.91401518597216" Properties=species:S:1:pos:R:3:forces:R:3 energy=-43.949398040771484 free_energy=-43.949398040771484 stress="-0.00010086088150274009 -4.3891006384910725e-09 2.786330499660039e-09 -4.3891006384910725e-09 -0.00010088091221405193 1.6211962883261322e-09 2.786330499660039e-09 1.6211962883261322e-09 -0.00010087349801324308" pbc="T T T"
Nb       1.99590436       1.41131604       3.45700727       0.00000085      -0.00001000      -0.00000099
Nb       5.98771279       4.23395243      10.37102240      -0.00000030       0.00000121      -0.00000342
V       -0.00000008       0.00000011      -0.00000002      -0.00000210      -0.00000059       0.00000214
Te       2.08291954       1.47284665       6.91401531      -0.00441334      -0.00311989       0.00000169
Te       5.90069723       4.17242389       6.91401539       0.00441585       0.00312383       0.00000145
Te       4.94625289       1.47284665       5.26086889       0.00220796      -0.00312193      -0.00382434
Te       3.03736415       4.17242370       8.56716145      -0.00220746       0.00312160       0.00382248
Te       3.03736425       4.17242360       5.26086910      -0.00220955       0.00312501      -0.00382382
Te       4.94625331       1.47284667       8.56716167       0.00220808      -0.00311920       0.00382490
