9
Lattice="4.281339139902542 7.73792782179956e-08 2.4718322052372597 1.4271130595153483 4.036485431329985 2.4718323092862406 -7.397887407507589e-08 7.512248737372561e-08 4.943664538609674" Properties=species:S:1:pos:R:3:forces:R:3 energy=-68.20774841308594 free_energy=-68.20774841308594 stress="5.0741826271405444e-05 -4.126201247345307e-08 1.6531556923382595e-07 -4.126201247345307e-08 5.075004810350947e-05 5.2635336089679186e-08 1.6531556923382595e-07 5.2635336089679186e-08 5.077894093119539e-05" pbc="T T T"
Nb       1.42711202       1.00911964       2.47183219      -0.00001431      -0.00002959      -0.00000131
Nb       4.28133747       3.02736482       7.41549507      -0.00002920       0.00000991      -0.00002794
V        0.00000009      -0.00000001       0.00000007      -0.00000183      -0.00000171      -0.00000020
O        1.47746160       1.04472205       4.94366448      -0.00032106      -0.00023694       0.00000152
O        4.23099083       2.99176355       4.94366511       0.00033045       0.00024055       0.00001101
O        3.54260900       1.04472295       3.75135132       0.00017776      -0.00023434      -0.00028148
O        2.16584439       2.99176296       6.13597833      -0.00015706       0.00023718       0.00029480
O        2.16584387       2.99176321       3.75135144      -0.00016227       0.00024033      -0.00028342
O        3.54260927       1.04472315       6.13597813       0.00017725      -0.00022586       0.00028640
