9
Lattice="6.094876646760544 1.415532934771859e-07 3.5188786387919504 2.0316256237384733 5.746304860665015 3.5188787403584 -7.057694437914936e-08 7.448756621541809e-08 7.037757399826719" Properties=species:S:1:pos:R:3:forces:R:3 energy=-45.94049835205078 free_energy=-45.94049835205078 stress="3.469378862064332e-05 5.496642430102838e-08 1.8218393904589902e-08 5.496642430102838e-08 3.464722612989135e-05 -5.393966606703771e-09 1.8218393904589902e-08 -5.393966606703771e-09 3.461639425950125e-05" pbc="T T T"
Nb       2.03162570       1.43657634       3.51887859       0.00000147      -0.00000021       0.00000040
Nb       6.09487610       4.30972856      10.55663715      -0.00000311      -0.00000163       0.00000523
W       -0.00000003       0.00000018       0.00000002       0.00000045      -0.00000368       0.00001204
Te       2.13709712       1.51115608       7.03775706      -0.00031318      -0.00021990      -0.00000026
Te       5.98940484       4.23514870       7.03775687       0.00031684       0.00022428       0.00000053
Te       5.02632817       1.51115629       5.36965888       0.00015849      -0.00022420      -0.00027069
Te       3.10017382       4.23514947       8.70585596      -0.00015311       0.00021514       0.00026345
Te       3.10017482       4.23514908       5.36965876      -0.00015850       0.00022566      -0.00027452
Te       5.02632825       1.51115560       8.70585585       0.00015070      -0.00021543       0.00026351
