9
Lattice="5.4494723085477945 -5.437451151240322e-08 3.14625421978388 1.8164907882986492 5.137811541446969 3.1462540984580305 5.061043734080066e-08 -1.1280623686630101e-07 6.29250835190797" Properties=species:S:1:pos:R:3:forces:R:3 energy=-53.58716583251953 free_energy=-53.58716583251953 stress="-1.2939934777023154e-06 5.554031901056078e-08 -2.326595804902354e-08 5.554031901056078e-08 -1.3408397308012354e-06 -7.109142075023556e-08 -2.326595804902354e-08 -7.109142075023556e-08 -1.2553724673125544e-06" pbc="T T T"
Nb       1.81648753       1.28445108       3.14625512      -0.00003181      -0.00001413       0.00001457
Nb       5.44947257       3.85335946       9.43875991       0.00000093       0.00000736      -0.00002854
W        0.00000026       0.00000016       0.00000057       0.00000441      -0.00000401      -0.00000269
S        1.91167054       1.35175532       6.29250819      -0.00171763      -0.00121588      -0.00000200
S        5.35429264       3.78605617       6.29250957       0.00172383       0.00121754       0.00000966
S        4.49363700       1.35175501       4.80180888       0.00085813      -0.00121486      -0.00147986
S        2.77232718       3.78605641       7.78320818      -0.00085053       0.00122118       0.00148839
S        2.77232593       3.78605684       4.80180971      -0.00086382       0.00122297      -0.00147921
S        4.49363911       1.35175507       7.78320660       0.00087628      -0.00122005       0.00147921
