9
Lattice="4.433114180148092 -4.073540256338192e-08 2.559459873764272 1.4777047063327766 4.179580046868663 2.5594598425484363 -5.090607801389151e-09 -4.183102834956419e-08 5.118919756345704" Properties=species:S:1:pos:R:3:forces:R:3 energy=-67.02754211425781 free_energy=-67.02754211425781 stress="8.047798473853618e-05 9.982377235928652e-08 -6.373231542511348e-08 9.982377235928652e-08 8.049137977650389e-05 1.2427285867033788e-07 -6.373231542511348e-08 1.2427285867033788e-07 8.025695569813251e-05" pbc="T T T"
Nb       1.47770403       1.04489473       2.55946035      -0.00000520      -0.00000220       0.00000810
Nb       4.43311444       3.13468469       7.67838002       0.00000324      -0.00000418       0.00000344
W        0.00000039      -0.00000024      -0.00000074      -0.00001190       0.00000649       0.00002941
O        1.55292820       1.09808628       5.11891946      -0.00466940      -0.00329888       0.00000025
O        4.35789068       3.08149400       5.11891976       0.00467083       0.00330544       0.00000180
O        3.65664979       1.09808641       3.90433515       0.00234331      -0.00331151      -0.00405329
O        2.25416851       3.08149444       6.33350471      -0.00232692       0.00328857       0.00402278
O        2.25416887       3.08149392       3.90433478      -0.00233303       0.00330448      -0.00403959
O        3.65665065       1.09808570       6.33350470       0.00232908      -0.00328866       0.00402725
