9
Lattice="5.703465349449824 1.0355164742052848e-07 3.2928974600377248 1.901155216319361 5.377278949931956 3.2928974562156865 1.171212544680036e-07 7.813622952770752e-08 6.585794717215491" Properties=species:S:1:pos:R:3:forces:R:3 energy=-49.16850280761719 free_energy=-49.16850280761719 stress="-0.00018487113993614912 3.5532185194142585e-08 5.901317212675394e-09 3.5532185194142585e-08 -0.00018492795061320066 -1.1252129894501195e-08 5.901317212675394e-09 -1.1252129894501195e-08 -0.00018488553178030998" pbc="T T T"
Nb       1.90115571       1.34431834       3.29289753       0.00000474      -0.00001235      -0.00000084
Nb       5.70346611       4.03296029       9.87868972       0.00000403       0.00001296      -0.00002234
W       -0.00000008       0.00000014       0.00000033      -0.00000715       0.00000110      -0.00000598
Se       1.98868597       1.40621303       6.58579466      -0.00325128      -0.00230327      -0.00000374
Se       5.61593422       3.97106634       6.58579562       0.00325221       0.00230944       0.00000951
Se       4.70912290       1.40621292       5.01515087       0.00162643      -0.00230521      -0.00281209
Se       2.89549811       3.97106567       8.15643954      -0.00162625       0.00230193       0.00281960
Se       2.89549761       3.97106606       5.01515032      -0.00162898       0.00229669      -0.00280929
Se       4.70912216       1.40621371       8.15643989       0.00162625      -0.00230128       0.00282544
