9
Lattice="5.494889069216039 -3.3665100457792946e-09 3.1724757783453668 1.8316297511685449 5.1806307707521695 3.1724756664481815 8.317435309380755e-08 -7.823233688851016e-08 6.344951412628499" Properties=species:S:1:pos:R:3:forces:R:3 energy=-47.286659240722656 free_energy=-47.286659240722656 stress="-0.00011229560186620802 2.6482181780806968e-08 4.440389389515076e-08 2.6482181780806968e-08 -0.00011231500684516504 -3.388462843645357e-08 4.440389389515076e-08 -3.388462843645357e-08 -0.0001122964167734608" pbc="T T T"
Nb       1.83163064       1.29515811       3.17247569       0.00000969       0.00000083      -0.00000659
Nb       5.49488811       3.88547324       9.51742955      -0.00000788       0.00000359       0.00001776
Y       -0.00000006      -0.00000000      -0.00000043       0.00000416      -0.00000139       0.00000350
S        1.99384531       1.40986142       6.34495156       0.00277704       0.00196514       0.00000248
S        5.33267359       3.77076924       6.34494998      -0.00278144      -0.00196736      -0.00000952
S        4.49796705       1.40986138       4.89919595      -0.00138912       0.00197141       0.00240715
S        2.82855279       3.77076960       7.79070678       0.00139529      -0.00196628      -0.00240708
S        2.82855271       3.77076912       4.89919568       0.00139315      -0.00196800       0.00240042
S        4.49796554       1.40986059       7.79070677      -0.00140045       0.00196196      -0.00240823
