9
Lattice="5.731636406737824 1.7836414511828332e-08 3.309161755964596 1.9105455240936078 5.403838392292793 3.3091616895150198 9.598993344185983e-08 -1.3508642945707803e-08 6.61832334566982" Properties=species:S:1:pos:R:3:forces:R:3 energy=-42.917137145996094 free_energy=-42.917137145996094 stress="-0.000183772252057679 4.2759996432550906e-08 -1.6566788829663892e-08 4.2759996432550906e-08 -0.00018381403060629964 -8.323362266082768e-08 -1.6566788829663892e-08 -8.323362266082768e-08 -0.00018378162349108607" pbc="T T T"
Nb       1.91054736       1.35095945       3.30916167       0.00001601      -0.00000288      -0.00000026
Nb       5.73163637       4.05288052       9.92748370      -0.00000395       0.00001776      -0.00001386
Y       -0.00000005      -0.00000002      -0.00000021      -0.00000262       0.00000076       0.00001003
Se       2.09060200       1.47827871       6.61832332      -0.00403252      -0.00285346      -0.00000173
Se       5.55157943       3.92555969       6.61832390       0.00403512       0.00285837       0.00000648
Se       4.68633418       1.47827765       5.11967675       0.00200629      -0.00287050      -0.00349297
Se       2.95584661       3.92555947       8.11697123      -0.00201187       0.00284693       0.00348958
Se       2.95584703       3.92555961       5.11967621      -0.00201616       0.00285425      -0.00349431
Se       4.68633521       1.47827856       8.11697065       0.00200922      -0.00285106       0.00349695
