9
Lattice="4.5570890898649346 2.112553134862846e-08 2.6310366294254743 1.5190297072644594 4.296464482610351 2.6310366454894414 -1.2326856501068717e-07 -6.748979396557597e-08 5.262073472358362" Properties=species:S:1:pos:R:3:forces:R:3 energy=-61.855350494384766 free_energy=-61.855350494384766 stress="-0.00013514887541532516 -1.2348771782910717e-08 2.7313714667798195e-07 -1.2348771782910717e-08 -0.0001348183286609128 7.210086749864786e-08 2.7313714667798195e-07 7.210086749864786e-08 -0.0001352182443952188" pbc="T T T"
Nb       1.51902957       1.07411464       2.63103784      -0.00000176      -0.00002107       0.00001978
Nb       4.55708894       3.22234968       7.89310980       0.00000220       0.00001721      -0.00000373
Y        0.00000021       0.00000018      -0.00000012      -0.00000039      -0.00000862       0.00000467
O        1.66425734       1.17680729       5.26207341      -0.00414479      -0.00293909      -0.00000207
O        4.41186164       3.11965653       5.26207349       0.00415391       0.00293837       0.00000253
O        3.72495967       1.17680740       4.07232474       0.00206083      -0.00293601      -0.00359529
O        2.35115839       3.11965795       6.45182098      -0.00206594       0.00294124       0.00358696
O        2.35115809       3.11965727       4.07232609      -0.00207922       0.00294395      -0.00359108
O        3.72496088       1.17680663       6.45182063       0.00207534      -0.00293620       0.00357665
