9
Lattice="6.21556331197728 -2.632883154254153e-08 3.588557139049324 2.0718544309394438 5.8600892547648815 3.588557107115946 3.925295577909889e-08 -1.1354229119113818e-08 7.177114210110515" Properties=species:S:1:pos:R:3:forces:R:3 energy=-40.53828430175781 free_energy=-40.53828430175781 stress="-7.595258648507297e-05 -1.2340225508111757e-09 7.405057456111308e-09 -1.2340225508111757e-09 -7.59495233069174e-05 -3.608378307262683e-08 7.405057456111308e-09 -3.608378307262683e-08 -7.5919771916233e-05" pbc="T T T"
Nb       2.07185500       1.46502341       3.58855686       0.00000450       0.00000775      -0.00000296
Nb       6.21556294       4.39506587      10.76567167      -0.00000251      -0.00000755       0.00000390
Y       -0.00000016      -0.00000024       0.00000019       0.00000644       0.00000306       0.00000000
Te       2.25802021       1.59666204       7.17711403       0.00204761       0.00145142      -0.00000097
Te       6.02939777       4.26342747       7.17711392      -0.00205526      -0.00145853      -0.00000228
Te       5.08655286       1.59666162       5.54405994      -0.00102868       0.00145531       0.00177783
Te       3.20086478       4.26342725       8.81016854       0.00102671      -0.00145334      -0.00177529
Te       3.20086495       4.26342761       5.54406015       0.00102899      -0.00144981       0.00177428
Te       5.08655277       1.59666184       8.81016859      -0.00102770       0.00145198      -0.00177459
