9
Lattice="4.480478107586088 -1.6827053915437283e-08 2.5868051969619263 1.4934926999464746 4.224235385214799 2.5868051739559905 1.8546913015288722e-08 -1.506173229145021e-08 5.173610361799633" Properties=species:S:1:pos:R:3:forces:R:3 energy=-68.2414779663086 free_energy=-68.2414779663086 stress="8.254829299403355e-05 9.186518212800365e-08 1.076963229706962e-07 9.186518212800365e-08 8.222361793741584e-05 7.53318616375509e-08 1.076963229706962e-07 7.53318616375509e-08 8.278676978079602e-05" pbc="T T T"
Nb       1.49349418       1.05606069       2.58680534       0.00002153       0.00003083      -0.00000200
Nb       4.48047796       3.16817592       7.76041481      -0.00000274      -0.00000696      -0.00001139
Zr      -0.00000001       0.00000010      -0.00000001      -0.00000085      -0.00000180       0.00000666
O        1.60264245       1.13324025       5.17361052       0.00088143       0.00063056       0.00000258
O        4.37132820       3.09099494       5.17361082      -0.00087768      -0.00063366       0.00000471
O        3.67915598       1.13323976       3.97473451      -0.00045613       0.00062072       0.00076064
O        2.29481461       3.09099531       6.37248649       0.00044937      -0.00063401      -0.00076057
O        2.29481385       3.09099500       3.97473449       0.00043909      -0.00062869       0.00076278
O        3.67915601       1.13323946       6.37248617      -0.00045351       0.00062279      -0.00076383
