9
Lattice="5.433798212608324 1.8915935051989888e-08 3.13720481560243 1.8112660761562418 5.123034231100417 3.1372048373350414 -9.313554036775184e-08 -3.9239890300436813e-08 6.274409792520356" Properties=species:S:1:pos:R:3:forces:R:3 energy=-51.29615020751953 free_energy=-51.29615020751953 stress="-4.622875712811947e-05 -4.154376398446402e-09 6.529244922504063e-10 -4.154376398446402e-09 -4.631364572560415e-05 -3.322741193301226e-08 6.529244922504063e-10 -3.322741193301226e-08 -4.6283337724162266e-05" pbc="T T T"
Nb       1.81126641       1.28075839       3.13720474       0.00000263      -0.00000286      -0.00000210
Nb       5.43379836       3.84227542       9.41161469       0.00000063      -0.00000319       0.00000083
Zr      -0.00000003       0.00000005       0.00000048      -0.00000290       0.00000045      -0.00001415
S        1.96471751       1.38926534       6.27440961       0.00792968       0.00560737      -0.00000320
S        5.28034630       3.73376861       6.27440949      -0.00792342      -0.00560457      -0.00000323
S        4.45143946       1.38926503       4.83869987      -0.00397149       0.00561073       0.00687099
S        2.79362493       3.73376891       7.71011897       0.00395948      -0.00559920      -0.00686136
S        2.79362491       3.73376964       4.83870031       0.00396749      -0.00561097       0.00687227
S        4.45143891       1.38926553       7.71011941      -0.00396186       0.00560233      -0.00686017
