9
Lattice="6.1645975491530045 5.671926624554566e-08 3.5591319583927996 2.0548658977441483 5.812038351913033 3.5591319678306528 5.472826533649994e-10 1.1945944606127594e-08 7.118263915837663" Properties=species:S:1:pos:R:3:forces:R:3 energy=-43.34406280517578 free_energy=-43.34406280517578 stress="1.744710789353121e-05 5.51258905190366e-09 7.047506134227888e-09 5.51258905190366e-09 1.7469224985688925e-05 -1.3583681734985475e-08 7.047506134227888e-09 -1.3583681734985475e-08 1.7445647245040163e-05" pbc="T T T"
Nb       2.05486512       1.45300965       3.55913201      -0.00000612      -0.00000086       0.00000146
Nb       6.16459766       4.35902940      10.67739648       0.00000055       0.00000334       0.00000573
Zr       0.00000004      -0.00000004      -0.00000028       0.00000189      -0.00000096       0.00000214
Te       2.19650955       1.55316636       7.11826395      -0.00057396      -0.00040720      -0.00000033
Te       6.02295411       4.25887168       7.11826388       0.00057682       0.00040856      -0.00000142
Te       5.06634328       1.55316657       5.46136465       0.00028813      -0.00040631      -0.00049917
Te       3.15312027       4.25887183       8.77516316      -0.00028779       0.00040317       0.00049572
Te       3.15312056       4.25887180       5.46136464      -0.00028731       0.00040643      -0.00050059
Te       5.06634318       1.55316642       8.77516290       0.00028753      -0.00040612       0.00049664
