9
Lattice="5.690334556717344 4.894355053630011e-08 3.2853162436261854 1.8967782416915409 5.364898967488145 3.2853162263495386 6.871674633010844e-08 2.7430602041796204e-08 6.570632368231451" Properties=species:S:1:pos:R:3:forces:R:3 energy=-46.69253158569336 free_energy=-46.69253158569336 stress="-2.946148015325889e-05 4.138913922702159e-08 -4.232282968530399e-09 4.138913922702159e-08 -2.9474409529939294e-05 -2.9596415984656232e-08 -4.232282968530399e-09 -2.9596415984656232e-08 -2.9588094548671506e-05" pbc="T T T"
Nb       1.89677846       1.34122434       3.28531560       0.00000094      -0.00000265      -0.00000385
Nb       5.69033486       4.02367485       9.85595036      -0.00000054       0.00000583       0.00001844
Zr       0.00000004      -0.00000010      -0.00000019      -0.00000157       0.00000077       0.00000686
Se       2.04892058       1.44880527       6.57063248       0.00102101       0.00072008       0.00000015
Se       5.53819189       3.91609362       6.57063162      -0.00101671      -0.00071544      -0.00000727
Se       4.66587443       1.44880576       5.05973322      -0.00050864       0.00071840       0.00088026
Se       2.92123786       3.91609367       8.08153191       0.00050748      -0.00072598      -0.00089002
Se       2.92123886       3.91609355       5.05973301       0.00051203      -0.00072227       0.00088406
Se       4.66587454       1.44880522       8.08153135      -0.00051392       0.00072121      -0.00088876
