9
Lattice="5.483122467285865 9.240244471652925e-08 3.165682471040909 1.8277077548792344 5.169536587012293 3.1656821615823887 3.1193948054313425e-07 -1.584333001714976e-07 6.331364401786946" Properties=species:S:1:pos:R:3:forces:R:3 energy=-31.51177978515625 free_energy=-31.51177978515625 stress="0.00017805391689762473 -8.554470554145155e-08 -1.243972036490959e-07 -8.554470554145155e-08 0.00017810369899962097 -6.878482849970169e-08 -1.243972036490959e-07 -6.878482849970169e-08 0.00017807948461268097" pbc="T T T"
Ni       1.82770547       1.29238121       3.16568080      -0.00001205      -0.00001910      -0.00000739
Ni       5.48312206       3.87714882       9.49705160      -0.00000494      -0.00001712       0.00002624
As      -0.00000055      -0.00000020       0.00000019       0.00000849       0.00000851      -0.00000493
Se       2.11505557       1.49557077       6.33136516       0.00543159       0.00384721       0.00000214
Se       5.19577544       3.67396767       6.33136282      -0.00543597      -0.00384422      -0.00000554
Se       4.42559614       1.49557277       4.99737372      -0.00270902       0.00384863       0.00470218
Se       2.88523670       3.67396783       7.66535328       0.00271697      -0.00383669      -0.00470470
Se       2.88523689       3.67396797       4.99737444       0.00272040      -0.00383157       0.00470205
Se       4.42559454       1.49556886       7.66535419      -0.00271560       0.00384434      -0.00470993
