9
Lattice="5.446471400038105 5.940957227479415e-08 3.1445217362106828 1.8154904415356468 5.134983117556215 3.144521876776303 -1.2173197040921026e-07 8.607953291882357e-08 6.289043683267303" Properties=species:S:1:pos:R:3:forces:R:3 energy=-31.712568283081055 free_energy=-31.712568283081055 stress="-9.729740122566e-05 1.8549695113279085e-08 -2.4800970166438674e-08 1.8549695113279085e-08 -9.739730012370273e-05 3.6404326664296605e-08 -2.4800970166438674e-08 3.6404326664296605e-08 -9.729131124913692e-05" pbc="T T T"
Ni       1.81549052       1.28374489       3.14452160      -0.00000083      -0.00000621      -0.00000023
Ni       5.44647081       3.85123703       9.43356567      -0.00000264      -0.00000243       0.00000071
As       0.00000006      -0.00000050       0.00000030      -0.00000177       0.00000270      -0.00000861
S        1.89518160       1.34009527       6.28904393      -0.00355941      -0.00252283       0.00000149
S        5.36678023       3.79488766       6.28904420       0.00355977       0.00252038       0.00000186
S        4.49888068       1.34009652       4.78579679       0.00178078      -0.00251406      -0.00308871
S        2.76308084       3.79488768       7.79228956      -0.00178421       0.00252467       0.00308365
S        2.76308118       3.79488820       4.78579711      -0.00177565       0.00251734      -0.00307786
S        4.49888085       1.34009634       7.79229001       0.00178409      -0.00251967       0.00308794
