9
Lattice="5.436523044127669 -2.110404420395822e-08 3.1387779489006076 1.812174322670831 5.125603156360145 3.138777958382937 6.37921352621161e-08 5.6721317117144075e-08 6.277555787310003" Properties=species:S:1:pos:R:3:forces:R:3 energy=-33.02815628051758 free_energy=-33.02815628051758 stress="3.728033698280342e-05 -2.1787423420960295e-08 -3.555607008820516e-08 -2.1787423420960295e-08 3.724903945112601e-05 -4.66725369463461e-09 -3.555607008820516e-08 -4.66725369463461e-09 3.7300207623047754e-05" pbc="T T T"
Ni       1.81217398       1.28140061       3.13877778      -0.00000288      -0.00000154      -0.00000111
Ni       5.43652314       3.84420122       9.41633534      -0.00000005      -0.00000720       0.00000828
B        0.00000025      -0.00000002      -0.00000007      -0.00000033      -0.00000006      -0.00000045
Se       1.70860777       1.20816840       6.27755572       0.00022484       0.00016100      -0.00000053
Se       5.54008944       3.91743537       6.27755498      -0.00022630      -0.00015870      -0.00000555
Se       4.58222006       1.20816893       4.61847531      -0.00010727       0.00016378       0.00019289
Se       2.66647816       3.91743494       7.93663605       0.00011050      -0.00015730      -0.00019455
Se       2.66647799       3.91743495       4.61847536       0.00011313      -0.00015971       0.00019503
Se       4.58221899       1.20816830       7.93663626      -0.00011156       0.00015971      -0.00019403
