9
Lattice="5.208978412744731 -2.904229716567699e-07 3.0074049835548315 1.7363260143918278 4.911071056612172 3.0074047226670158 5.125343271616424e-08 -2.832794582947313e-07 6.014809878336234" Properties=species:S:1:pos:R:3:forces:R:3 energy=-35.19121551513672 free_energy=-35.19121551513672 stress="-0.00022733780497219414 4.3705259855642e-08 -2.7772692590133374e-08 4.3705259855642e-08 -0.00022731207718607038 6.429650056816172e-08 -2.7772692590133374e-08 6.429650056816172e-08 -0.00022741757857147604" pbc="T T T"
Ni       1.73632642       1.22776722       3.00740484       0.00000056      -0.00000216       0.00000088
Ni       5.20897920       3.68330423       9.02221607       0.00000903       0.00001163       0.00000763
B       -0.00000019       0.00000039      -0.00000050       0.00000159      -0.00000352       0.00000377
S        1.62669625       1.15024730       6.01480969       0.00170988       0.00120723      -0.00000188
S        5.31860839       3.76082275       6.01480923      -0.00170994      -0.00120959      -0.00000504
S        4.39563068       1.15024675       4.41616563      -0.00085342       0.00120494       0.00148317
S        2.54967332       3.76082346       7.61345394       0.00085104      -0.00120705      -0.00148392
S        2.54967366       3.76082352       4.41616468       0.00085330      -0.00120792       0.00148162
S        4.39563009       1.15024603       7.61345494      -0.00086203       0.00120640      -0.00148591
