9
Lattice="3.8930720710629467 7.69772174052105e-08 2.247666009231109 1.297690773791838 3.670423389903086 2.2476659904163983 -3.8212627802404396e-10 -2.331343781568066e-08 4.4953320191241" Properties=species:S:1:pos:R:3:forces:R:3 energy=-42.809207916259766 free_energy=-42.809207916259766 stress="0.0004055586759932339 -5.852072249012963e-08 4.700259381706928e-08 -5.852072249012963e-08 0.00040598760824650526 -3.027535777633261e-09 4.700259381706928e-08 -3.027535777633261e-09 0.00040517578599974513" pbc="T T T"
Ni       1.29768864       0.91760166       2.24766665      -0.00001146      -0.00004003       0.00000536
Ni       3.89307232       2.75281646       6.74299795      -0.00000065      -0.00000600       0.00000042
B        0.00000027      -0.00000071       0.00000042      -0.00000940      -0.00001255      -0.00000516
O        1.28583344       0.90922263       4.49533219       0.00279212       0.00199097      -0.00000461
O        3.90492814       2.76120318       4.49533268      -0.00278866      -0.00196761      -0.00000112
O        3.25015594       0.90922215       3.36123069      -0.00139284       0.00198841       0.00242305
O        1.94060833       2.76120396       5.62943236       0.00139529      -0.00196332      -0.00242567
O        1.94060848       2.76120321       3.36123025       0.00140548      -0.00197381       0.00242960
O        3.25015536       0.90922153       5.62943312      -0.00138974       0.00198466      -0.00242186
