9
Lattice="5.971272734685597 -3.935156714198451e-08 3.447516130886762 1.9904241382254426 5.629770851679199 3.447516251383257 6.038856902716471e-08 1.902785904443047e-07 6.895032157177456" Properties=species:S:1:pos:R:3:forces:R:3 energy=-29.8826847076416 free_energy=-29.8826847076416 stress="0.00016743491869419813 -6.118507034358345e-09 -1.662307269612029e-08 -6.118507034358345e-09 0.00016739615239202976 -4.462042468844629e-08 -1.662307269612029e-08 -4.462042468844629e-08 0.00016747121117077768" pbc="T T T"
Ni       1.99042588       1.40744312       3.44751571       0.00001007       0.00000362      -0.00000258
Ni       5.97127243       4.22232837      10.34254878      -0.00000286      -0.00000167       0.00000172
B       -0.00000011      -0.00000014       0.00000105      -0.00000350       0.00000446      -0.00001078
Te       1.87712065       1.32732518       6.89503178      -0.00780725      -0.00551918      -0.00000113
Te       6.08457628       4.30244592       6.89503150       0.00780748       0.00552149      -0.00000368
Te       5.03271215       1.32732523       5.07315016       0.00389946      -0.00551757      -0.00676091
Te       2.92898460       4.30244479       8.71691472      -0.00390522       0.00551791       0.00676620
Te       2.92898462       4.30244571       5.07314985      -0.00390067       0.00551593      -0.00675927
Te       5.03271118       1.32732587       8.71691463       0.00390257      -0.00552501       0.00677046
