9
Lattice="6.203924952553413 -2.3602619951504255e-08 3.581837768005942 2.0679749484958827 5.849116767136493 3.581837791277464 -3.572976389558547e-08 3.236947198954414e-09 7.1636755978976" Properties=species:S:1:pos:R:3:forces:R:3 energy=-27.08930206298828 free_energy=-27.08930206298828 stress="6.762209977750899e-06 -1.1250183895583632e-08 3.4935081494325004e-09 -1.1250183895583632e-08 6.75485898682382e-06 -2.708396396045032e-09 3.4935081494325004e-09 -2.708396396045032e-09 6.754309197276598e-06" pbc="T T T"
Ni       2.06797478       1.46227933       3.58183750      -0.00000044       0.00000018      -0.00000147
Ni       6.20392405       4.38683725      10.74551277      -0.00000295      -0.00000049      -0.00000180
Ga      -0.00000009       0.00000021      -0.00000008       0.00000002      -0.00000069      -0.00000140
Te       2.23571238       1.58088735       7.16367559      -0.00017159      -0.00012208       0.00000007
Te       6.03618745       4.26822925       7.16367581       0.00017290       0.00012232       0.00000059
Te       5.08606898       1.58088731       5.51802146       0.00008652      -0.00012179      -0.00014830
Te       3.18583161       4.26822918       8.80933000      -0.00008569       0.00012233       0.00015145
Te       3.18583145       4.26822935       5.51802147      -0.00008503       0.00012162      -0.00014987
Te       5.08606884       1.58088775       8.80933014       0.00008631      -0.00012139       0.00015071
