9
Lattice="5.472112559741904 7.962654198429431e-08 3.159325887012729 1.8240376165177743 5.159157377698693 3.1593258497195915 1.2075766612750242e-07 3.9714013594829094e-08 6.318651564867056" Properties=species:S:1:pos:R:3:forces:R:3 energy=-29.210826873779297 free_energy=-29.210826873779297 stress="8.661866741022095e-05 1.9787533389603595e-08 1.4166503525814278e-08 1.9787533389603595e-08 8.658783917780966e-05 -1.656391823701142e-08 1.4166503525814278e-08 -1.656391823701142e-08 8.655579586047679e-05" pbc="T T T"
Ni       1.82403908       1.28979007       3.15932646       0.00000998       0.00000278       0.00000360
Ni       5.47211261       3.86936961       9.47797784      -0.00000123       0.00000952       0.00000113
Ga      -0.00000019       0.00000044      -0.00000108       0.00000055      -0.00000492       0.00000783
Se       2.07325152       1.46600944       6.31865051       0.00201610       0.00142301      -0.00000387
Se       5.22289773       3.69314785       6.31865049      -0.00201461      -0.00141723      -0.00000298
Se       4.43548688       1.46600886       4.95481479      -0.00100945       0.00141671       0.00174372
Se       2.86066320       3.69314686       7.68249055       0.00100709      -0.00143047      -0.00174494
Se       2.86066340       3.69314666       4.95481374       0.00100315      -0.00142486       0.00173926
Se       4.43548700       1.46601021       7.68248996      -0.00101164       0.00142540      -0.00174376
