9
Lattice="4.37804657914644 2.4328987701178947e-08 2.527666397167628 1.4593488810528978 4.12766186875274 2.5276663999392417 3.6074323550804595e-09 5.945358694669323e-09 5.055332788087029" Properties=species:S:1:pos:R:3:forces:R:3 energy=-35.245479583740234 free_energy=-35.245479583740234 stress="-8.76272824825719e-05 -5.8454356910431216e-09 2.4547430754751076e-08 -5.8454356910431216e-09 -8.761344361118972e-05 -4.0228256281693575e-09 2.4547430754751076e-08 -4.0228256281693575e-09 -8.754200825933367e-05" pbc="T T T"
Ni       1.45934991       1.03191673       2.52766650       0.00001319       0.00001480       0.00000105
Ni       4.37804701       3.09574708       7.58299827       0.00000747       0.00000889      -0.00001160
Ga       0.00000016       0.00000012      -0.00000020       0.00000052       0.00000287       0.00000428
O        1.50371742       1.06328885       5.05533276      -0.00023282      -0.00016493      -0.00000050
O        4.33367832       3.06437269       5.05533330       0.00023031       0.00015748       0.00000527
O        3.62618714       1.06328821       3.82992406       0.00011081      -0.00017118      -0.00020278
O        2.21120735       3.06437272       6.28074166      -0.00011666       0.00015619       0.00020513
O        2.21120720       3.06437253       3.82992399      -0.00012307       0.00015956      -0.00020489
O        3.62618729       1.06328857       6.28074185       0.00011009      -0.00016370       0.00020474
