9
Lattice="4.964581059525872 -3.583217367772498e-07 2.866301572956249 1.6548600967187688 4.680651018729141 2.866301432014956 -1.6032842181657932e-09 -1.7375075040876362e-07 5.7326031486894635" Properties=species:S:1:pos:R:3:forces:R:3 energy=-30.514263153076172 free_energy=-30.514263153076172 stress="9.92901623249054e-05 2.2492515938665747e-07 -1.816404306964614e-07 2.2492515938665747e-07 9.941192547557876e-05 1.409262928575572e-08 -1.816404306964614e-07 1.409262928575572e-08 9.960043826140463e-05" pbc="T T T"
Ni       1.65485783       1.17016310       2.86630252      -0.00002029       0.00000679       0.00000732
Ni       4.96458103       3.51048841       8.59890400       0.00000290       0.00000183      -0.00000695
Ga       0.00000041       0.00000013      -0.00000022      -0.00000254      -0.00001412       0.00000831
S        1.81742490       1.28511609       5.73260311       0.00070977       0.00055534      -0.00000407
S        4.80201462       3.39553575       5.73260469      -0.00072053      -0.00052208       0.00002951
S        4.05586611       1.28511239       4.44023946      -0.00038138       0.00048906       0.00064969
S        2.56357157       3.39553518       7.02496717       0.00032625      -0.00053240      -0.00064279
S        2.56357509       3.39553675       4.44023816       0.00037511      -0.00051731       0.00062715
S        4.05587318       1.28511406       7.02496560      -0.00028919       0.00053300      -0.00066820
