9
Lattice="5.083731684883864 1.402964729761158e-07 2.9350937558304033 1.694577303385906 4.792988552083602 2.9350938548716408 1.0774994763502223e-09 1.2206216106443163e-07 5.870187509794535" Properties=species:S:1:pos:R:3:forces:R:3 energy=-38.96956253051758 free_energy=-38.96956253051758 stress="-0.0003153036523144692 9.390082311711012e-08 2.5896136790493074e-08 9.390082311711012e-08 -0.0003154374717269093 -6.747984571120469e-08 2.5896136790493074e-08 -6.747984571120469e-08 -0.0003154352307319641" pbc="T T T"
Ni       1.69457793       1.19824708       2.93509389       0.00000458      -0.00000001       0.00000035
Ni       5.08373244       3.59474183       8.80528074       0.00000552       0.00000108      -0.00000442
Ir      -0.00000021      -0.00000002      -0.00000069       0.00000020      -0.00000122       0.00000263
S        1.88185646       1.33067370       5.87018807      -0.00402933      -0.00284776       0.00000380
S        4.89645207       3.46231500       5.87018843       0.00402719       0.00284943       0.00000520
S        4.14280283       1.33067351       4.56482885       0.00200945      -0.00284988      -0.00348854
S        2.63550523       3.46231615       7.17554597      -0.00201324       0.00284752       0.00348508
S        2.63550519       3.46231490       4.56482951      -0.00201708       0.00284779      -0.00348732
S        4.14280401       1.33067338       7.17554571       0.00201273      -0.00284693       0.00348368
