9
Lattice="5.467851468369006 1.1155650506068492e-07 3.1568657892953693 1.822617126755304 5.1551403237274105 3.156866022332619 -1.1244804435281577e-07 2.0589841689390106e-07 6.313731773356514" Properties=species:S:1:pos:R:3:forces:R:3 energy=-35.604408264160156 free_energy=-35.604408264160156 stress="7.342695607803762e-05 -3.3489826023469504e-08 9.182285154452074e-09 -3.3489826023469504e-08 7.34299246687442e-05 2.8281585073841597e-08 9.182285154452074e-09 2.8281585073841597e-08 7.343642209889367e-05" pbc="T T T"
Ni       1.82261970       1.28878354       3.15686483       0.00001568      -0.00000944      -0.00000739
Ni       5.46785118       3.86635414       9.47059963       0.00000089      -0.00000923       0.00001088
Ir      -0.00000008       0.00000032       0.00000021      -0.00000025      -0.00000074      -0.00000066
Se       2.02709992       1.43337760       6.31373171       0.00290658       0.00205911       0.00000092
Se       5.26336727       3.72176497       6.31373067      -0.00291540      -0.00204991      -0.00000577
Se       4.45430115       1.43337777       4.91238655      -0.00145454       0.00206100       0.00251387
Se       2.83616735       3.72176299       7.71507683       0.00145250      -0.00205680      -0.00251428
Se       2.83616758       3.72176402       4.91238715       0.00145630      -0.00205214       0.00251821
Se       4.45429983       1.43337720       7.71507681      -0.00146178       0.00205808      -0.00251583
