9
Lattice="5.848684592339502 -9.856206187746011e-08 3.376739880039511 1.9495614330176918 5.5141929355004455 3.3767398884173403 -3.734142822933428e-09 7.620261706600166e-09 6.753479766546745" Properties=species:S:1:pos:R:3:forces:R:3 energy=-38.072383880615234 free_energy=-38.072383880615234 stress="-1.4423167158383876e-05 -7.882646713142094e-08 2.1118678361631282e-08 -7.882646713142094e-08 -1.432793214917183e-05 -3.137512649686869e-08 2.1118678361631282e-08 -3.137512649686869e-08 -1.4267952792579308e-05" pbc="T T T"
Ni       1.94956201       1.37854819       3.37673998       0.00000218       0.00000006       0.00000206
Ni       5.84868381       4.13564488      10.13022034      -0.00000337       0.00000229       0.00000495
Mo      -0.00000041      -0.00000029      -0.00000029       0.00000551       0.00000307      -0.00000475
Se       1.98068701       1.40055704       6.75347933      -0.00063281      -0.00044751      -0.00000013
Se       5.81755936       4.11363585       6.75347929       0.00062759       0.00044286      -0.00000023
Se       4.85834115       1.40055721       5.09206547       0.00031774      -0.00044884      -0.00055252
Se       2.93990516       4.11363569       8.41489425      -0.00031871       0.00045067       0.00055182
Se       2.93990506       4.11363568       5.09206547      -0.00031749       0.00044979      -0.00055394
Se       4.85834097       1.40055712       8.41489436       0.00031934      -0.00045250       0.00055276
