9
Lattice="5.440268761968195 1.0405192162219014e-07 3.1409404460318306 1.8134229598343252 5.129134646751646 3.1409405480891843 -1.5637399582860022e-07 1.4421037302742778e-08 6.28188116291138" Properties=species:S:1:pos:R:3:forces:R:3 energy=-40.85279083251953 free_energy=-40.85279083251953 stress="-3.612192449509166e-05 9.938353429106428e-08 -1.4752878030321881e-08 9.938353429106428e-08 -3.6111650842940435e-05 4.425235999860888e-08 -1.4752878030321881e-08 4.425235999860888e-08 -3.622328949859366e-05" pbc="T T T"
Ni       1.81342252       1.28228409       3.14094085      -0.00000121       0.00000233       0.00000197
Ni       5.44026896       3.84685001       9.42282162       0.00000300      -0.00000743       0.00000089
Mo       0.00000009      -0.00000020      -0.00000035      -0.00000110       0.00000360       0.00000024
S        1.87438810       1.32539351       6.28188112      -0.00446160      -0.00315072      -0.00000080
S        5.37930358       3.80374150       6.28188125       0.00445983       0.00315072       0.00000010
S        4.50307478       1.32539267       4.76420788       0.00222740      -0.00314921      -0.00386110
S        2.75061655       3.80374214       7.79955395      -0.00222851       0.00315030       0.00385696
S        2.75061684       3.80374275       4.76420801      -0.00222548       0.00314832      -0.00385544
S        4.50307477       1.32539257       7.79955430       0.00222761      -0.00314804       0.00385757
