9
Lattice="4.532885114354931 -6.720984898457225e-08 2.6170625116745287 1.5109616502595733 4.2736450919532825 2.617062496362084 -4.3520192646468036e-08 -4.9527236662453437e-08 5.234125098728196" Properties=species:S:1:pos:R:3:forces:R:3 energy=-43.005184173583984 free_energy=-43.005184173583984 stress="0.00015258949133567512 4.3717619746530545e-08 -1.622292877812015e-08 4.3717619746530545e-08 0.0001523815153632313 -3.9753476066550775e-09 -1.622292877812015e-08 -3.9753476066550775e-09 0.0001525925035821274" pbc="T T T"
Ni       1.51096238       1.06841160       2.61706243       0.00001338       0.00000216       0.00000062
Ni       4.53288432       3.20523255       7.85118802      -0.00001158      -0.00001555       0.00000568
Mo      -0.00000012      -0.00000008      -0.00000007       0.00000130       0.00000026       0.00000017
O        1.54327566       1.09126079       5.23412479      -0.00094831      -0.00066537       0.00000026
O        4.50057087       3.18238455       5.23412474       0.00094569       0.00067163      -0.00000413
O        3.76124721       1.09126109       3.95357835       0.00047284      -0.00066537      -0.00082326
O        2.28259977       3.18238420       6.51467164      -0.00047171       0.00066638       0.00082159
O        2.28259975       3.18238421       3.95357834      -0.00046992       0.00066733      -0.00082070
O        3.76124681       1.09126115       6.51467210       0.00046802      -0.00066149       0.00082040
