9
Lattice="2.0762275524943954 2.8301133075535656 2.3785267805851653 1.3032264599627257 5.711430392232131 2.563188110188804 0.8102607022795343 1.6912307729674851 3.3570535582178036" Properties=species:S:1:pos:R:3:forces:R:3 energy=-1012091328.0 free_energy=-1012091328.0 stress="704340992.0 30432532.0 -77035928.0 30432532.0 572468160.0 -53756756.0 -77035928.0 -53756756.0 665918528.0" pbc="T T T"
Ni       0.71683610       5.76851480       2.74107543 -1010971392.00000000 -572754944.00000000 -918095104.00000000
Ni       4.44146051      11.46547188       7.45369387 1253554816.00000000 1396668032.00000000 -457610432.00000000
N        1.01354845       5.63417185       1.66170526 -1665414912.00000000 -416026240.00000000 722026368.00000000
O        2.57227701       8.41764683       4.27177802 1805307392.00000000 -275364704.00000000 630421888.00000000
O        2.59591927      10.07456553       4.99216233 -193242128.00000000 366063488.00000000 -350979328.00000000
O        3.36436559       9.28939763       4.60859415 -898709824.00000000 66464960.00000000 -528491456.00000000
O        3.58846127      13.28762590       6.44614440 333964000.00000000 -169948560.00000000 -38469456.00000000
O        3.07770190       7.65337840       3.74693215 -218961952.00000000 212186672.00000000 303248928.00000000
O        2.84720498       9.48040250       4.15934787 594474368.00000000 -607289408.00000000 637948416.00000000
