9
Lattice="3.813093925697905 3.8601924658650184e-07 2.201491477340852 1.271031720498127 3.595017677650519 2.2014913942195626 4.782809744625036e-07 2.3639372685563214e-07 4.402982126274589" Properties=species:S:1:pos:R:3:forces:R:3 energy=-47.12439727783203 free_energy=-47.12439727783203 stress="-2.460238192725228e-06 4.943726139572391e-07 8.008664167391544e-07 4.943726139572391e-07 -7.00694772604038e-06 2.232478806263316e-07 8.008664167391544e-07 2.232478806263316e-07 -4.849718493460387e-07" pbc="T T T"
Ni       1.27103144       0.89875168       2.20149087       0.00000643       0.00005454       0.00001536
Ni       3.81309320       2.69626859       6.60447258       0.00004208      -0.00009825       0.00004208
P        0.00000064      -0.00000010       0.00000036      -0.00005803       0.00004348      -0.00006569
O        1.34392002       0.95029642       4.40298201      -0.00004637      -0.00004220      -0.00001023
O        3.74020678       2.64472228       4.40298295       0.00003159       0.00008214      -0.00003446
O        3.14113389       0.95029559       3.36535994       0.00003892      -0.00002980      -0.00004089
O        1.94299256       2.64472294       5.44060500      -0.00004101       0.00006831       0.00001502
O        1.94299250       2.64472408       3.36536087      -0.00001979       0.00001061      -0.00001216
O        3.14113426       0.95029468       5.44060414       0.00004774      -0.00008774       0.00009060
