9
Lattice="5.464461904644247 -3.3462025766753413e-09 3.154908553586798 1.821487287198854 5.151944116216482 3.154908572976061 -2.102890378157319e-09 2.2259929320174542e-08 6.309817110815904" Properties=species:S:1:pos:R:3:forces:R:3 energy=-34.033992767333984 free_energy=-34.033992767333984 stress="0.0004262494039721787 2.1178088616125024e-08 8.779093896293944e-09 2.1178088616125024e-08 0.00042626308277249336 9.225280539482128e-10 8.779093896293944e-09 9.225280539482128e-10 0.0004261494614183903" pbc="T T T"
Ni       1.82148727       1.28798600       3.15490854       0.00000121       0.00000043      -0.00000057
Ni       5.46446190       3.86395809       9.46472571      -0.00000026      -0.00000068       0.00000052
P       -0.00000013       0.00000000       0.00000000       0.00000096       0.00000028      -0.00000212
S        1.76584881       1.24864365       6.30981709       0.00133216       0.00094193       0.00000029
S        5.52010050       3.90330056       6.30981707      -0.00133264      -0.00094283      -0.00000122
S        4.58153752       1.24864373       4.68417848      -0.00066727       0.00094491       0.00115651
S        2.70441174       3.90330040       7.93545573       0.00066721      -0.00094283      -0.00115335
S        2.70441172       3.90330040       4.68417855       0.00066596      -0.00094378       0.00115389
S        4.58153742       1.24864373       7.93545575      -0.00066787       0.00094235      -0.00115430
