9
Lattice="5.59597035659751 -4.8879904037654037e-08 3.230834998520252 1.8653233887439493 5.275931426702128 3.230835028607366 3.698719130424199e-08 6.300290748746825e-08 6.461669932976844" Properties=species:S:1:pos:R:3:forces:R:3 energy=-32.00056838989258 free_energy=-32.00056838989258 stress="0.00011747628741431981 -4.845829071342678e-09 5.885219866996749e-09 -4.845829071342678e-09 0.00011740475019905716 1.1079900552601885e-08 5.885219866996749e-09 1.1079900552601885e-08 0.00011739895126083866" pbc="T T T"
Ni       1.86532371       1.31898315       3.23083528       0.00000080       0.00000121       0.00000159
Ni       5.59597057       3.95694871       9.69250494       0.00000130       0.00000059       0.00000003
P        0.00000010      -0.00000014       0.00000019       0.00000115       0.00000220      -0.00000614
Se       1.88108594       1.33012867       6.46166994       0.00110686       0.00078218       0.00000150
Se       5.58020759       3.94580271       6.46166992      -0.00110842      -0.00078408       0.00000011
Se       4.65542712       1.33012849       4.85990290      -0.00055814       0.00078398       0.00095855
Se       2.80586641       3.94580277       8.06343669       0.00055158      -0.00078249      -0.00095823
Se       2.80586623       3.94580281       4.85990308       0.00055543      -0.00078499       0.00096187
Se       4.65542745       1.33012858       8.06343686      -0.00055044       0.00078148      -0.00095947
