9
Lattice="5.066190293521875 -2.971147350424858e-07 2.9249664819775822 1.6887298770653576 4.776449510268359 2.9249663791853435 -3.5722761190410087e-09 -1.2842028208095814e-07 5.849932970142572" Properties=species:S:1:pos:R:3:forces:R:3 energy=-37.41223907470703 free_energy=-37.41223907470703 stress="9.404942829860374e-05 -8.615808155809646e-08 -2.6817433607106977e-08 -8.615808155809646e-08 9.419470006832853e-05 3.625902422754734e-08 -2.6817433607106977e-08 3.625902422754734e-08 9.42656843108125e-05" pbc="T T T"
Ni       1.68873020       1.19411117       2.92496644       0.00000128      -0.00000752      -0.00000111
Ni       5.06618989       3.58233590       8.77489782      -0.00000263      -0.00000920      -0.00001433
Rh      -0.00000006      -0.00000008       0.00000000       0.00000264      -0.00000237       0.00000368
S        1.86945618       1.32190553       5.84993288       0.00210857       0.00149480      -0.00000125
S        4.88546354       3.45454424       5.84993364      -0.00210905      -0.00148928       0.00000803
S        4.13146164       1.32190573       4.54396375      -0.00105318       0.00148904       0.00182295
S        2.62345861       3.45454437       7.15590227       0.00105593      -0.00148523      -0.00181842
S        2.62345834       3.45454358       4.54396374       0.00104791      -0.00148654       0.00182015
S        4.13146226       1.32190579       7.15590281      -0.00105143       0.00149649      -0.00181997
