9
Lattice="5.020377922999629 1.374580015901489e-07 2.898516711755372 1.6734593999584295 4.733258054625137 2.8985167763689987 8.12089123482278e-08 1.36558614672864e-07 5.7970332828527935" Properties=species:S:1:pos:R:3:forces:R:3 energy=-39.54427719116211 free_energy=-39.54427719116211 stress="-5.4421449021901935e-05 -5.3340727390605025e-08 -2.863682091458486e-08 -5.3340727390605025e-08 -5.454847632790916e-05 -6.748113179355641e-08 -2.863682091458486e-08 -6.748113179355641e-08 -5.4529966291738674e-05" pbc="T T T"
Ni       1.67346109       1.18331544       2.89851602       0.00001591       0.00000545      -0.00000627
Ni       5.02037793       3.54994476       8.69554746      -0.00000123       0.00000922      -0.00002822
Ru      -0.00000015      -0.00000021      -0.00000038      -0.00000151      -0.00000064       0.00000691
S        1.82980273       1.29386491       5.79703314      -0.00077838      -0.00055781       0.00000073
S        4.86403435       3.43939273       5.79703542       0.00077730       0.00055316       0.00001357
S        4.10547539       1.29386525       4.48317172       0.00037935      -0.00055641      -0.00067419
S        2.58836147       3.43939251       7.11089563      -0.00038409       0.00054932       0.00068095
S        2.58836063       3.43939211       4.48317230      -0.00039265       0.00054803      -0.00067398
S        4.10547626       1.29386587       7.11089570       0.00038549      -0.00054970       0.00068048
