9
Lattice="5.656468626314962 3.986014120705858e-08 3.2657639137865053 1.8854895755266692 5.33296982492482 3.265763920989784 -1.3938327563111833e-08 -1.0337619448932096e-09 6.531527851714993" Properties=species:S:1:pos:R:3:forces:R:3 energy=-35.95036697387695 free_energy=-35.95036697387695 stress="-0.0003067083016503602 3.7523246732007465e-09 -5.125486701729187e-09 3.7523246732007465e-09 -0.00030667538521811366 -3.3575600077995205e-09 -5.125486701729187e-09 -3.3575600077995205e-09 -0.0003067663637921214" pbc="T T T"
Ni       1.88548947       1.33324263       3.26576448      -0.00000060       0.00000111       0.00000386
Ni       5.65646857       3.99972735       9.79729181      -0.00000141      -0.00000008       0.00000069
Ru      -0.00000020       0.00000010       0.00000001       0.00000027       0.00000042       0.00000132
Se       1.97503921       1.39656371       6.53152766      -0.00008828      -0.00006227      -0.00000143
Se       5.56691891       3.93640640       6.53152818       0.00008674       0.00006131       0.00000050
Se       4.66894873       1.39656388       4.97619787       0.00004320      -0.00005984      -0.00007720
Se       2.87300927       3.93640624       8.08685738      -0.00004209       0.00006036       0.00007603
Se       2.87300917       3.93640598       4.97619814      -0.00004293       0.00006153      -0.00007683
Se       4.66894960       1.39656315       8.08685723       0.00004517      -0.00006238       0.00007308
