9
Lattice="5.399073991431542 -5.520459123888561e-08 3.117156550187016 1.7996912891527874 5.0902952347981385 3.117156531614094 -2.183165907405035e-08 -3.818431190464157e-08 6.234313138187571" Properties=species:S:1:pos:R:3:forces:R:3 energy=-34.552879333496094 free_energy=-34.552879333496094 stress="-0.0003387455362826586 5.328580243713077e-09 -4.960440058709992e-09 5.328580243713077e-09 -0.00033869376056827605 1.1324130966272605e-08 -4.960440058709992e-09 1.1324130966272605e-08 -0.00033869597245939076" pbc="T T T"
Ni       1.79969102       1.27257456       3.11715770      -0.00000224       0.00000551       0.00000756
Ni       5.39907343       3.81772102       9.35147142      -0.00000217      -0.00000131       0.00001190
Rh      -0.00000038      -0.00000016       0.00000041       0.00000212       0.00000089      -0.00000344
Se       2.02047181       1.42869020       6.23431309       0.00413987       0.00293057      -0.00000180
Se       5.17829393       3.66160497       6.23431253      -0.00414030      -0.00293303      -0.00000274
Se       4.38883779       1.42868976       4.86693680      -0.00207087       0.00292887       0.00358486
Se       2.80992779       3.66160613       7.60168843       0.00207211      -0.00292686      -0.00359009
Se       2.80992827       3.66160515       4.86693551       0.00207409      -0.00293255       0.00358257
Se       4.38883732       1.42868901       7.60168894      -0.00207265       0.00292781      -0.00358878
