9
Lattice="6.387509960296794 3.059347048356827e-08 3.6878304826578154 2.1291700028386256 6.0222019984499635 3.68783050477749 7.588720206698561e-09 3.245697549064796e-08 7.3756609521715415" Properties=species:S:1:pos:R:3:forces:R:3 energy=-27.591623306274414 free_energy=-27.591623306274414 stress="-6.718115037074313e-05 -1.715169695160057e-08 -6.553482645443864e-09 -1.715169695160057e-08 -6.71759044053033e-05 8.771083415126668e-09 -6.553482645443864e-09 8.771083415126668e-09 -6.716220377711579e-05" pbc="T T T"
Ni       2.12917005       1.50555041       3.68783043      -0.00000009       0.00000009      -0.00000072
Ni       6.38751004       4.51665150      11.06349145      -0.00000056      -0.00000013       0.00000025
Sb      -0.00000009       0.00000003      -0.00000039       0.00000062      -0.00000056       0.00000131
Te       2.35776167       1.66718935       7.37566091      -0.00065285      -0.00046184      -0.00000066
Te       6.15891838       4.35501279       7.37566096       0.00065252       0.00046112      -0.00000077
Te       5.20862918       1.66718922       5.72971203       0.00032713      -0.00046206      -0.00056604
Te       3.30805096       4.35501263       9.02161017      -0.00032737       0.00046251       0.00056692
Te       3.30805077       4.35501286       5.72971204      -0.00032621       0.00046242      -0.00056607
Te       5.20862892       1.66718946       9.02161015       0.00032671      -0.00046160       0.00056576
