9
Lattice="4.653109341688999 -2.9562481454455518e-08 2.686474070198433 1.5510363973536763 4.386993541044736 2.686474108310828 -4.9640049306121564e-08 1.1577133292416436e-08 5.372948226375945" Properties=species:S:1:pos:R:3:forces:R:3 energy=-38.40862274169922 free_energy=-38.40862274169922 stress="-0.0002642371691763401 5.1743910489676637e-08 5.995238439027162e-08 5.1743910489676637e-08 -0.0002640279126353562 -4.590713587049322e-08 5.995238439027162e-08 -4.590713587049322e-08 -0.00026430762954987586" pbc="T T T"
Ni       1.55103635       1.09674793       2.68647409      -0.00000019      -0.00000681       0.00000241
Ni       4.65310792       3.29024515       8.05942246      -0.00001504       0.00000094       0.00000220
Sb      -0.00000005       0.00000022       0.00000017      -0.00000389      -0.00000687      -0.00000328
O        1.59748727       1.12959345       5.37294825       0.00164485       0.00115824       0.00000200
O        4.60665846       3.25740015       5.37294807      -0.00163722      -0.00115371      -0.00000095
O        3.85436564       1.12959437       4.06993783      -0.00082099       0.00116611       0.00141811
O        2.34978033       3.25739954       6.67595858       0.00082511      -0.00116193      -0.00141716
O        2.34978004       3.25739970       4.06993882       0.00082171      -0.00115407       0.00141764
O        3.85436673       1.12959389       6.67595735      -0.00081420       0.00115770      -0.00142050
