9
Lattice="5.570581578043618 6.499476125064708e-08 3.2161766115062207 1.8568606509388461 5.251994412283106 3.2161765012669177 1.1119262250585021e-07 -5.6389935612774465e-08 6.4323530304211465" Properties=species:S:1:pos:R:3:forces:R:3 energy=-30.513389587402344 free_energy=-30.513389587402344 stress="-2.319415216334164e-05 5.9181250122719575e-08 3.42173791523237e-08 5.9181250122719575e-08 -2.321548163308762e-05 -1.8944001922704956e-08 3.42173791523237e-08 -1.8944001922704956e-08 -2.3277549189515412e-05" pbc="T T T"
Ni       1.85686060       1.31299888       3.21617651       0.00000056       0.00000231      -0.00000084
Ni       5.57058129       3.93899502       9.64852995      -0.00000201      -0.00000344       0.00000269
Sb       0.00000039       0.00000003      -0.00000021      -0.00000733       0.00000007       0.00000583
S        1.98970796       1.40693547       6.43235304      -0.00228104      -0.00161371      -0.00000067
S        5.43773425       3.84505886       6.43235259       0.00228673       0.00161803      -0.00000341
S        4.57572808       1.40693584       4.93931354       0.00114204      -0.00161293      -0.00197840
S        2.85171408       3.84505859       7.92539294      -0.00114037       0.00160775       0.00197396
S        2.85171462       3.84505859       4.93931362      -0.00114082       0.00161290      -0.00197718
S        4.57572815       1.40693625       7.92539262       0.00114231      -0.00161108       0.00197813
