9
Lattice="5.320244747266794 -9.212732208345803e-08 3.071644732879023 1.773414865251146 5.015974768974028 3.0716446699120974 -9.310147080570058e-09 -8.370171427461554e-08 6.143289481883765" Properties=species:S:1:pos:R:3:forces:R:3 energy=-43.415828704833984 free_energy=-43.415828704833984 stress="0.00011293663555989042 5.0469147083731514e-08 -2.2703522617462113e-08 5.0469147083731514e-08 0.00011288587847957388 5.4719308195672056e-08 -2.2703522617462113e-08 5.4719308195672056e-08 0.00011286205699434504" pbc="T T T"
Ni       1.77341452       1.25399335       3.07164472      -0.00000112      -0.00000087      -0.00000016
Ni       5.32024463       3.76198109       9.21493513      -0.00000070      -0.00000066       0.00000507
Ta       0.00000008       0.00000003      -0.00000031       0.00000120      -0.00000008       0.00000770
S        1.91455515       1.35379494       6.14328951       0.00001520       0.00001264       0.00000038
S        5.17910450       3.66217978       6.14328895      -0.00001548      -0.00000944      -0.00000181
S        4.36296745       1.35379490       4.72969796      -0.00000528       0.00000933       0.00001176
S        2.73069233       3.66217988       7.55688085       0.00000971      -0.00001411      -0.00001705
S        2.73069258       3.66218003       4.72969783       0.00000879      -0.00001138       0.00001359
S        4.36296719       1.35379431       7.55688086      -0.00001246       0.00001452      -0.00001940
