9
Lattice="6.277950699053328 -6.374001771934809e-08 3.624576595723778 2.0926501825045687 5.918908763591761 3.6245765791281874 3.48699327933256e-08 4.331395443434433e-09 7.249153131051075" Properties=species:S:1:pos:R:3:forces:R:3 energy=-36.910125732421875 free_energy=-36.910125732421875 stress="-0.00012662702647503465 -1.901459611985956e-08 -2.0821862012354586e-09 -1.901459611985956e-08 -0.000126597034977749 1.154311402018493e-08 -2.0821862012354586e-09 1.154311402018493e-08 -0.0001266131002921611" pbc="T T T"
Ni       2.09265026       1.47972725       3.62457652       0.00000022       0.00000035      -0.00000035
Ni       6.27795054       4.43918159      10.87372997      -0.00000044       0.00000094      -0.00000042
Ta      -0.00000021      -0.00000016       0.00000018       0.00000147       0.00000055       0.00000151
Te       2.21773995       1.56817892       7.24915316      -0.00410278      -0.00290184       0.00000020
Te       6.15286131       4.35072986       7.24915304       0.00410126       0.00290009       0.00000035
Te       5.16908053       1.56817908       5.54519585       0.00205260      -0.00290336      -0.00355469
Te       3.20152036       4.35072953       8.95311035      -0.00205155       0.00290122       0.00355448
Te       3.20152035       4.35072965       5.54519586      -0.00205229       0.00290274      -0.00355437
Te       5.16908058       1.56817907       8.95311029       0.00205153      -0.00290076       0.00355322
