9
Lattice="5.715702397719871 -2.5193992385684456e-08 3.299962280147451 1.9052341227480323 5.388815602845698 3.2999622560236372 1.753074497487573e-09 -2.8305886449346673e-08 6.5999245572584755" Properties=species:S:1:pos:R:3:forces:R:3 energy=-39.45934295654297 free_energy=-39.45934295654297 stress="-0.00037346596946008503 -5.0002624263356665e-09 -5.357710719522402e-09 -5.0002624263356665e-09 -0.0003734186466317624 -1.305563124276432e-08 -5.357710719522402e-09 -1.305563124276432e-08 -0.00037344213342294097" pbc="T T T"
Ni       1.90523426       1.34720349       3.29996261       0.00000046      -0.00000174       0.00000176
Ni       5.71570253       4.04161145       9.89988645      -0.00000012      -0.00000048      -0.00000296
Ta       0.00000005       0.00000019      -0.00000090      -0.00000238      -0.00000273       0.00001058
Se       2.02988090       1.43534266       6.59992452       0.00334148       0.00236327       0.00000052
Se       5.59105487       3.95347320       6.59992513      -0.00333939      -0.00235940       0.00000281
Se       4.70076202       1.43534286       5.05789097      -0.00166877       0.00235943       0.00288980
Se       2.92017452       3.95347329       8.14195836       0.00167214      -0.00236352      -0.00289566
Se       2.92017451       3.95347250       5.05789113       0.00166790      -0.00235924       0.00288944
Se       4.70076240       1.43534253       8.14195811      -0.00167131       0.00236440      -0.00289626
