9
Lattice="4.585785072885107 -1.03789749059243e-07 2.6476041324670545 1.5285949947310673 4.3235192964444495 2.6476040141854655 5.461170465076379e-08 -1.0624846336887794e-07 5.295208170343865" Properties=species:S:1:pos:R:3:forces:R:3 energy=-50.546756744384766 free_energy=-50.546756744384766 stress="7.092890155036002e-05 1.591327389860453e-07 1.089515588859058e-08 1.591327389860453e-07 7.072916923789307e-05 7.406342206195404e-08 1.089515588859058e-08 7.406342206195404e-08 7.074776658555493e-05" pbc="T T T"
Ni       1.52859479       1.08088100       2.64760352      -0.00000478       0.00001831      -0.00000544
Ni       4.58578405       3.24263798       7.94280953      -0.00001358      -0.00001946      -0.00003620
Ta      -0.00000000      -0.00000004      -0.00000017      -0.00000141      -0.00000020       0.00000015
O        1.58197489       1.11862505       5.29520837      -0.00051671      -0.00036472       0.00000611
O        4.53240551       3.20489356       5.29520978       0.00052404       0.00036299       0.00001618
O        3.79479812       1.11862536       4.01763444       0.00025988      -0.00035781      -0.00044405
O        2.31958328       3.20489388       6.57278284      -0.00024873       0.00035495       0.00045455
O        2.31958185       3.20489384       4.01763438      -0.00025979       0.00036043      -0.00044286
O        3.79479819       1.11862564       6.57278251       0.00026113      -0.00035489       0.00045198
