9
Lattice="4.332869567398039 -2.9744805822829447e-08 2.501583440725753 1.4442898239781174 4.085068685288927 2.501583447268652 3.359024092668111e-08 3.1765310874746085e-08 5.003166823271471" Properties=species:S:1:pos:R:3:forces:R:3 energy=-56.10365295410156 free_energy=-56.10365295410156 stress="-6.226205005077645e-05 1.6509767775119144e-08 -3.1097866326490475e-07 1.6509767775119144e-08 -6.198210030561313e-05 -1.0781048587205078e-07 -3.1097866326490475e-07 -1.0781048587205078e-07 -6.160073826322332e-05" pbc="T T T"
Os       1.44429603       1.02127185       2.50158003       0.00018777       0.00013855      -0.00011492
Os       4.33286196       3.06379940       7.50476585      -0.00023179      -0.00006801       0.00047644
As       0.00000003      -0.00000001      -0.00000021       0.00000630      -0.00000552      -0.00000754
N        1.49546575       1.05745225       5.00316733      -0.00264049      -0.00191694       0.00002883
N        4.28169377       3.02761612       5.00315947       0.00265664       0.00188982      -0.00021694
N        3.58513832       1.05745711       3.79669172       0.00135484      -0.00176775      -0.00240386
N        2.19202064       3.02761223       6.20964061      -0.00138530       0.00180882       0.00234818
N        2.19202708       3.02761317       3.79668971      -0.00118849       0.00184017      -0.00244254
N        3.58513416       1.05745271       6.20964055       0.00124004      -0.00191885       0.00233203
