9
Lattice="2.447466592269746 -1.693419681133607 3.4228580823066985 1.414763480615354 1.4060228826981604 1.872402264797857 1.261341727326978 -1.0716029894974537 4.221557105980797" Properties=species:S:1:pos:R:3:forces:R:3 energy=-51409313792.0 free_energy=-51409313792.0 stress="0.0 -812946176.0 294194816.0 -812946176.0 0.0 1592953600.0 294194816.0 1592953600.0 0.0" pbc="T T T"
P        3.76928534      -2.19295732       5.39596898 20448155648.00000000 45027196928.00000000 17218158592.00000000
P        4.12737159      -2.77411119       8.16688191 -5627780096.00000000 8498851840.00000000 -22068064256.00000000
B        0.84622757      -2.05929902       4.17467252 4570496000.00000000 -12168607744.00000000 8875760640.00000000
O        1.19064217      -0.08017234       4.57574593 -3874911232.00000000 -13643773952.00000000 7256787968.00000000
O        2.52228517      -1.74971863       5.49402176 3976816640.00000000 -8170820608.00000000 15934568448.00000000
O        3.03035790      -0.79718158       6.18823157 -12765888512.00000000 -3956101632.00000000 11862087680.00000000
O        3.59735589      -2.91042631       7.55282572 9321048064.00000000 12463053824.00000000 4535243264.00000000
O        1.23331336       0.13856643       2.70109806 2102825984.00000000 -88730083328.00000000 -46342762496.00000000
O        5.14146568      -0.60415844       7.78950150 -18150817792.00000000 60680282112.00000000 2728278528.00000000
