9
Lattice="4.926693260126761 2.1982830414396623e-08 2.8444275231719383 1.642231104357047 4.644930593667243 2.844427528502279 3.9602836873598595e-08 3.453175092602825e-08 5.688854977749745" Properties=species:S:1:pos:R:3:forces:R:3 energy=-35.148216247558594 free_energy=-35.148216247558594 stress="7.909783744253218e-05 4.2820751389172074e-08 -1.7282321351785868e-08 4.2820751389172074e-08 7.926404941827059e-05 -1.8236162802054423e-08 -1.7282321351785868e-08 -1.8236162802054423e-08 7.917690527392551e-05" pbc="T T T"
P        1.64223108       1.16123282       2.84442734      -0.00000038      -0.00000079       0.00000056
P        4.92669312       3.48369804       8.53328248       0.00000011       0.00000034       0.00000045
B       -0.00000008       0.00000018       0.00000016      -0.00000157      -0.00000097      -0.00000103
S        1.61563544       1.14242685       5.68885504      -0.00149304      -0.00105177      -0.00000157
S        4.95328959       3.50250342       5.68885519       0.00148953       0.00105539      -0.00000245
S        4.11887547       1.14242680       4.24360911       0.00074547      -0.00105475      -0.00129573
S        2.45004914       3.50250363       7.13410120      -0.00074638       0.00105850       0.00128944
S        2.45004865       3.50250394       4.24360864      -0.00074267       0.00105411      -0.00128768
S        4.11887523       1.14242697       7.13410089       0.00074924      -0.00105959       0.00129737
