9
Lattice="3.2127370685095302 -2.302819952065814 2.3481382925312575 2.0384649703664426 1.5793529456837285 0.9661942763647806 1.047320330191806 -2.2829347571760916 2.9175918595304413" Properties=species:S:1:pos:R:3:forces:R:3 energy=-26522263552.0 free_energy=-26522263552.0 stress="0.0 527707328.0 -2473829120.0 527707328.0 0.0 4036823552.0 -2473829120.0 4036823552.0 0.0" pbc="T T T"
P        4.62050151      -2.03530459       2.38872781 -1185264896.00000000 1229694720.00000000 -2059154048.00000000
P        7.52575871      -5.25310773       6.13609098 943469568.00000000 19640379392.00000000 4833824768.00000000
C       -0.15861381      -2.74995877      -1.10856786 -3882458112.00000000 -18071246848.00000000 8782926848.00000000
O        2.23744390      -0.35788622       1.70358973 46898495488.00000000 -16255404032.00000000 -37807353856.00000000
O        5.74379447      -2.67676677       3.76934053 -29816893440.00000000 10195599360.00000000 82876653568.00000000
O        3.50808928      -4.24626278       3.07350212 7632988672.00000000 20818425856.00000000 -35500339200.00000000
O        4.84469555      -2.91737453       4.63516165 -15172093952.00000000 14452592640.00000000 -11613275136.00000000
O        5.54004329      -0.07855748       0.96199439 20307675136.00000000 -2064131072.00000000 -17315127296.00000000
O        5.96222650      -6.04056158       5.66504003 -25725913088.00000000 -29945919488.00000000 7801826304.00000000
