9
Lattice="4.769401670858639 2.6050928403766133e-08 2.7536153568214634 1.5898005527525005 4.496635365586879 2.7536154066377416 -1.4526755420717594e-10 6.090951245031968e-08 5.507230713894547" Properties=species:S:1:pos:R:3:forces:R:3 energy=-33.4343376159668 free_energy=-33.4343376159668 stress="-1.9050337868975475e-05 -5.055305507539742e-09 -1.5071046632897378e-08 -5.055305507539742e-09 -1.905640965560451e-05 2.2155818513169834e-08 -1.5071046632897378e-08 2.2155818513169834e-08 -1.895278546726331e-05" pbc="T T T"
P        1.58980055       1.12415886       2.75361540      -0.00000176       0.00000136      -0.00000235
P        4.76940150       3.37247681       8.26084579      -0.00000228      -0.00000044      -0.00000264
C       -0.00000386       0.00000260      -0.00000585      -0.00008607       0.00005862      -0.00012887
S        1.61625996       1.14286714       5.50723125       0.00001745       0.00000050       0.00001281
S        4.74294434       3.35376821       5.50723130       0.00000529      -0.00000916       0.00001432
S        3.96127277       1.14286719       4.15333750       0.00000744       0.00000393       0.00002036
S        2.39793021       3.35376758       6.86112576       0.00001246      -0.00000939       0.00001168
S        2.39793064       3.35376697       4.15333852       0.00002569      -0.00002870       0.00004210
S        3.96127281       1.14286647       6.86112619       0.00002180      -0.00001682       0.00003286
