9
Lattice="5.934540194216186 -1.3047354934493511e-08 3.4263083139360204 1.9781801000445112 5.59513779767911 3.4263082314783455 9.574506340327724e-08 -3.328757699279114e-08 6.852616462036744" Properties=species:S:1:pos:R:3:forces:R:3 energy=-34.05470275878906 free_energy=-34.05470275878906 stress="-4.86561912111938e-05 -7.458858419795433e-09 -2.4400915066280504e-08 -7.458858419795433e-09 -4.869695476372726e-05 -8.114399818737184e-09 -2.4400915066280504e-08 -8.114399818737184e-09 -4.86790704599116e-05" pbc="T T T"
Pb       1.97818002       1.39878468       3.42630875      -0.00000137      -0.00000005      -0.00000085
Pb       5.93454044       4.19635397      10.27892422       0.00000000      -0.00000095      -0.00000045
As      -0.00000006       0.00000011       0.00000044      -0.00000033      -0.00000018      -0.00000485
Se       2.07948361       1.47041655       6.85261633       0.00292921       0.00207144      -0.00000009
Se       5.83323704       4.12472067       6.85261684      -0.00292873      -0.00207001       0.00000062
Se       4.89479840       1.47041642       5.22719362      -0.00146544       0.00207116       0.00253652
Se       3.01792180       4.12472102       8.47803923       0.00146399      -0.00206925      -0.00253436
Se       3.01792152       4.12472099       5.22719343       0.00146537      -0.00207172       0.00253767
Se       4.89479879       1.47041662       8.47803920      -0.00146273       0.00206949      -0.00253426
