9
Lattice="5.720771465318614 -1.1638190743096403e-07 3.302888928162546 1.9069237322163595 5.393594996720769 3.302888893228029 2.492436984995463e-09 -4.102340531864103e-08 6.605777852007991" Properties=species:S:1:pos:R:3:forces:R:3 energy=-36.29493713378906 free_energy=-36.29493713378906 stress="-8.946785965235904e-05 -1.593654630482888e-08 1.242420122338217e-08 -1.593654630482888e-08 -8.942624117480591e-05 8.49997938701108e-09 1.242420122338217e-08 8.49997938701108e-09 -8.94509648787789e-05" pbc="T T T"
Pb       1.90692382       1.34839935       3.30288886      -0.00000059       0.00000201      -0.00000016
Pb       5.72077222       4.04519656       9.90866702       0.00000075      -0.00000036       0.00000051
As      -0.00000029      -0.00000016       0.00000007       0.00000725       0.00000144      -0.00000139
S        1.93964443       1.37153578       6.60577802       0.00009727       0.00006920      -0.00000040
S        5.68805155       4.02205906       6.60577790      -0.00010180      -0.00007421      -0.00000009
S        4.75094917       1.37153525       4.98266969      -0.00005007       0.00007254       0.00008649
S        2.87674535       4.02205879       8.22888566       0.00004819      -0.00007135      -0.00008571
S        2.87674543       4.02205933       4.98266966       0.00004831      -0.00007063       0.00008672
S        4.75094911       1.37153522       8.22888555      -0.00004920       0.00007105      -0.00008661
