9
Lattice="4.8425274627655615 -9.512632773893751e-08 2.7958357231247217 1.6141755372587707 4.565579967854468 2.7958360591030087 -2.904648120099018e-07 2.0609785665859353e-07 5.5916719493492675" Properties=species:S:1:pos:R:3:forces:R:3 energy=-47.48926544189453 free_energy=-47.48926544189453 stress="-0.00022881082259118557 -8.134215789823429e-08 2.4683528554447776e-09 -8.134215789823429e-08 -0.00022878494928590953 -3.491992472959282e-08 2.4683528554447776e-09 -3.491992472959282e-08 -0.00022849759261589497" pbc="T T T"
Pb       1.61417531       1.14139459       2.79583481      -0.00000013      -0.00000289      -0.00000062
Pb       4.84252681       3.42418560       8.38750809       0.00000001       0.00000047       0.00000022
As       0.00000023      -0.00000072       0.00000133      -0.00000024       0.00000830      -0.00002933
O        1.51118552       1.06857016       5.59167207       0.00330353       0.00233400       0.00000055
O        4.94551696       3.49701055       5.59167216      -0.00330496      -0.00233781      -0.00000287
O        4.08693433       1.06856935       4.10456194      -0.00165212       0.00233769       0.00286090
O        2.36976923       3.49700941       7.07878110       0.00164330      -0.00232518      -0.00284684
O        2.36976867       3.49701064       4.10456345       0.00165528      -0.00233555       0.00286329
O        4.08693322       1.06857105       7.07878120      -0.00164378       0.00232136      -0.00284672
