9
Lattice="4.774230008426596 7.561163968791061e-08 2.7564029479279792 1.5914100649913365 4.501187579733553 2.756402963698037 -2.553393369905718e-08 1.2591331185602878e-09 5.512805940081994" Properties=species:S:1:pos:R:3:forces:R:3 energy=-45.72590255737305 free_energy=-45.72590255737305 stress="2.306945862073917e-05 -3.221962252553112e-09 2.725373260403785e-09 -3.221962252553112e-09 2.310304444108624e-05 2.4734005066306963e-08 2.725373260403785e-09 2.4734005066306963e-08 2.333406519028358e-05" pbc="T T T"
Pb       1.59140997       1.12529676       2.75640297      -0.00000082       0.00000168      -0.00000040
Pb       4.77422942       3.37589072       8.26920866       0.00000038      -0.00000128      -0.00000042
As       0.00000033      -0.00000007      -0.00000022      -0.00000726       0.00000069      -0.00000076
N        1.58800844       1.12289132       5.51280627      -0.00031936      -0.00022745       0.00000139
N        4.77763184       3.37829577       5.51280604       0.00032449       0.00022697      -0.00000019
N        3.98022580       1.12289170       4.13165878       0.00016111      -0.00022733      -0.00028026
N        2.38541418       3.37829638       6.89395362      -0.00016057       0.00022817       0.00027835
N        2.38541427       3.37829590       4.13165794      -0.00016028       0.00022626      -0.00027907
N        3.98022577       1.12289215       6.89395308       0.00016207      -0.00022769       0.00028002
