9
Lattice="6.181631990253708 1.4398999245559788e-07 3.5689667758210404 2.060544215924856 5.82809834714498 3.5689666313357296 6.253137938124928e-08 -1.3274124545636028e-07 7.137933443334576" Properties=species:S:1:pos:R:3:forces:R:3 energy=-32.517127990722656 free_energy=-32.517127990722656 stress="2.7397622034186497e-05 3.7837853739119964e-08 1.3715658608859371e-09 3.7837853739119964e-08 2.741503885772545e-05 -2.161926460075847e-08 1.3715658608859371e-09 -2.161926460075847e-08 2.7383477572584525e-05" pbc="T T T"
Pb       2.06054408       1.45702405       3.56896640      -0.00000013      -0.00000189      -0.00000222
Pb       6.18163169       4.37107321      10.70690051      -0.00000308      -0.00000236       0.00000110
Bi      -0.00000033       0.00000006      -0.00000181       0.00000436       0.00000136       0.00001419
Se       2.29804454       1.62496276       7.13793402       0.00082193       0.00058155       0.00000000
Se       5.94413165       4.20313591       7.13793356      -0.00082406      -0.00058192      -0.00000176
Se       5.03261063       1.62496259       5.55913099      -0.00041173       0.00058378       0.00071213
Se       3.20956661       4.20313577       8.71673624       0.00041389      -0.00058400      -0.00071799
Se       3.20956635       4.20313606       5.55913129       0.00041170      -0.00058123       0.00071096
Se       5.03260984       1.62496304       8.71673617      -0.00041277       0.00058470      -0.00071641
