9
Lattice="6.660255630660085 -1.0393685407927425e-07 3.8453004044713253 2.220085165845995 6.279349229107559 3.8453003116013 -7.817429362023755e-09 -1.1926992562657116e-07 7.690600822482881" Properties=species:S:1:pos:R:3:forces:R:3 energy=-29.62082862854004 free_energy=-29.62082862854004 stress="-1.3231084267317783e-05 -4.17256762474949e-09 -3.3503477769869505e-09 -4.17256762474949e-09 -1.3233019672043156e-05 -4.371651485257644e-09 -3.3503477769869505e-09 -4.371651485257644e-09 -1.3230725016910583e-05" pbc="T T T"
Pb       2.22008516       1.56983700       3.84530050      -0.00000136      -0.00000086       0.00000057
Pb       6.66025513       4.70951182      11.53590123      -0.00000116      -0.00000020      -0.00000102
Bi       0.00000027       0.00000027       0.00000014       0.00000023      -0.00000289       0.00000031
Te       2.47736785       1.75176336       7.69060084      -0.00152880      -0.00108112      -0.00000040
Te       6.40297222       4.52758509       7.69060084       0.00153062       0.00108328       0.00000018
Te       5.42157189       1.75176361       5.99076421       0.00076449      -0.00108123      -0.00132449
Te       3.45876979       4.52758529       9.39043710      -0.00076412       0.00108294       0.00132504
Te       3.45876936       4.52758568       5.99076393      -0.00076517       0.00108221      -0.00132476
Te       5.42157150       1.75176388       9.39043735       0.00076540      -0.00108211       0.00132455
