9
Lattice="5.536773749025852 -7.301473071411267e-08 3.1966572551391366 1.8455911543680454 5.220120770612713 3.1966573009835617 3.2700634443165876e-08 7.927050136957486e-08 6.393314453639066" Properties=species:S:1:pos:R:3:forces:R:3 energy=-37.80829620361328 free_energy=-37.80829620361328 stress="-5.239011807134375e-05 4.761366856342875e-09 4.798404382166943e-11 4.761366856342875e-09 -5.2322651754366234e-05 1.6393864044061957e-08 4.798404382166943e-11 1.6393864044061957e-08 -5.240703831077553e-05" pbc="T T T"
Pb       1.84559106       1.30503024       3.19665724      -0.00000060      -0.00000069       0.00000054
Pb       5.53677356       3.91509054       9.58997150      -0.00000049      -0.00000015       0.00000017
B       -0.00000044       0.00000041      -0.00000021       0.00000213      -0.00000322       0.00000227
S        1.66535053       1.17758042       6.39331449       0.00087255       0.00062022       0.00000047
S        5.71701494       4.04253927       6.39331492      -0.00087166      -0.00061187      -0.00000053
S        4.70409834       1.17758100       4.63889397      -0.00043353       0.00061235       0.00074720
S        2.67826649       4.04253992       8.14773570       0.00043333      -0.00061473      -0.00075531
S        2.67826642       4.04254020       4.63889266       0.00043514      -0.00061595       0.00075686
S        4.70409880       1.17758106       8.14773575      -0.00043717       0.00061411      -0.00075167
