9
Lattice="5.706657570792145 1.5899150047453593e-07 3.2947401362825532 1.902219222681822 5.380288699780101 3.294740339765406 2.704534094474487e-08 2.6833849695741233e-07 6.589480225721204" Properties=species:S:1:pos:R:3:forces:R:3 energy=-35.1466064453125 free_energy=-35.1466064453125 stress="1.126482766267145e-05 -1.0945837125575508e-08 8.539169371601929e-09 -1.0945837125575508e-08 1.1257584446866531e-05 1.9006060725246243e-08 8.539169371601929e-09 1.9006060725246243e-08 1.125317248806823e-05" pbc="T T T"
Pb       1.90221966       1.34507221       3.29473993      -0.00000024       0.00000046       0.00000000
Pb       5.70665751       4.03521685       9.88422019       0.00000084       0.00000023      -0.00000012
B        0.00000023       0.00000009       0.00000119       0.00000008       0.00000014       0.00000133
Se       1.79716223       1.27078596       6.58948003      -0.00066891      -0.00047302      -0.00000052
Se       5.81171467       4.10950333       6.58948061       0.00066940       0.00047275      -0.00000084
Se       4.80807640       1.27078608       4.85112814       0.00033540      -0.00047367      -0.00058074
Se       2.80080051       4.10950282       8.32783227      -0.00033507       0.00047441       0.00058110
Se       2.80080009       4.10950302       4.85112821      -0.00033507       0.00047277      -0.00058015
Se       4.80807595       1.27078631       8.32783222       0.00033369      -0.00047381       0.00057997
