9
Lattice="5.050003430464402 3.7970365242386904e-08 2.915620902543876 1.6833345034846994 4.761188651480307 2.9156209183671624 2.5794965806517918e-08 3.761927240282684e-08 5.831241760409555" Properties=species:S:1:pos:R:3:forces:R:3 energy=-42.94986343383789 free_energy=-42.94986343383789 stress="0.00019759290444198996 2.962950773621742e-08 -8.447098132080555e-09 2.962950773621742e-08 0.00019772294035647064 1.465783761034345e-08 -8.447098132080555e-09 1.465783761034345e-08 0.00019760346913244575" pbc="T T T"
Pb       1.68333460       1.19029693       2.91562076       0.00000177      -0.00000140      -0.00000137
Pb       5.05000342       3.57089169       8.74686272      -0.00000024       0.00000113      -0.00000077
Bi       0.00000007       0.00000011      -0.00000014       0.00000011       0.00000387       0.00000676
N        1.74223990       1.23194940       5.83124197       0.00220084       0.00155622       0.00000121
N        4.99109818       3.52923929       5.83124168      -0.00220394      -0.00155824       0.00000048
N        4.17888331       1.23194918       4.42444472      -0.00110167       0.00155425       0.00190580
N        2.55445417       3.52923960       7.23803886       0.00110406      -0.00155991      -0.00191224
N        2.55445451       3.52923932       4.42444481       0.00110173      -0.00155622       0.00190759
N        4.17888353       1.23194950       7.23803899      -0.00110191       0.00155962      -0.00190759
