9
Lattice="4.428670331719134 -1.0234296439417256e-07 2.5568941607679196 1.476223311557731 4.175390804976247 2.556894222877136 -2.402010979121481e-07 -9.377989103915341e-08 5.113788737576302" Properties=species:S:1:pos:R:3:forces:R:3 energy=-48.490997314453125 free_energy=-48.490997314453125 stress="0.00020984341972507536 1.2068053223401876e-08 2.2813065214677408e-08 1.2068053223401876e-08 0.00020962150301784277 -1.1639184727130214e-08 2.2813065214677408e-08 -1.1639184727130214e-08 0.00020961437257938087" pbc="T T T"
Pb       1.47622376       1.04384736       2.55689467      -0.00000045      -0.00000041      -0.00000324
Pb       4.42867030       3.13154297       7.67068263       0.00000031      -0.00000286       0.00000046
B       -0.00000003      -0.00000107      -0.00000064       0.00000086       0.00000448       0.00000082
O        1.32507190       0.93696771       5.11378829      -0.00355577      -0.00251341       0.00000970
O        4.57982188       3.23842407       5.11378823       0.00354671       0.00250208       0.00000467
O        3.76613358       0.93696772       3.70444010       0.00178629      -0.00251508      -0.00307071
O        2.13875871       3.23842489       6.52313701      -0.00177014       0.00250328       0.00307077
O        2.13875928       3.23842251       3.70444019      -0.00177920       0.00252134      -0.00307828
O        3.76613391       0.93696695       6.52313815       0.00177073      -0.00249898       0.00306565
