9
Lattice="6.282053520815643 -3.521104794842818e-07 3.626945935238689 2.09401734718958 5.922776713780187 3.6269462142882305 -1.92943719032416e-07 2.0533268968747837e-07 7.25389220466567" Properties=species:S:1:pos:R:3:forces:R:3 energy=-31.02653694152832 free_energy=-31.02653694152832 stress="-2.988332198583521e-05 6.165929433699091e-10 2.148035704863105e-08 6.165929433699091e-10 -2.9856581022613682e-05 4.787726659571945e-09 2.148035704863105e-08 4.787726659571945e-09 -2.992154986714013e-05" pbc="T T T"
Pb       2.09401596       1.48069370       3.62694735      -0.00000273      -0.00000168       0.00000264
Pb       6.28205412       4.44208393      10.88083705       0.00000118       0.00000321      -0.00000299
B        0.00000072      -0.00000064       0.00000008      -0.00000473       0.00000459      -0.00000493
Te       1.91334982       1.35294140       7.25389266       0.00045314       0.00031883      -0.00000123
Te       6.46272103       4.56983406       7.25389342      -0.00045095      -0.00031787       0.00000196
Te       5.32537909       1.35294049       5.28395482      -0.00022778       0.00031874       0.00039355
Te       3.05069203       4.56983583       9.22382929       0.00022698      -0.00031871      -0.00039513
Te       3.05069031       4.56983607       5.28395396       0.00022694      -0.00032330       0.00039773
Te       5.32537968       1.35294126       9.22382858      -0.00022206       0.00031607      -0.00039148
