9
Lattice="5.892018155040876 -6.0798703081730496e-09 3.401758160828034 1.964006077187406 5.555047640362051 3.4017581067201026 4.725493646087236e-08 -3.28541061705606e-08 6.803516239808067" Properties=species:S:1:pos:R:3:forces:R:3 energy=-34.54194259643555 free_energy=-34.54194259643555 stress="1.3743894669460133e-05 4.142567533449437e-08 9.520328525525201e-09 4.142567533449437e-08 1.3706387107959017e-05 3.3864797632787713e-09 9.520328525525201e-09 3.3864797632787713e-09 1.3649086213263217e-05" pbc="T T T"
Pb       1.96400608       1.38876178       3.40175773       0.00000050      -0.00000011      -0.00000120
Pb       5.89201830       4.16628503      10.20527492       0.00000158      -0.00000204       0.00000027
Bi       0.00000041       0.00000018      -0.00000253      -0.00000883      -0.00000470       0.00006550
S        2.04381854       1.44519841       6.80351648      -0.00052509      -0.00037019       0.00000024
S        5.81220550       4.10984952       6.80351617       0.00053208       0.00037590      -0.00000003
S        4.87010860       1.44519852       5.17175728       0.00027218      -0.00038433      -0.00047079
S        2.98591462       4.10985041       8.43527614      -0.00025384       0.00035889       0.00043756
S        2.98591589       4.10984919       5.17175714      -0.00027097       0.00038430      -0.00047070
S        4.87010920       1.44519734       8.43527673       0.00025240      -0.00035766       0.00043935
