9
Lattice="4.962322792617302 9.673913275115007e-08 2.8649983397315464 1.6541076188446862 4.678522047469174 2.8649984608035743 3.7862133802697394e-08 1.7505480444092245e-07 5.729996613884117" Properties=species:S:1:pos:R:3:forces:R:3 energy=-41.70848083496094 free_energy=-41.70848083496094 stress="-1.0667296237443225e-06 6.776038219413749e-08 -1.3204467563809885e-07 6.776038219413749e-08 -2.001268768481168e-07 -8.540904872234023e-08 -1.3204467563809885e-07 -8.540904872234023e-08 -9.260751312467619e-07" pbc="T T T"
Pb       1.65410944       1.16962616       2.86499703       0.00001120      -0.00003115      -0.00000709
Pb       4.96232327       3.50889415       8.59499609      -0.00000082       0.00001896       0.00000803
Ga       0.00000013      -0.00000043       0.00000029       0.00000180      -0.00000252      -0.00000969
N        1.58902179       1.12360412       5.72999515       0.00254592       0.00177312       0.00000250
N        5.02740668       3.55491985       5.72999371      -0.00255272      -0.00176239      -0.00001392
N        4.16781393       1.12360518       4.24113156      -0.00126939       0.00178093       0.00220251
N        2.44861945       3.55491702       7.21886283       0.00127192      -0.00177562      -0.00220004
N        2.44861834       3.55491888       4.24113343       0.00127837      -0.00177011       0.00220975
N        4.16780876       1.12360426       7.21886380      -0.00128652       0.00176874      -0.00219184
