9
Lattice="4.609453068779767 3.876608853939311e-07 2.6612696094300072 1.536484437981156 4.345837093445568 2.6612701009322937 -4.108237612289424e-07 3.1146853636320376e-07 5.322539930427656" Properties=species:S:1:pos:R:3:forces:R:3 energy=-43.281585693359375 free_energy=-43.281585693359375 stress="-5.3887190006207675e-05 -6.069620894777472e-08 2.5904194345116593e-08 -6.069620894777472e-08 -5.377147681429051e-05 8.22250925125445e-08 2.5904194345116593e-08 8.22250925125445e-08 -5.389513535192236e-05" pbc="T T T"
Pb       1.53648069       1.08645524       2.66126914      -0.00001331      -0.00000969      -0.00000449
Pb       4.60945202       3.25937601       7.98380716      -0.00000522      -0.00001136      -0.00000868
Ga      -0.00000182      -0.00000020      -0.00000099       0.00000660      -0.00000504       0.00000233
O        1.60706710       1.13636864       5.32254029      -0.00121671      -0.00086719       0.00000411
O        4.53887013       3.20947068       5.32254073       0.00121945       0.00087261       0.00000174
O        3.80592141       1.13637039       4.05303256       0.00061753      -0.00086057      -0.00105810
O        2.34001875       3.20947003       6.59204772      -0.00061029       0.00086951       0.00106066
O        2.34001708       3.20946928       4.05303359      -0.00061497       0.00086814      -0.00105608
O        3.80592200       1.13637092       6.59204860       0.00061682      -0.00085622       0.00105876
