9
Lattice="5.9065745309979665 7.196085110354733e-09 3.410162410798245 1.968858140810796 5.568772129189885 3.410162485229837 -7.429464842987271e-08 3.862546337834461e-08 6.820324950278645" Properties=species:S:1:pos:R:3:forces:R:3 energy=-32.392635345458984 free_energy=-32.392635345458984 stress="-0.00028532330179587007 -7.270430923966842e-09 -5.816823467341692e-09 -7.270430923966842e-09 -0.0002853069454431534 -2.4130082820761345e-08 -5.816823467341692e-09 -2.4130082820761345e-08 -0.0002853102923836559" pbc="T T T"
Pb       1.96885789       1.39219269       3.41016265      -0.00000037       0.00000020       0.00000008
Pb       5.90657468       4.17657898      10.23048694       0.00000033       0.00000039       0.00000013
Ga       0.00000019      -0.00000022       0.00000019      -0.00000158      -0.00000053      -0.00000092
Se       2.07202608       1.46514395       6.82032508       0.00335328       0.00237149      -0.00000028
Se       5.80340635       4.10362843       6.82032511      -0.00335151      -0.00237076       0.00000010
Se       4.87056135       1.46514376       5.20458978      -0.00167603       0.00237037       0.00290373
Se       3.00487134       4.10362863       8.43606010       0.00167560      -0.00237042      -0.00290386
Se       3.00487111       4.10362838       5.20458996       0.00167590      -0.00237130       0.00290400
Se       4.87056140       1.46514416       8.43605964      -0.00167567       0.00237058      -0.00290313
