9
Lattice="6.388784137943484 1.5453402540903497e-07 3.6885661082629833 2.129594817981268 6.023403590589846 3.6885661781731014 -1.4055773258540055e-07 -1.3767224298777945e-08 7.377132459979084" Properties=species:S:1:pos:R:3:forces:R:3 energy=-29.19857406616211 free_energy=-29.19857406616211 stress="0.00014543492579832673 1.5223974969558185e-08 -4.0227283726324e-09 1.5223974969558185e-08 0.00014536005619447678 -1.120961323763936e-09 -4.0227283726324e-09 -1.120961323763936e-09 0.00014542147982865572" pbc="T T T"
Pb       2.12959507       1.50584994       3.68856650       0.00000042      -0.00000845       0.00000105
Pb       6.38878415       4.51755344      11.06569812       0.00000146       0.00000767      -0.00000222
Ga      -0.00000111      -0.00000015       0.00000022       0.00000585       0.00000036       0.00000009
Te       2.26669746       1.60279424       7.37713222      -0.00085931      -0.00061115       0.00000010
Te       6.25168292       4.42061019       7.37713279       0.00085282       0.00060720       0.00000219
Te       5.25543608       1.60279439       5.65158290       0.00042759      -0.00060673      -0.00074098
Te       3.26294232       4.42060972       9.10268141      -0.00042755       0.00060883       0.00074192
Te       3.26294216       4.42060933       5.65158310      -0.00042946       0.00060855      -0.00074212
Te       5.25543624       1.60279377       9.10268151       0.00042816      -0.00060622       0.00074005
