9
Lattice="5.5950709503116425 9.483748021458792e-08 3.230315676265797 1.865023752131819 5.2750833481717265 3.230315654417222 1.2391787403156397e-07 6.086428450477553e-08 6.46063113789957" Properties=species:S:1:pos:R:3:forces:R:3 energy=-41.76972198486328 free_energy=-41.76972198486328 stress="-0.00012173561117378995 3.712172613745679e-08 1.0313939924344595e-08 3.712172613745679e-08 -0.00012174916628282517 5.630389487976117e-09 1.0313939924344595e-08 5.630389487976117e-09 -0.00012176926247775555" pbc="T T T"
Pb       1.86502391       1.31877083       3.23031580      -0.00000008      -0.00000006       0.00000007
Pb       5.59507128       3.95631278       9.69094743       0.00000091       0.00000103       0.00000156
Ir       0.00000003       0.00000022       0.00000037       0.00000007      -0.00000162       0.00000133
S        1.89748758       1.34172638       6.46063110       0.00224721       0.00158894       0.00000030
S        5.56260702       3.93335697       6.46063102      -0.00224608      -0.00158861      -0.00000070
S        4.64632701       1.34172653       4.87358761      -0.00112420       0.00158957       0.00194699
S        2.81376737       3.93335749       8.04767445       0.00112402      -0.00159052      -0.00194728
S        2.81376770       3.93335703       4.87358785       0.00112334      -0.00158891       0.00194585
S        4.64632742       1.34172587       8.04767445      -0.00112510       0.00158963      -0.00194818
