9
Lattice="4.964582076349461 -1.294214694506937e-07 2.8663030013916626 1.6548606025545884 4.680652677548115 2.8663029451730178 -2.4013918168083858e-08 -8.583391032931548e-08 5.732606044376686" Properties=species:S:1:pos:R:3:forces:R:3 energy=-51.39387512207031 free_energy=-51.39387512207031 stress="-4.3032083340222016e-05 -4.6111846785379385e-08 1.7705422683533811e-09 -4.6111846785379385e-08 -4.3054202251369134e-05 -3.0130729022914693e-09 1.7705422683533811e-09 -3.0130729022914693e-09 -4.300839646020904e-05" pbc="T T T"
Pb       1.65486074       1.17016316       2.86630293      -0.00000026       0.00000067      -0.00000006
Pb       4.96458185       3.51048937       8.59890905       0.00000054      -0.00000085       0.00000041
Ir       0.00000018      -0.00000013      -0.00000015      -0.00000034       0.00001397      -0.00000343
O        1.54496472       1.09245522       5.73260606       0.00521469       0.00368747      -0.00000000
O        5.07447835       3.58819726       5.73260610      -0.00522476      -0.00369212      -0.00000097
O        4.19209938       1.09245515       4.20428219      -0.00260481       0.00368500       0.00451195
O        2.42734305       3.58819726       7.26093001       0.00260893      -0.00368759      -0.00451764
O        2.42734292       3.58819721       4.20428196       0.00261164      -0.00369066       0.00452071
O        4.19209934       1.09245511       7.26093004      -0.00260556       0.00368422      -0.00451139
