9
Lattice="5.888187754789001 -3.206952584718088e-08 3.399546804837873 1.9627292563022771 5.551436670429819 3.399546744317688 9.703729944497139e-08 -5.50609767817775e-09 6.799093441602265" Properties=species:S:1:pos:R:3:forces:R:3 energy=-39.141170501708984 free_energy=-39.141170501708984 stress="-2.428626658002031e-06 3.633837675209861e-09 8.516074068154467e-09 3.633837675209861e-09 -2.42099531533313e-06 -1.3760326211809115e-08 8.516074068154467e-09 -1.3760326211809115e-08 -2.3875154511188157e-06" pbc="T T T"
Pb       1.96272922       1.38785899       3.39954676       0.00000027       0.00000010      -0.00000139
Pb       5.88818791       4.16357724      10.19864072       0.00000143      -0.00000194       0.00000127
Ir      -0.00000016      -0.00000039      -0.00000024       0.00000144       0.00000418       0.00000353
Se       2.01865522       1.42740469       6.79909352       0.00013153       0.00009310      -0.00000041
Se       5.83226208       4.12403210       6.79909334      -0.00013447      -0.00009443       0.00000022
Se       4.87886042       1.42740478       5.14775310      -0.00006590       0.00009337       0.00011393
Se       2.97205665       4.12403221       8.45043399       0.00006729      -0.00009494      -0.00011772
Se       2.97205683       4.12403210       5.14775315       0.00006542      -0.00009381       0.00011490
Se       4.87886023       1.42740482       8.45043363      -0.00006699       0.00009436      -0.00011438
