9
Lattice="5.991016821204644 3.438075221453115e-08 3.4589151358967416 1.9970056781702652 5.64838460432127 3.458915068887871 7.769140406304853e-08 -2.7132641550416475e-08 6.917830137228036" Properties=species:S:1:pos:R:3:forces:R:3 energy=-41.63114929199219 free_energy=-41.63114929199219 stress="-3.125311923213303e-05 3.2961519735863476e-08 1.5385372975629252e-08 3.2961519735863476e-08 -3.127057425444946e-05 -2.002259691380459e-08 1.5385372975629252e-08 -2.002259691380459e-08 -3.128005482722074e-05" pbc="T T T"
Pb       1.99700564       1.41209621       3.45891490      -0.00000042       0.00000016      -0.00000042
Pb       5.99101706       4.23628835      10.37674489       0.00000035       0.00000047       0.00000003
Mo       0.00000043       0.00000029       0.00000021      -0.00000424      -0.00000212      -0.00000281
Se       2.01792991       1.42689170       6.91783035       0.00028037       0.00019827      -0.00000038
Se       5.97009268       4.22149284       6.91783036      -0.00027631      -0.00019582      -0.00000039
Se       4.98205210       1.42689118       5.20649324      -0.00014205       0.00020118       0.00024520
Se       3.00597040       4.22149306       8.62916695       0.00014025      -0.00019865      -0.00024402
Se       3.00597030       4.22149316       5.20649357       0.00014104      -0.00019960       0.00024347
Se       4.98205180       1.42689170       8.62916695      -0.00013900       0.00019616      -0.00024074
