9
Lattice="5.007707316733868 -2.1165506129101244e-07 2.8912011220490297 1.6692356598038263 4.721311033253755 2.8912009711709463 6.123453925055904e-08 -1.41487801549067e-07 5.782402138036687" Properties=species:S:1:pos:R:3:forces:R:3 energy=-52.13514709472656 free_energy=-52.13514709472656 stress="0.00022267605527304113 -7.120912215441422e-08 4.8871914515302706e-08 -7.120912215441422e-08 0.00022264370636548847 -4.930989661033891e-08 4.8871914515302706e-08 -4.930989661033891e-08 0.00022276610252447426" pbc="T T T"
Pb       1.66923578       1.18032696       2.89120091      -0.00000075      -0.00000252       0.00000101
Pb       5.00770710       3.54098288       8.67360317      -0.00000063      -0.00000169      -0.00000098
Mo       0.00000005      -0.00000034       0.00000033       0.00000050       0.00000039      -0.00000200
O        1.57989880       1.11715643       5.78240210      -0.00224745      -0.00158954       0.00000029
O        5.09704426       3.60415468       5.78240238       0.00224555       0.00158930      -0.00000036
O        4.21775819       1.11715714       4.25943345       0.00112516      -0.00158739      -0.00194800
O        2.45918518       3.60415428       7.30537071      -0.00112504       0.00159073       0.00194800
O        2.45918486       3.60415401       4.25943364      -0.00112534       0.00159287      -0.00195062
O        4.21775810       1.11715707       7.30537082       0.00112760      -0.00159228       0.00195217
