9
Lattice="5.687351654520884 3.954143757978859e-09 3.283593950373753 1.8957838810744008 5.362086595675502 3.2835939633536624 -9.843636685822095e-09 8.936502155135862e-09 6.567187917797212" Properties=species:S:1:pos:R:3:forces:R:3 energy=-45.06956481933594 free_energy=-45.06956481933594 stress="-1.432401313650189e-05 3.684635885292664e-08 2.3795305281737456e-08 3.684635885292664e-08 -1.4372571058629546e-05 -1.2819096006921882e-08 2.3795305281737456e-08 -1.2819096006921882e-08 -1.440703545085853e-05" pbc="T T T"
Pb       1.89578374       1.34052140       3.28359408       0.00000067      -0.00000005       0.00000021
Pb       5.68735161       4.02156510       9.85078212      -0.00000029       0.00000012       0.00000073
Mo      -0.00000019       0.00000013      -0.00000053       0.00000157       0.00000114       0.00000780
S        1.90579856       1.34760304       6.56718771       0.00047773       0.00033844       0.00000095
S        5.67733754       4.01448376       6.56718751      -0.00048134      -0.00034114       0.00000139
S        4.73445215       1.34760301       4.93406325      -0.00023945       0.00033987       0.00041778
S        2.84868291       4.01448420       8.20031307       0.00024506      -0.00034541      -0.00042322
S        2.84868336       4.01448324       4.93406357       0.00023884      -0.00033804       0.00041579
S        4.73445245       1.34760250       8.20031261      -0.00024279       0.00034500      -0.00042158
