9
Lattice="4.772383595840382 2.3586209379568795e-07 2.7553375340200406 1.590794657310521 4.499447347300525 2.755337702044963 -3.967822587038873e-08 1.777308999608103e-07 5.510675136764821" Properties=species:S:1:pos:R:3:forces:R:3 energy=-42.47114181518555 free_energy=-42.47114181518555 stress="-2.5507138161628973e-06 -1.0415697460075535e-07 5.768502830960642e-08 -1.0415697460075535e-07 -2.8554900382005144e-06 4.12241831782012e-08 5.768502830960642e-08 4.12241831782012e-08 -2.994919441334787e-06" pbc="T T T"
Pb       1.59079468       1.12486143       2.75533744       0.00000157      -0.00000252      -0.00000420
Pb       4.77238375       3.37458550       8.26601190       0.00000055      -0.00000198      -0.00000263
N        0.00000859      -0.00001128      -0.00001762       0.00007517      -0.00009490      -0.00013423
O        1.32321352       0.93564859       5.51067160       0.00111842       0.00077498      -0.00002485
O        5.03996728       3.56379302       5.51067122      -0.00110531      -0.00080538      -0.00002116
O        4.11076940       0.93566453       3.90128707      -0.00061846       0.00087774       0.00107098
O        2.25239173       3.56380809       7.12009319       0.00049204      -0.00069857      -0.00086617
O        2.25240363       3.56379201       3.90127014       0.00057077      -0.00081301       0.00095785
O        4.11077991       0.93564893       7.12007548      -0.00053430       0.00076234      -0.00097346
