9
Lattice="4.504702294303489 4.072316808910407e-08 2.6007916186840734 1.5015675167783094 4.247073961504595 2.6007915373649335 2.3579224993632838e-07 6.713504216971866e-08 5.201582828964046" Properties=species:S:1:pos:R:3:forces:R:3 energy=-51.91960144042969 free_energy=-51.91960144042969 stress="-0.0005139595596119761 -1.1158768131735997e-07 8.927646177880888e-08 -1.1158768131735997e-07 -0.0005141005385667086 -4.5698850925646184e-08 8.927646177880888e-08 -4.5698850925646184e-08 -0.0005138620035722852" pbc="T T T"
Pb       1.50156809       1.06176900       2.60079136      -0.00000086       0.00000006      -0.00000025
Pb       4.50470181       3.18530578       7.80237451       0.00000092       0.00000096      -0.00000046
P       -0.00000002       0.00000143       0.00000040       0.00000245      -0.00001920      -0.00000178
O        1.40593165       0.99414281       5.20158308       0.00455713       0.00322950       0.00000421
O        4.60033831       3.25293017       5.20158331      -0.00455689      -0.00322390      -0.00000107
O        3.80173575       0.99414291       3.81836460      -0.00227392       0.00322151       0.00394380
O        2.20453389       3.25293009       6.58480226       0.00227392      -0.00321734      -0.00394261
O        2.20453377       3.25293026       3.81836430       0.00227374      -0.00321376       0.00393999
O        3.80173661       0.99414388       6.58480261      -0.00227690       0.00322247      -0.00394297
