9
Lattice="5.5609804436713475 -3.316912573900309e-08 3.2106333997753014 1.853660132826875 5.242942308399934 3.210633371701214 5.958132113476747e-08 7.746784112303485e-09 6.421266696352751" Properties=species:S:1:pos:R:3:forces:R:3 energy=-40.470184326171875 free_energy=-40.470184326171875 stress="-4.687302862294018e-05 3.255721381378862e-08 1.5644031625683397e-09 3.255721381378862e-08 -4.6913053665775806e-05 -7.881516772556552e-09 1.5644031625683397e-09 -7.881516772556552e-09 -4.689823981607333e-05" pbc="T T T"
Pb       1.85366007       1.31073524       3.21063358       0.00000042       0.00000098       0.00000052
Pb       5.56098084       3.93220698       9.63190000       0.00000024       0.00000054      -0.00000034
Rh       0.00000003       0.00000019      -0.00000024       0.00000197      -0.00000107       0.00000502
S        1.88738939       1.33458557       6.42126668      -0.00045156      -0.00031930       0.00000009
S        5.52725158       3.90835670       6.42126689       0.00044984       0.00031856       0.00000017
S        4.61728581       1.33458540       4.84515999       0.00022501      -0.00031894      -0.00038931
S        2.79735443       3.90835716       7.99737339      -0.00022322       0.00031602       0.00038624
S        2.79735448       3.90835657       4.84516003      -0.00022578       0.00031963      -0.00039014
S        4.61728592       1.33458539       7.99737361       0.00022343      -0.00031641       0.00038743
