9
Lattice="5.871621240522817 -7.46402122980318e-08 3.3899822920710854 1.9572070298753588 5.53581771809777 3.3899822573043523 -2.6643301257742076e-08 -6.142001117688915e-08 6.7799646302896965" Properties=species:S:1:pos:R:3:forces:R:3 energy=-37.985111236572266 free_energy=-37.985111236572266 stress="-7.594090129714459e-05 -1.5796562946590598e-09 -5.868211694348702e-09 -1.5796562946590598e-09 -7.59545509936288e-05 9.103260367737676e-09 -5.868211694348702e-09 9.103260367737676e-09 -7.596494106110185e-05" pbc="T T T"
Pb       1.95720717       1.38395423       3.38998225       0.00000071       0.00000005      -0.00000036
Pb       5.87162128       4.15186326      10.16994677      -0.00000009      -0.00000013      -0.00000009
Rh      -0.00000008       0.00000010       0.00000001      -0.00000011       0.00000057       0.00000059
Se       2.00552067       1.41811728       6.77996448       0.00176309       0.00124694      -0.00000005
Se       5.82330757       4.11770039       6.77996449      -0.00176339      -0.00124690      -0.00000044
Se       4.86886072       1.41811723       5.12681421      -0.00088158       0.00124662       0.00152701
Se       2.95996753       4.11770022       8.43311510       0.00088140      -0.00124715      -0.00152671
Se       2.95996740       4.11770035       5.12681430       0.00088172      -0.00124694       0.00152764
Se       4.86886071       1.41811726       8.43311508      -0.00088172       0.00124685      -0.00152746
