9
Lattice="4.9246178658884086 6.220742214785993e-08 2.8432294234343143 1.641539409192773 4.642973590244459 2.8432293161968536 2.071296869054433e-07 1.5124226736258785e-08 5.686458488109494" Properties=species:S:1:pos:R:3:forces:R:3 energy=-52.47116470336914 free_energy=-52.47116470336914 stress="-4.100972364540212e-05 -2.1784570591876218e-08 1.0112322534894247e-08 -2.1784570591876218e-08 -4.1196552047040313e-05 -4.877931303326477e-08 1.0112322534894247e-08 -4.877931303326477e-08 -4.1023711673915386e-05" pbc="T T T"
Pb       1.64153959       1.16074335       2.84322940      -0.00000133      -0.00000149      -0.00000077
Pb       4.92461804       3.48223043       8.52968787       0.00000057       0.00000104       0.00000001
Ru      -0.00000030      -0.00000005       0.00000022       0.00000764      -0.00000419      -0.00000906
O        1.52433925       1.07787010       5.68645859       0.00251472       0.00177774      -0.00000148
O        5.04181827       3.56510311       5.68645862      -0.00251508      -0.00177959      -0.00000076
O        4.16244872       1.07786990       4.16334601      -0.00126266       0.00178379       0.00218219
O        2.40370903       3.56510299       7.20957098       0.00125462      -0.00177410      -0.00217104
O        2.40370897       3.56510388       4.16334583       0.00125840      -0.00178048       0.00217664
O        4.16244830       1.07787057       7.20957117      -0.00125679       0.00177693      -0.00217515
