9
Lattice="5.534656237731836 -1.5548315798501505e-08 3.195435211499708 1.844885446276414 5.218123572512859 3.1954351277407826 1.3258069764339424e-07 -8.834567072199641e-09 6.390870193362689" Properties=species:S:1:pos:R:3:forces:R:3 energy=-42.15920639038086 free_energy=-42.15920639038086 stress="-1.4279746210377198e-05 -1.8425868830718173e-08 2.220680705988798e-08 -1.8425868830718173e-08 -1.4292981177277397e-05 -8.942253160171276e-09 2.220680705988798e-08 -8.942253160171276e-09 -1.4298085261543747e-05" pbc="T T T"
Pb       1.84488538       1.30453065       3.19543461      -0.00000043       0.00000020      -0.00000227
Pb       5.53465620       3.91359303       9.58630496      -0.00000040       0.00000057      -0.00000213
Ru      -0.00000016       0.00000086      -0.00000276      -0.00000162       0.00000225      -0.00000673
S        1.89539483       1.34024611       6.39087056      -0.00015730      -0.00011209       0.00000264
S        5.48414711       3.87787714       6.39087071       0.00015777       0.00011191       0.00000294
S        4.58695924       1.34024591       4.83689588       0.00007984      -0.00011277      -0.00013500
S        2.79258282       3.87787721       7.94484641      -0.00007692       0.00010899       0.00013620
S        2.79258289       3.87787711       4.83689558      -0.00008017       0.00011241      -0.00013494
S        4.58695907       1.34024616       7.94484625       0.00007915      -0.00011167       0.00013924
