9
Lattice="5.822708515576953 -6.823827613130705e-08 3.361742327713435 1.9409027940822474 5.489702254200725 3.3617422932590957 -6.833302694443951e-09 -4.702969985988016e-08 6.723484667262466" Properties=species:S:1:pos:R:3:forces:R:3 energy=-35.72783660888672 free_energy=-35.72783660888672 stress="-3.863043093588203e-05 5.812133707649991e-08 -6.216819503634952e-09 5.812133707649991e-08 -3.868539715767838e-05 4.3805442828670493e-08 -6.216819503634952e-09 4.3805442828670493e-08 -3.8676058466080576e-05" pbc="T T T"
Pb       1.94090261       1.37242542       3.36174270      -0.00000020      -0.00000095       0.00000240
Pb       5.82270827       4.11727683      10.08522706      -0.00000148       0.00000003       0.00000123
Sb       0.00000004      -0.00000047       0.00000004      -0.00000076       0.00000978       0.00000202
S        2.00651010       1.41881647       6.72348455       0.00005606       0.00003889      -0.00000051
S        5.75710146       4.07088555       6.72348454      -0.00005966      -0.00004226      -0.00000128
S        4.81945372       1.41881632       5.09943034      -0.00002910       0.00003874       0.00004801
S        2.94415734       4.07088631       8.34753911       0.00002977      -0.00004306      -0.00005355
S        2.94415767       4.07088598       5.09943020       0.00003226      -0.00004271       0.00005201
S        4.81945399       1.41881606       8.34753855      -0.00002699       0.00004175      -0.00005069
