9
Lattice="6.571626291569788 3.623483163152829e-08 3.7941303860078257 2.190542162208976 6.195788583461532 3.794130332562707 4.58299422692701e-08 -3.3049989136512457e-08 7.588260692635875" Properties=species:S:1:pos:R:3:forces:R:3 energy=-29.86313819885254 free_energy=-29.86313819885254 stress="4.354693828645395e-06 -9.129201394841857e-09 -6.16488970983653e-10 -9.129201394841857e-09 4.357729721959913e-06 -5.6459090735927475e-09 -6.16488970983653e-10 -5.6459090735927475e-09 4.341377461969387e-06" pbc="T T T"
Pb       2.19054276       1.54894739       3.79413052       0.00000252       0.00000040       0.00000092
Pb       6.57162589       4.64684137      11.38239124      -0.00000272       0.00000000       0.00000053
Sb      -0.00000004      -0.00000010      -0.00000082      -0.00000045       0.00000024       0.00000388
Te       2.38630199       1.68736999       7.58826076       0.00008412       0.00005864      -0.00000040
Te       6.37586651       4.50841875       7.58826074      -0.00008355      -0.00005828      -0.00000002
Te       5.37847503       1.68737063       5.86072847      -0.00004177       0.00005905       0.00007042
Te       3.38369315       4.50841839       9.31579322       0.00004289      -0.00006033      -0.00007296
Te       3.38369345       4.50841778       5.86072826       0.00004187      -0.00005946       0.00006987
Te       5.37847528       1.68737015       9.31579331      -0.00004285       0.00005971      -0.00007229
