9
Lattice="6.058702120325051 3.5550206057648e-08 3.497993164349567 2.0195673687395748 5.712199093695037 3.4979932305472254 -6.257467920728424e-08 3.682820562935098e-08 6.99598643708161" Properties=species:S:1:pos:R:3:forces:R:3 energy=-33.55896759033203 free_energy=-33.55896759033203 stress="5.935292938374914e-05 3.3807090460413747e-10 1.53736079422373e-09 3.3807090460413747e-10 5.939720358583145e-05 1.4485863175650593e-08 1.53736079422373e-09 1.4485863175650593e-08 5.9395504649728537e-05" pbc="T T T"
Pb       2.01956799       1.42804953       3.49799299       0.00000188      -0.00000069      -0.00000013
Pb       6.05870172       4.28414946      10.49397989      -0.00000146       0.00000134      -0.00000018
Sb       0.00000026       0.00000059       0.00000049      -0.00000252      -0.00000424      -0.00000820
Se       2.14988523       1.52019846       6.99598653      -0.00354299      -0.00250580      -0.00000003
Se       5.92838376       4.19200050       6.99598629       0.00354623       0.00250862       0.00000009
Se       4.98375949       1.52019838       5.35984840       0.00177130      -0.00250581      -0.00306844
Se       3.09451023       4.19200025       8.63212416      -0.00177402       0.00250940       0.00307327
Se       3.09450999       4.19200079       5.35984832      -0.00177132       0.00250590      -0.00306901
Se       4.98375903       1.52019871       8.63212423       0.00177293      -0.00250875       0.00307258
