9
Lattice="4.986379950829785 -2.865264939351405e-08 2.8788878061216883 1.6621266280538058 4.701204064462693 2.8788877978231135 -1.3973167963464588e-08 -2.004416320634366e-08 5.757775636445611" Properties=species:S:1:pos:R:3:forces:R:3 energy=-47.06451416015625 free_energy=-47.06451416015625 stress="-0.0003566378145478666 -2.1665979232921018e-08 4.97426526635536e-08 -2.1665979232921018e-08 -0.000356726988684386 -5.4211564126660505e-09 4.97426526635536e-08 -5.4211564126660505e-09 -0.00035660015419125557" pbc="T T T"
Pb       1.66212666       1.17530101       2.87888780      -0.00000025       0.00000033       0.00000018
Pb       4.98637990       3.52590302       8.63666341       0.00000094       0.00000023       0.00000022
Sb       0.00000003      -0.00000003      -0.00000002      -0.00000277      -0.00000164      -0.00000344
O        1.63125262       1.15346974       5.75777562      -0.00129974      -0.00091845      -0.00000007
O        5.01725393       3.54773424       5.75777565       0.00130069       0.00092006       0.00000013
O        4.17075356       1.15346978       4.29159409       0.00064951      -0.00091934      -0.00112498
O        2.47775297       3.54773424       7.22395724      -0.00065017       0.00092071       0.00112593
O        2.47775296       3.54773423       4.29159407      -0.00064987       0.00091863      -0.00112498
O        4.17075358       1.15346980       7.22395716       0.00065130      -0.00092089       0.00112629
