9
Lattice="4.942908863173938 -3.586501714508908e-09 2.853790018359211 1.647636303227338 4.660219119604393 2.853789985650991 1.3756974432410552e-07 5.721728394284195e-08 5.70757979844063" Properties=species:S:1:pos:R:3:forces:R:3 energy=-44.28274154663086 free_energy=-44.28274154663086 stress="0.00019027703092433512 2.7612692576894915e-08 5.054872631582441e-10 2.7612692576894915e-08 0.00019028926908504218 4.892950755674974e-08 5.054872631582441e-10 4.892950755674974e-08 0.00019020421314053237" pbc="T T T"
Pb       1.64763645       1.16505470       2.85379018      -0.00000020      -0.00000069      -0.00000132
Pb       4.94290904       3.49516442       8.56136962       0.00000043      -0.00000027      -0.00000026
Sb       0.00000011      -0.00000011      -0.00000016       0.00000140      -0.00000051       0.00000019
N        1.70495321       1.20558389       5.70757973      -0.00019145      -0.00013494      -0.00000071
N        4.88559208       3.45463541       5.70757991       0.00019121       0.00013560       0.00000078
N        4.09043244       1.20558375       4.33032288       0.00009507      -0.00013500      -0.00016403
N        2.50011286       3.45463528       7.08483715      -0.00009590       0.00013554       0.00016552
N        2.50011271       3.45463541       4.33032277      -0.00009483       0.00013393      -0.00016421
N        4.09043239       1.20558396       7.08483725       0.00009447      -0.00013399       0.00016457
