9
Lattice="6.101565483947273 1.2598856213351562e-10 3.5227404403829334 2.0338551935203344 5.752611008940233 3.5227403848087975 2.6935753270170736e-09 -6.615952177802644e-08 7.045480876100457" Properties=species:S:1:pos:R:3:forces:R:3 energy=-30.078027725219727 free_energy=-30.078027725219727 stress="-0.00022485571389552206 -3.119001057427795e-09 1.5451185220172192e-08 -3.119001057427795e-09 -0.00022483905195258558 2.0245382259531652e-08 1.5451185220172192e-08 2.0245382259531652e-08 -0.00022486195666715503" pbc="T T T"
Pb       2.03385494       1.43815342       3.52273971      -0.00000012      -0.00000018      -0.00000243
Pb       6.10156533       4.31445807      10.56822153      -0.00000012       0.00000094      -0.00000016
Tl       0.00000007      -0.00000031      -0.00000031      -0.00000171       0.00000131      -0.00000029
Se       2.22935474       1.57639190       7.04548113      -0.00272819      -0.00192831       0.00000124
Se       5.90606604       4.17621885       7.04548047       0.00272770       0.00192887       0.00000013
Se       4.98688854       1.57639184       5.45341850       0.00136530      -0.00192976      -0.00236300
Se       3.14853257       4.17621884       8.63754395      -0.00136304       0.00192690       0.00236151
Se       3.14853252       4.17621923       5.45341800      -0.00136297       0.00192823      -0.00236063
Se       4.98688796       1.57639196       8.63754376       0.00136320      -0.00192793       0.00236365
