9
Lattice="5.955722856608226 6.057143024184461e-08 3.438538342595888 1.9852410066960104 5.615109564205134 3.4385383471234396 -6.362790823191676e-08 -3.944662746537506e-08 6.877076795398651" Properties=species:S:1:pos:R:3:forces:R:3 energy=-43.707969665527344 free_energy=-43.707969665527344 stress="-8.678769518155605e-05 3.4635940782123953e-09 -1.1474503125441515e-08 3.4635940782123953e-09 -8.678252197569236e-05 1.448237707535327e-08 -1.1474503125441515e-08 1.448237707535327e-08 -8.679800521349534e-05" pbc="T T T"
Pb       1.98524090       1.40377731       3.43853844      -0.00000003      -0.00000047       0.00000004
Pb       5.95572291       4.21133234      10.31561538       0.00000046       0.00000017       0.00000097
Ta      -0.00000007      -0.00000004       0.00000007      -0.00000182      -0.00000029       0.00000254
Se       2.06047684       1.45697714       6.87707673      -0.00121106      -0.00085562       0.00000027
Se       5.88048692       4.15813229       6.87707633       0.00121247       0.00085696      -0.00000098
Se       4.92548437       1.45697727       5.22296371       0.00060650      -0.00085824      -0.00105022
Se       3.01547963       4.15813237       8.53118986      -0.00060481       0.00085600       0.00104774
Se       3.01547939       4.15813244       5.22296395      -0.00060646       0.00085714      -0.00104849
Se       4.92548434       1.45697723       8.53118951       0.00060480      -0.00085567       0.00104802
