9
Lattice="6.4359467275281945 1.329106522761706e-07 3.715795380018489 2.1453156996973686 6.067868659553935 3.715795382538178 -3.793079816638979e-08 -2.373515882452256e-08 7.431590825735069" Properties=species:S:1:pos:R:3:forces:R:3 energy=-39.209442138671875 free_energy=-39.209442138671875 stress="-1.3312975170265418e-05 -4.073341219879012e-09 5.364596766810337e-09 -4.073341219879012e-09 -1.3317735465534497e-05 -1.2713945451992004e-08 5.364596766810337e-09 -1.2713945451992004e-08 -1.3314619536686223e-05" pbc="T T T"
Pb       2.14531602       1.51696703       3.71579539       0.00000175      -0.00000007      -0.00000004
Pb       6.43594633       4.55090132      11.14738615      -0.00000185      -0.00000084       0.00000070
Ta      -0.00000012       0.00000003      -0.00000029       0.00000049       0.00000027       0.00000247
Te       2.24909062       1.59034743       7.43159079       0.00112778       0.00079738       0.00000064
Te       6.33217173       4.47752147       7.43159079      -0.00112754      -0.00079776      -0.00000031
Te       5.31140136       1.59034725       5.66356444      -0.00056379       0.00079766       0.00097714
Te       3.26986100       4.47752168       9.19961712       0.00056521      -0.00079881      -0.00097844
Te       3.26986120       4.47752160       5.66356471       0.00056317      -0.00079556       0.00097534
Te       5.31140143       1.59034717       9.19961726      -0.00056519       0.00079772      -0.00097746
