9
Lattice="5.808761698908593 -1.8057132147983667e-08 3.353690048570955 1.9362538504973026 5.476553076367049 3.353690104194929 -1.28690618331286e-07 -2.287282664571544e-08 6.7073803200405715" Properties=species:S:1:pos:R:3:forces:R:3 energy=-31.842496871948242 free_energy=-31.842496871948242 stress="0.0003755227371584624 3.0642887338672153e-08 4.2154272961170136e-08 3.0642887338672153e-08 0.00037552110734395683 1.8464927364902906e-08 4.2154272961170136e-08 1.8464927364902906e-08 0.00037545760278590024" pbc="T T T"
Pb       1.93625389       1.36913841       3.35368975       0.00000107       0.00000009      -0.00000452
Pb       5.80876196       4.10741447      10.06107104       0.00000276      -0.00000305       0.00000435
Tl      -0.00000020      -0.00000024      -0.00000059      -0.00000032       0.00000164       0.00000851
S        2.10962521       1.49173090       6.70738055      -0.00360879      -0.00254980       0.00000194
S        5.63538923       3.98482221       6.70737954       0.00360650       0.00255106      -0.00000242
S        4.75394943       1.49173112       5.18068004       0.00180671      -0.00255091      -0.00312623
S        2.99106644       3.98482242       8.23408107      -0.00180314       0.00254716       0.00312084
S        2.99106695       3.98482238       5.18067965      -0.00180505       0.00255182      -0.00312471
S        4.75394878       1.49173044       8.23408087       0.00180033      -0.00254822       0.00312230
