9
Lattice="5.040860289936178 8.534430135946963e-08 2.9103425094403677 1.6802867701992488 4.752569309125713 2.9103426368780636 -1.7024570790081527e-07 3.5696766341755715e-08 5.820685313754982" Properties=species:S:1:pos:R:3:forces:R:3 energy=-58.91996765136719 free_energy=-58.91996765136719 stress="-4.2242980271112174e-05 5.684373149961175e-08 5.105550826556282e-08 5.684373149961175e-08 -4.234484367771074e-05 1.2973574214925065e-08 5.105550826556282e-08 1.2973574214925065e-08 -4.2434177885297686e-05" pbc="T T T"
Pb       1.68028661       1.18814319       2.91034262       0.00000025       0.00000156       0.00000235
Pb       5.04085993       3.56442708       8.73102796      -0.00000249       0.00000153       0.00000220
Ta       0.00000018       0.00000017       0.00000057      -0.00000227      -0.00000021       0.00000221
O        1.61047399       1.13877685       5.82068508       0.00601149       0.00425041      -0.00000085
O        5.11067318       3.61379195       5.82068507      -0.00600719      -0.00424904       0.00000060
O        4.23562277       1.13877721       4.30505381      -0.00300556       0.00424945       0.00520545
O        2.48552353       3.61379222       7.33631730       0.00300735      -0.00425518      -0.00520939
O        2.48552418       3.61379189       4.30505376       0.00300449      -0.00425053       0.00520533
O        4.23562316       1.13877700       7.33631650      -0.00300592       0.00425190      -0.00520754
