9
Lattice="5.630815109255861 -1.4038995555164495e-07 3.2509523256480706 1.8769382828331502 5.3087832418972685 3.2509522469400194 -3.883845334529179e-08 -1.2386015516081953e-07 6.501904718566316" Properties=species:S:1:pos:R:3:forces:R:3 energy=-47.469017028808594 free_energy=-47.469017028808594 stress="-1.865574813564308e-05 -1.6025332172375784e-08 1.1143615807895912e-08 -1.6025332172375784e-08 -1.870527194114402e-05 -1.7816590869301763e-08 1.1143615807895912e-08 -1.7816590869301763e-08 -1.866578168119304e-05" pbc="T T T"
Pb       1.87693825       1.32719521       3.25095210      -0.00000065      -0.00000089      -0.00000106
Pb       5.63081465       3.98158719       9.75285780      -0.00000138       0.00000068       0.00000165
Ta      -0.00000017      -0.00000027      -0.00000013      -0.00000162       0.00000214      -0.00000192
S        1.95342942       1.38128314       6.50190476      -0.00007775      -0.00005412      -0.00000011
S        5.55432358       3.92750003       6.50190453       0.00007823       0.00005442      -0.00000068
S        4.65410043       1.38128302       4.94267218       0.00003985      -0.00005504      -0.00006896
S        2.85365341       3.92750013       8.06113681      -0.00003926       0.00005510       0.00006849
S        2.85365371       3.92750031       4.94267194      -0.00003815       0.00005454      -0.00006688
S        4.65409996       1.38128319       8.06113704       0.00004050      -0.00005674       0.00006974
