9
Lattice="7.899680982429137 -0.3456713771790797 5.007370132321752 3.5111177338556505 4.442845225833882 2.5418708320838066 1.5957962379906594 -1.3957240606813401 6.8909800470331275" Properties=species:S:1:pos:R:3:forces:R:3 energy=-63.73088455200195 free_energy=-63.73088455200195 stress="-0.0018786758882924914 -0.0004813395789824426 -0.0003848664928227663 -0.0004813395789824426 0.001618198468349874 -0.00044207071186974645 -0.0003848664928227663 -0.00044207071186974645 0.00020238100842107087" pbc="T T T"
Pb       3.06760531       2.48134162       3.11314677      -0.04363259      -0.02476863      -0.01495293
Pb       8.35628254       2.62304171      10.39336097       0.02925453       0.00323410       0.00927573
Y        0.65164224       1.37796050      -0.46422899      -0.00665884      -0.05304629       0.04056043
N        4.25445223       0.80337407       5.84894851      -0.19095549      -0.07283492       0.07295729
N        8.50120914      -0.80144321       8.51274148       0.01622155      -0.02452718       0.13729459
N        6.47345330       1.46941316       5.43104393       0.14512807       0.10568072      -0.01637052
N        6.28547179       2.49220270       9.79058231       0.00116765       0.06773895      -0.06593999
N        5.36373716       1.14410601       5.63619761       0.06638512      -0.02241705      -0.00395284
N        9.07252904      -0.78420485       9.49910414      -0.01690996       0.02094022      -0.15887180
