9
Lattice="4.602099148138131 4.6124470730907054e-08 2.657022999212593 1.5340329859125252 4.338901295825637 2.657023184461321 -2.303833435587315e-07 6.397680684436878e-08 5.314046397460895" Properties=species:S:1:pos:R:3:forces:R:3 energy=-42.6924934387207 free_energy=-42.6924934387207 stress="0.00014103676949162036 -8.821523778124174e-08 -1.6605800112756697e-07 -8.821523778124174e-08 0.0001414461003150791 1.0421031504392886e-07 -1.6605800112756697e-07 1.0421031504392886e-07 0.00014129970804788172" pbc="T T T"
Pd       1.53403566       1.08472639       2.65702553       0.00003291       0.00001709       0.00003464
Pd       4.60209885       3.25417548       7.97107086       0.00000460      -0.00001001       0.00001982
As      -0.00000016       0.00000008       0.00000037       0.00000720      -0.00000486      -0.00001731
O        1.49157471       1.05470372       5.31404559      -0.00605071      -0.00427520      -0.00001475
O        4.64455642       3.28419838       5.31404545       0.00604093       0.00427699      -0.00001097
O        3.85631070       1.05470367       3.94876475       0.00300914      -0.00427485      -0.00525022
O        2.27982038       3.28419785       6.67932620      -0.00303549       0.00428796       0.00524485
O        2.27982025       3.28419685       3.94876425      -0.00302523       0.00426221      -0.00524640
O        3.85631081       1.05470334       6.67932695       0.00301778      -0.00427949       0.00523877
