9
Lattice="5.331512271370124 3.785874064039527e-08 3.078149961878394 1.7771707841064863 5.02659819870133 3.0781499769653506 -4.6795552395726845e-09 1.5168731267492103e-08 6.156299931861962" Properties=species:S:1:pos:R:3:forces:R:3 energy=-31.927574157714844 free_energy=-31.927574157714844 stress="0.00010450975241838023 -4.087749516656913e-08 7.408976898659603e-08 -4.087749516656913e-08 0.00010464476508786902 -6.200220781238386e-09 7.408976898659603e-08 -6.200220781238386e-09 0.0001046012039296329" pbc="T T T"
Pd       1.77717232       1.25665340       3.07815506       0.00002469       0.00005008       0.00007237
Pd       5.33151601       3.76994518       9.23446067       0.00005158      -0.00004646       0.00015474
As       0.00000039      -0.00000004       0.00000176       0.00000361       0.00000237      -0.00000098
S        1.88512587       1.33298932       6.15629796      -0.00273710      -0.00187832      -0.00002314
S        5.22355622       3.69361062       6.15629390       0.00272238       0.00189722      -0.00008977
S        4.38894669       1.33298943       4.71071489       0.00133610      -0.00186616      -0.00239182
S        2.71972971       3.69361012       7.60187936      -0.00143301       0.00190079       0.00232410
S        2.71973562       3.69360959       4.71071636      -0.00133952       0.00188082      -0.00237584
S        4.38894926       1.33298536       7.60187911       0.00137135      -0.00194013       0.00233036
