9
Lattice="5.511116203468369 -2.8368358703631396e-08 3.18184469852788 1.8370387465886386 5.195930183579057 3.1818446312460074 2.9660854518722446e-09 -8.030574887223984e-08 6.363689391918263" Properties=species:S:1:pos:R:3:forces:R:3 energy=-33.356178283691406 free_energy=-33.356178283691406 stress="1.0935417776636314e-05 -2.914323182778844e-08 2.3281110372863623e-08 -2.914323182778844e-08 1.0973481948894914e-05 8.431516818063756e-09 2.3281110372863623e-08 8.431516818063756e-09 1.0883914910664316e-05" pbc="T T T"
Pd       1.83703728       1.29898077       3.18184574      -0.00000637      -0.00000642       0.00000433
Pd       5.51111856       3.89694798       9.54553288       0.00000921       0.00000391      -0.00000396
As      -0.00000012      -0.00000013      -0.00000000      -0.00000024       0.00000289       0.00000013
Se       2.12271994       1.50098933       6.36368963       0.00030270       0.00021267      -0.00000193
Se       5.22543486       3.69494126       6.36369050      -0.00030410      -0.00021325       0.00000056
Se       4.44975640       1.50098928       5.02017448      -0.00015074       0.00021385       0.00026363
Se       2.89839775       3.69494117       7.70720364       0.00014761      -0.00021203      -0.00026347
Se       2.89839798       3.69494102       5.02017433       0.00014967      -0.00021379       0.00026406
Se       4.44975714       1.50098963       7.70720371      -0.00014766       0.00021224      -0.00026318
