9
Lattice="5.331536503006478 -7.855683090401795e-08 3.078163871913557 1.7771787910810106 5.0266206615999804 3.078163818549743 -3.5233601545715425e-09 -6.784844220227494e-08 6.156327749929739" Properties=species:S:1:pos:R:3:forces:R:3 energy=-31.927566528320312 free_energy=-31.927566528320312 stress="8.897626685211435e-05 -4.379901952233922e-08 -2.4887629734848815e-08 -4.379901952233922e-08 8.89859365997836e-05 -3.164755213447279e-08 -2.4887629734848815e-08 -3.164755213447279e-08 8.898355736164376e-05" pbc="T T T"
Pd       1.77718048       1.25665611       3.07816644       0.00002037       0.00001861       0.00003823
Pd       5.33153621       3.76996428       9.23449273      -0.00000336      -0.00001994       0.00001350
As       0.00000012       0.00000014       0.00000010      -0.00000043      -0.00000063       0.00000579
S        1.88500593       1.33290057       6.15632766      -0.00011891      -0.00007898      -0.00000697
S        5.22370940       3.69371920       6.15632794       0.00012392       0.00007427       0.00000319
S        4.38903127       1.33290228       4.71062474       0.00003579      -0.00006425      -0.00013232
S        2.71968233       3.69372058       7.60202811      -0.00005758       0.00008821       0.00009757
S        2.71968148       3.69371841       4.71062585      -0.00006321       0.00006062      -0.00011879
S        4.38903393       1.33290049       7.60202801       0.00006410      -0.00007790       0.00010091
