9
Lattice="4.3225699729784886 -3.9893518984573275e-08 2.4956368760167558 1.4408566311994246 4.0753579830285585 2.4956368567011102 -1.0980647875137002e-07 -1.0130165675710989e-07 4.991273942223925" Properties=species:S:1:pos:R:3:forces:R:3 energy=-45.51013946533203 free_energy=-45.51013946533203 stress="-6.722873513353989e-05 5.623883936323182e-08 2.479808358657465e-07 5.623883936323182e-08 -6.70666922815144e-05 2.643616596742504e-07 2.479808358657465e-07 2.643616596742504e-07 -6.7069151555188e-05" pbc="T T T"
Pd       1.44085588       1.01883892       2.49563688      -0.00001486      -0.00000809      -0.00000787
Pd       4.32257186       3.05651790       7.48691150       0.00002579      -0.00000699       0.00001085
As      -0.00000012      -0.00000035      -0.00000042      -0.00000188      -0.00000268      -0.00000597
N        1.62855130       1.15156093       4.99127488      -0.00619555      -0.00435907       0.00001765
N        4.13487588       2.92379777       4.99127178       0.00620431       0.00437093      -0.00002602
N        3.50829521       1.15156047       3.90600480       0.00311758      -0.00436836      -0.00534147
N        2.25512957       2.92379866       6.07654350      -0.00313480       0.00438175       0.00535178
N        2.25513191       2.92379878       3.90600457      -0.00310099       0.00439072      -0.00534797
N        3.50829439       1.15155829       6.07654326       0.00310041      -0.00439832       0.00534895
