9
Lattice="4.603207568730676 -2.3625813969173195e-08 2.657663134214783 1.534402517219338 4.3399460538818735 2.657663105490905 -2.1041629843066751e-07 -1.839662395345406e-07 5.315326632881286" Properties=species:S:1:pos:R:3:forces:R:3 energy=-42.6924934387207 free_energy=-42.6924934387207 stress="0.0002593143726699054 -2.5712520823617524e-07 6.670435368505423e-07 -2.5712520823617524e-07 0.00025922516942955554 4.061697040924628e-07 6.670435368505423e-07 4.061697040924628e-07 0.0002585239999461919" pbc="T T T"
Pd       1.53439757       1.08498589       2.65765335      -0.00007211      -0.00000969      -0.00012784
Pd       4.60318911       3.25495256       7.97300814      -0.00025049      -0.00009374       0.00024827
As       0.00000044       0.00000010      -0.00000017       0.00000406       0.00000195      -0.00000724
O        1.49147034       1.05462657       5.31532906      -0.00095725      -0.00070930       0.00003587
O        4.64614366       3.28531804       5.31531881       0.00102019       0.00069964      -0.00009184
O        3.85747922       1.05463233       3.94931106       0.00057292      -0.00062799      -0.00088477
O        2.28013949       3.28531851       6.68134105      -0.00045514       0.00069857       0.00087094
O        2.28014581       3.28532072       3.94930888      -0.00037247       0.00072908      -0.00090694
O        3.85747375       1.05462885       6.68134113       0.00051165      -0.00068772       0.00086415
