9
Lattice="5.832102383816342 2.695430227066168e-08 3.3671656590854884 1.9440340992518328 5.498558791860569 3.36716575278896 -1.1905785263671228e-07 3.057620531232483e-08 6.734331524385242" Properties=species:S:1:pos:R:3:forces:R:3 energy=-31.56566619873047 free_energy=-31.56566619873047 stress="-1.0878149623749778e-05 -7.59985230303073e-09 2.4886064764473304e-08 -7.59985230303073e-09 -1.0843261406989768e-05 1.669726756858836e-08 2.4886064764473304e-08 1.669726756858836e-08 -1.0803621080412995e-05" pbc="T T T"
Pd       1.94403473       1.37463795       3.36716641       0.00000306      -0.00000505       0.00000303
Pd       5.83210077       4.12391856      10.10149534      -0.00000399      -0.00000134      -0.00000548
Bi       0.00000019       0.00000055       0.00000034       0.00000063      -0.00000114      -0.00000225
Se       2.33879469       1.65377753       6.73433108       0.00040442       0.00028412      -0.00000143
Se       5.43734224       3.84478320       6.73433203      -0.00041029      -0.00028758       0.00000304
Se       4.66270430       1.65377709       5.39262058      -0.00020303       0.00028874       0.00035365
Se       3.11343165       3.84478197       8.07604245       0.00020662      -0.00028385      -0.00034758
Se       3.11343125       3.84478124       5.39262096       0.00020379      -0.00028458       0.00034933
Se       4.66270562       1.65377730       8.07604259      -0.00020106       0.00029062      -0.00035246
