9
Lattice="4.226582565740774 -3.4817259095655304e-07 2.44021839417336 1.4088605332212585 3.984859779808077 2.4402183833747335 -6.451283158297966e-07 -4.694001035207752e-07 4.880437905741801" Properties=species:S:1:pos:R:3:forces:R:3 energy=-43.47026062011719 free_energy=-43.47026062011719 stress="-4.964129766449332e-05 -1.2141843797053298e-07 8.458500246888434e-07 -1.2141843797053298e-07 -4.940467624692246e-05 7.102119070623303e-07 8.458500246888434e-07 7.102119070623303e-07 -4.965869811712764e-05" pbc="T T T"
Pd       1.40884833       0.99622236       2.44021823      -0.00021545       0.00012401       0.00004117
Pd       4.22656659       2.98864553       7.32069153      -0.00025453       0.00003322       0.00055031
B       -0.00000262       0.00000047       0.00000247      -0.00003913       0.00001952       0.00004987
O        1.31938633       0.93294062       4.88043454       0.00800920       0.00556064      -0.00007318
O        4.31606452       3.05190952       4.88042242      -0.00787497      -0.00568956      -0.00020952
O        3.56689780       0.93295045       3.58283523      -0.00386482       0.00568599       0.00680709
O        2.06855164       3.05191300       6.17803502       0.00399476      -0.00562620      -0.00693297
O        2.06856364       3.05191384       3.58282973       0.00413978      -0.00564843       0.00675362
O        3.56689325       0.93293984       6.17802961      -0.00389501       0.00554007      -0.00698537
