9
Lattice="5.130722381733694 -2.642736192018372e-07 2.962223672257153 1.7102405880066558 4.837290801863637 2.9622235973372018 -2.6599920410084816e-07 -2.798476387721483e-07 5.924447805238407" Properties=species:S:1:pos:R:3:forces:R:3 energy=-36.22977066040039 free_energy=-36.22977066040039 stress="5.845192845299607e-06 1.5768544869843026e-07 2.690717337827664e-07 1.5768544869843026e-07 5.9059921113657765e-06 1.8342059604492533e-07 2.690717337827664e-07 1.8342059604492533e-07 6.020211458235281e-06" pbc="T T T"
Pd       1.71023454       1.20932413       2.96222210      -0.00005799       0.00001596      -0.00001449
Pd       5.13072280       3.62797221       8.88668010       0.00000747       0.00004548       0.00008498
B        0.00000034      -0.00000024       0.00000077       0.00000042      -0.00000178      -0.00000297
S        1.64606788       1.16394304       5.92444826       0.00211900       0.00147727       0.00000251
S        5.19489693       3.67334428       5.92444164      -0.00209707      -0.00150537      -0.00004290
S        4.30769172       1.16394370       4.38776016      -0.00103304       0.00148654       0.00183457
S        2.53327149       3.67334398       7.46113448       0.00104016      -0.00150543      -0.00183952
S        2.53327496       3.67334781       4.38775952       0.00106606      -0.00148481       0.00182748
S        4.30768994       1.16394207       7.46113340      -0.00104550       0.00147161      -0.00185001
