9
Lattice="5.371915995045703 -3.3755892558346793e-07 3.1014770731004417 1.79063850314048 5.0646904271017394 3.1014768022443158 -1.686546242016245e-07 -4.50986495994144e-07 6.202954438319225" Properties=species:S:1:pos:R:3:forces:R:3 energy=-35.22676467895508 free_energy=-35.22676467895508 stress="-0.0004841600020881742 6.218070947028309e-09 5.857210183535244e-08 6.218070947028309e-09 -0.00048420022358186543 -2.0426366376113947e-08 5.857210183535244e-08 -2.0426366376113947e-08 -0.00048418433289043605" pbc="T T T"
Pd       1.79063805       1.26617304       3.10147752      -0.00000367       0.00000422       0.00000264
Pd       5.37191629       3.79851766       9.30443067       0.00000452       0.00000222      -0.00000334
B        0.00000018      -0.00000004      -0.00000006       0.00000164       0.00000177      -0.00000327
Se       1.69331246       1.19735218       6.20295456       0.00637881       0.00450915       0.00000125
Se       5.46924269       3.86733676       6.20295466      -0.00637606      -0.00451431       0.00000242
Se       4.52525964       1.19735172       4.56792839      -0.00319289       0.00451143       0.00552724
Se       2.63729432       3.86733780       7.83797941       0.00318860      -0.00451018      -0.00552694
Se       2.63729387       3.86733735       4.56792834       0.00318538      -0.00451273       0.00552365
Se       4.52525980       1.19735204       7.83797979      -0.00318623       0.00450827      -0.00552340
