9
Lattice="5.562712048391241 -6.514892602745093e-08 3.2116333206264756 1.8542372898378976 5.244575068478742 3.2116333175136984 -1.533289904227851e-08 -1.4654351697412847e-08 6.423266667810295" Properties=species:S:1:pos:R:3:forces:R:3 energy=-29.91682243347168 free_energy=-29.91682243347168 stress="0.00020366872195154428 -5.961646731833525e-09 -2.8987244604650186e-08 -5.961646731833525e-09 0.00020376623433548957 1.9030874653935825e-08 -2.8987244604650186e-08 1.9030874653935825e-08 0.0002036350197158754" pbc="T T T"
Pd       1.85424061       1.31113993       3.21163041       0.00003357      -0.00003761      -0.00002671
Pd       5.56271383       3.93343276       9.63489841       0.00001416       0.00001406      -0.00001476
Bi      -0.00000016      -0.00000003       0.00000031      -0.00000205       0.00000471      -0.00000931
S        1.99002678       1.40716220       6.42326697      -0.00637055      -0.00450366       0.00000926
S        5.42692043       3.83741552       6.42326647       0.00635384       0.00452923       0.00000302
S        4.56769807       1.40716044       4.93504838       0.00317997      -0.00451763      -0.00550859
S        2.84925143       3.83741361       7.91148637      -0.00318164       0.00450831       0.00551969
S        2.84925057       3.83741478       4.93504880      -0.00318820       0.00451628      -0.00550092
S        4.56769572       1.40716075       7.91148707       0.00316087      -0.00451369       0.00552836
