9
Lattice="5.2397122642374265 8.141916074354469e-08 3.025149116146624 1.746570838796754 4.940047922296992 3.0251491035230407 2.2996908538895217e-08 8.006301054980037e-10 6.050298192461472" Properties=species:S:1:pos:R:3:forces:R:3 energy=-30.315940856933594 free_energy=-30.315940856933594 stress="-1.8648912373464555e-05 3.697591788309751e-09 -8.434076548269331e-09 3.697591788309751e-09 -1.8576354705146514e-05 -2.0672523248776997e-08 -8.434076548269331e-09 -2.0672523248776997e-08 -1.8640852431417443e-05" pbc="T T T"
Pd       1.74656953       1.23501406       3.02514755      -0.00001445       0.00002293      -0.00002074
Pd       5.23971255       3.70503461       9.07544883       0.00000270      -0.00001598       0.00002133
Ga      -0.00000014       0.00000014      -0.00000005       0.00000281      -0.00000305       0.00000600
S        1.85283577       1.31015211       6.05029906       0.00022386       0.00015965       0.00001449
S        5.13344796       3.62989510       6.05029673      -0.00021879      -0.00016675      -0.00001864
S        4.31329595       1.31015385       4.62975153      -0.00009258       0.00017139       0.00019436
S        2.67298713       3.62989429       7.47084532       0.00009745      -0.00017735      -0.00019341
S        2.67298822       3.62989482       4.62975167       0.00010907      -0.00015990       0.00019114
S        4.31329554       1.31015303       7.47084500      -0.00011019       0.00016916      -0.00019451
