9
Lattice="4.560031572065498 1.2550744261653267e-06 2.632734484595505 1.5200120161093256 4.2992392659427185 2.6327339497528293 -5.467708756399835e-07 -1.0416712117979118e-06 5.265469916225273" Properties=species:S:1:pos:R:3:forces:R:3 energy=-38.516502380371094 free_energy=-38.516502380371094 stress="-3.0220451662898995e-05 -3.287658500994439e-07 2.879341707284766e-07 -3.287658500994439e-07 -3.345755612826906e-05 6.935063083801651e-07 2.879341707284766e-07 6.935063083801651e-07 -3.40315091307275e-05" pbc="T T T"
Pd       1.51998727       1.07483879       2.63271114      -0.00027921       0.00042427      -0.00039685
Pd       4.56011609       3.22440943       7.89814581       0.00117297      -0.00026006      -0.00077486
Ga       0.00000402       0.00000357      -0.00000472       0.00002536       0.00000306      -0.00001023
O        1.55244430       1.09778652       5.26548233      -0.00047368       0.00020522       0.00013907
O        4.52759021       3.20146987       5.26550916       0.00027734      -0.00008547       0.00046778
O        3.78381388       1.09775064       3.97721891       0.00019372      -0.00025520       0.00009829
O        2.29621552       3.20146909       6.55373340      -0.00040075      -0.00004140       0.00012565
O        2.29620818       3.20148417       3.97721873      -0.00058839       0.00008136       0.00018299
O        3.78379192       1.09774546       6.55373631       0.00007287      -0.00007221       0.00016749
