9
Lattice="4.559540737392664 4.8081957605122365e-08 2.6324521668862384 1.5198468857709055 4.298776629843796 2.6324522916379482 2.2543656630692602e-08 1.687297459017702e-07 5.264904294725688" Properties=species:S:1:pos:R:3:forces:R:3 energy=-38.516502380371094 free_energy=-38.516502380371094 stress="-0.00019916654855478555 -6.824182463560646e-08 -3.781585178330715e-08 -6.824182463560646e-08 -0.00019937913748435676 -8.110423266316502e-08 -3.781585178330715e-08 -8.110423266316502e-08 -0.00019914434233214706" pbc="T T T"
Pd       1.51984620       1.07469769       2.63245317      -0.00000755       0.00004953       0.00001438
Pd       4.55954038       3.22408005       7.89736061      -0.00000711      -0.00003441       0.00005492
Ga       0.00000006      -0.00000023       0.00000015       0.00000026       0.00000697      -0.00000053
O        1.55242624       1.09773263       5.26490385      -0.00101155      -0.00070050      -0.00000750
O        4.52696175       3.20104421       5.26490290       0.00101000       0.00069150      -0.00002454
O        3.78332811       1.09773314       3.97689218       0.00051180      -0.00068837      -0.00088453
O        2.29605948       3.20104444       6.55291536      -0.00051284       0.00069764       0.00086808
O        2.29606082       3.20104368       3.97689185      -0.00049162       0.00068948      -0.00088632
O        3.78332764       1.09773172       6.55291492       0.00050876      -0.00071144       0.00086582
