9
Lattice="5.239873396427378 -6.449203511011841e-08 3.0252421785308217 1.7466243598321505 4.940199912083295 3.0252422561958827 -2.358179142033323e-08 7.844505973264538e-08 6.050484397906521" Properties=species:S:1:pos:R:3:forces:R:3 energy=-30.315948486328125 free_energy=-30.315948486328125 stress="5.2601815696107224e-05 2.9015948754818055e-08 -5.8657601442746454e-08 2.9015948754818055e-08 5.2718874940183014e-05 4.930846397854793e-09 -5.8657601442746454e-08 4.930846397854793e-09 5.2804145525442436e-05" pbc="T T T"
Pd       1.74662505       1.23505015       3.02524275       0.00000780       0.00000221       0.00000867
Pd       5.23987354       3.70514882       9.07572858       0.00000131      -0.00001457       0.00002271
Ga      -0.00000016      -0.00000051       0.00000059       0.00000190       0.00000728      -0.00000651
S        1.85315664       1.31038020       6.05048428      -0.00505576      -0.00357032      -0.00000054
S        5.13334136       3.62982007       6.05048347       0.00505070       0.00356819      -0.00001138
S        4.31329457       1.31038064       4.63012201       0.00252090      -0.00356179      -0.00438780
S        2.67320229       3.62981997       7.47084545      -0.00253579       0.00357004       0.00437215
S        2.67320292       3.62982014       4.63012260      -0.00251850       0.00356881      -0.00437664
S        4.31329471       1.31038022       7.47084558       0.00252734      -0.00357012       0.00437946
