9
Lattice="5.23861006149106 -7.8807268587206e-08 3.024513491986239 1.7462032909646243 4.939008982094598 3.0245134721811278 -2.3116175682388588e-08 -4.0601800887727683e-08 6.049027024010891" Properties=species:S:1:pos:R:3:forces:R:3 energy=-38.89109802246094 free_energy=-38.89109802246094 stress="4.411587360664271e-05 -2.067988624787631e-08 1.4181906315968718e-08 -2.067988624787631e-08 4.4105581764597446e-05 1.7637093563394046e-08 1.4181906315968718e-08 1.7637093563394046e-08 4.393997369334102e-05" pbc="T T T"
Pd       1.74620116       1.23475169       3.02451460      -0.00002075      -0.00000413       0.00001064
Pd       5.23861091       3.70425665       9.07354073       0.00000390      -0.00000239       0.00000379
Ir      -0.00000022       0.00000006       0.00000033      -0.00000134      -0.00000031       0.00000351
S        1.85124664       1.30902904       6.04902657       0.00137192       0.00097138      -0.00000549
S        5.13356680       3.62997978       6.04902696      -0.00136751      -0.00096989      -0.00000118
S        4.31298761       1.30902893       4.62774039      -0.00067690       0.00097024       0.00118774
S        2.67182648       3.62998058       7.47031286       0.00068507      -0.00096244      -0.00119299
S        2.67182601       3.62997981       4.62774039       0.00068143      -0.00097001       0.00118732
S        4.31298785       1.30902890       7.47031322      -0.00067538       0.00096732      -0.00119334
