9
Lattice="4.598551535878778 2.4205567370615348e-08 2.6549749266477742 1.532850555445801 4.33555599093794 2.6549748908550366 -7.016403178178326e-08 -9.345047974994456e-08 5.309949974823204" Properties=species:S:1:pos:R:3:forces:R:3 energy=-44.916744232177734 free_energy=-44.916744232177734 stress="-6.444740574806929e-05 2.4602282877594916e-08 -1.1961716950281698e-08 2.4602282877594916e-08 -6.43877501715906e-05 -9.223248831347064e-09 -1.1961716950281698e-08 -9.223248831347064e-09 -6.452264642575756e-05" pbc="T T T"
Pd       1.53285019       1.08388737       2.65497553      -0.00000384      -0.00001888       0.00000599
Pd       4.59855153       3.25166740       7.96492078       0.00000185       0.00000604      -0.00005307
Ir      -0.00000003       0.00000014      -0.00000003      -0.00000201      -0.00000558       0.00000113
O        1.54047444       1.08927851       5.30994985      -0.00009900      -0.00007793       0.00000037
O        4.59092725       3.24627792       5.30995160       0.00009966       0.00008666       0.00002019
O        3.82831513       1.08927832       3.98906545       0.00005190      -0.00008290      -0.00007686
O        2.30308771       3.24627709       6.63083535      -0.00004503       0.00007962       0.00009057
O        2.30308595       3.24627593       3.98906475      -0.00006316       0.00007321      -0.00008044
O        3.82831586       1.08928072       6.63083578       0.00005973      -0.00006043       0.00009266
