9
Lattice="5.476168743995455 -1.6407797844815375e-07 3.1616676635307965 1.8253894446135288 5.162981604020101 3.1616676323957384 -2.315307871690842e-08 -5.4504186381039766e-08 6.323335367163958" Properties=species:S:1:pos:R:3:forces:R:3 energy=-39.51100158691406 free_energy=-39.51100158691406 stress="-9.274591866414994e-05 -7.669767398965632e-08 3.528835179622547e-08 -7.669767398965632e-08 -9.267630230169743e-05 -5.284207738043278e-09 3.528835179622547e-08 -5.284207738043278e-09 -9.2655151092913e-05" pbc="T T T"
Pd       1.82539039       1.29074488       3.16166697       0.00000524      -0.00000246      -0.00000436
Pd       5.47616911       3.87223557       9.48500383       0.00000321      -0.00000257       0.00000332
Mo      -0.00000010      -0.00000009       0.00000009       0.00000298       0.00000155       0.00000158
Se       2.00130064       1.41513360       6.32333491       0.00401959       0.00284389      -0.00000112
Se       5.30025763       3.74784829       6.32333391      -0.00402388      -0.00284503      -0.00000616
Se       4.47551752       1.41513293       4.89484539      -0.00201000       0.00283821       0.00348160
Se       2.82603976       3.74784752       7.75182532       0.00200741      -0.00284240      -0.00347912
Se       2.82604027       3.74784856       4.89484612       0.00200771      -0.00283548       0.00347954
Se       4.47551746       1.41513426       7.75182613      -0.00201237       0.00284418      -0.00347522
