9
Lattice="4.575536645614228 1.2979814351256886e-07 2.641687224411415 1.5251790148484772 4.313857204177633 2.641687206047828 5.1416975344242295e-08 1.3866598205654539e-08 5.283374359765989" Properties=species:S:1:pos:R:3:forces:R:3 energy=-46.57823181152344 free_energy=-46.57823181152344 stress="-0.00032585588633082807 1.251532779633635e-07 -3.256204861301626e-09 1.251532779633635e-07 -0.0003258262004237622 -8.483282520899138e-09 -3.256204861301626e-09 -8.483282520899138e-09 -0.00032596653909422457" pbc="T T T"
Pd       1.52517870       1.07846479       2.64168687      -0.00000128       0.00000550      -0.00000304
Pd       4.57553776       3.23539311       7.92506143       0.00001108       0.00000030      -0.00000364
Mo       0.00000010      -0.00000015       0.00000006       0.00000145       0.00000294       0.00000170
O        1.58064776       1.11768724       5.28337435      -0.00184762      -0.00130284       0.00000121
O        4.52006772       3.19617023       5.28337450       0.00184292       0.00130123       0.00000008
O        3.78521282       1.11768647       4.01056837       0.00091740      -0.00130010      -0.00158852
O        2.31550243       3.19617033       6.55618072      -0.00092071       0.00129533       0.00158978
O        2.31550248       3.19617076       4.01056836      -0.00092167       0.00129682      -0.00158644
O        3.78521314       1.11768657       6.55618071       0.00091875      -0.00129926       0.00158978
