9
Lattice="2.6708563541389685 0.16879351726423605 0.8119031768178939 1.1805102098650406 2.912357408137841 0.44992683402656697 1.1551176082012375 0.6079131243183213 2.8733973040751852" Properties=species:S:1:pos:R:3:forces:R:3 energy=-748617152.0 free_energy=-748617152.0 stress="499692576.0 5282730.0 -30179490.0 5282730.0 445596512.0 19454766.0 -30179490.0 19454766.0 480051392.0" pbc="T T T"
Pd       1.47353101       3.00870079       0.20208618 -58990040.00000000 36068592.00000000 -97462840.00000000
Pd       4.49613835       4.11574357       1.21873066 886736000.00000000 -357011168.00000000 -958259584.00000000
N        0.03146892      -0.17315725      -1.51874072 148977024.00000000 -31267176.00000000 57523884.00000000
O        2.53435384       2.06671135       1.92140007 -74589432.00000000 -119163248.00000000 257927824.00000000
O        4.35126626       2.51985450       2.21215447 -72519976.00000000 -30817696.00000000 -222477472.00000000
O        3.38915046       2.15343725       1.30961874 126263008.00000000 -44720996.00000000 11829472.00000000
O        2.98390403       4.11110173       1.61345644 -158906608.00000000 206864464.00000000 49799992.00000000
O        3.51189093       1.20053543       0.45311629 -731134016.00000000 335635488.00000000 1098851584.00000000
O        3.36026627       2.29131105       2.30621206 -65836680.00000000 4411768.00000000 -197731648.00000000
