9
Lattice="4.383009978883458 -8.696996941303745e-07 2.5305309624392147 1.4610026469351727 4.132340714645785 2.5305307189102524 -5.610623441740257e-07 -6.949917328696633e-07 5.061062896666875" Properties=species:S:1:pos:R:3:forces:R:3 energy=-38.39161682128906 free_energy=-38.39161682128906 stress="-0.00029432380688376725 2.7916195222132956e-07 9.023813163366867e-07 2.7916195222132956e-07 -0.0002942604187410325 4.735481695661292e-07 9.023813163366867e-07 4.735481695661292e-07 -0.0002928608446381986" pbc="T T T"
Pd       1.46097998       1.03308109       2.53062662      -0.00024804      -0.00003140       0.00115239
Pd       4.38300120       3.09925738       7.59170723      -0.00010397       0.00002708       0.00132881
N        0.00000436      -0.00000064      -0.00005504       0.00004345       0.00000198      -0.00033633
O        1.31090995       0.92694853       5.06101770       0.00426269       0.00297225      -0.00034707
O        4.53310752       3.20538567       5.06101248      -0.00417972      -0.00299668      -0.00038863
O        3.72754402       0.92697874       3.66579926      -0.00203562       0.00298941       0.00331867
O        2.11644094       3.20541594       6.45629918       0.00213230      -0.00294995      -0.00401092
O        2.11648119       3.20536362       3.66579476       0.00216770      -0.00296700       0.00329685
O        3.72757877       0.92692609       6.45629671      -0.00203812       0.00295603      -0.00401258
