9
Lattice="4.493858863364917 1.1700843514896636e-07 2.5945303559579664 1.4979529680728756 4.236850227305733 2.594530523444903 -2.1244006099249515e-07 5.491111564577466e-08 5.189061079872879" Properties=species:S:1:pos:R:3:forces:R:3 energy=-46.6419563293457 free_energy=-46.6419563293457 stress="-7.967801502672955e-05 -1.6595490137660818e-07 -1.604584838332812e-07 -1.6595490137660818e-07 -7.886988169047982e-05 1.1500041807721573e-08 -1.604584838332812e-07 1.1500041807721573e-08 -8.003171387827024e-05" pbc="T T T"
Pd       1.49795425       1.05921532       2.59452887       0.00002173       0.00003885      -0.00002490
Pd       4.49385696       3.17763390       7.78358886      -0.00002265      -0.00005816      -0.00003727
P        0.00000013      -0.00000028      -0.00000073      -0.00000655       0.00000109       0.00000829
O        1.38831433       0.98168841       5.18906243       0.00091743       0.00065577       0.00001385
O        4.60349657       3.25516245       5.18906220      -0.00091457      -0.00064921       0.00001501
O        3.79970128       0.98168881       3.79684583      -0.00045609       0.00065100       0.00079215
O        2.19211141       3.25516191       6.58127655       0.00046647      -0.00065577      -0.00078082
O        2.19210979       3.25516231       3.79684634       0.00045717      -0.00065172       0.00080121
O        3.79970072       0.98168904       6.58127703      -0.00046206       0.00066912      -0.00078702
