9
Lattice="5.431791057592279 -6.761679076356158e-08 3.1360460944713986 1.8105969847220826 5.121141409683909 3.136046043766713 1.1529461717088781e-07 1.942530044929517e-08 6.272091989246561" Properties=species:S:1:pos:R:3:forces:R:3 energy=-33.916908264160156 free_energy=-33.916908264160156 stress="-7.744638423901051e-05 -3.132189618781922e-08 -1.5034023803650598e-08 -3.132189618781922e-08 -7.742751040495932e-05 2.2370851837649752e-09 -1.5034023803650598e-08 2.2370851837649752e-09 -7.73924111854285e-05" pbc="T T T"
Pd       1.81059591       1.28028500       3.13604605      -0.00000683      -0.00000236      -0.00000061
Pd       5.43179175       3.84085684       9.40813973       0.00000437       0.00000535       0.00001354
P       -0.00000015       0.00000006       0.00000030       0.00000356       0.00000045      -0.00000731
Se       1.87459539       1.32553864       6.27209181       0.00376669       0.00266242      -0.00000042
Se       5.36779293       3.79560270       6.27209095      -0.00376868      -0.00266425      -0.00000778
Se       4.49449405       1.32553874       4.75949389      -0.00188088       0.00266394       0.00326601
Se       2.74789393       3.79560255       7.78469079       0.00187634      -0.00265974      -0.00326034
Se       2.74789512       3.79560274       4.75949290       0.00188579      -0.00266252       0.00326198
Se       4.49449374       1.32553814       7.78469021      -0.00188035       0.00265656      -0.00326514
