9
Lattice="5.2937384441931385 -1.0814580966532536e-07 3.056341184337831 1.764579371528702 4.990984094045687 3.056341198035167 -1.3421960045361833e-07 -7.813187700013967e-08 6.112682601150943" Properties=species:S:1:pos:R:3:forces:R:3 energy=-34.4846076965332 free_energy=-34.4846076965332 stress="-1.4993097465776373e-05 -5.4302823571106273e-08 1.4443938312069804e-07 -5.4302823571106273e-08 -1.4626850315835327e-05 4.7221085708315513e-08 1.4443938312069804e-07 4.7221085708315513e-08 -1.4867364370729774e-05" pbc="T T T"
Pd       1.76457930       1.24774904       3.05633913      -0.00000292       0.00004287      -0.00003111
Pd       5.29373717       3.74323416       9.16902732      -0.00001702      -0.00005407       0.00004836
P       -0.00000023      -0.00000013       0.00000005       0.00000307      -0.00000030      -0.00000117
S        1.76457580       1.24774591       6.11268331       0.00048077       0.00036627       0.00001247
S        5.29374201       3.74323815       6.11267868      -0.00047874      -0.00036979      -0.00004280
S        4.41145068       1.24774604       4.58450895      -0.00022870       0.00037497       0.00041586
S        2.64686819       3.74323739       7.64085670       0.00024056      -0.00037372      -0.00040460
S        2.64686852       3.74323940       4.58450980       0.00025350      -0.00034720       0.00041312
S        4.41144927       1.24774566       7.64085609      -0.00025040       0.00036073      -0.00040972
