9
Lattice="5.421735171840801 2.9035791070998455e-07 3.130240568825937 1.8072453549393501 5.111660788998692 3.1302405274177425 5.711339046216519e-08 -1.032918365217936e-08 6.26048103872851" Properties=species:S:1:pos:R:3:forces:R:3 energy=-38.22563171386719 free_energy=-38.22563171386719 stress="-0.0003035542613361031 -1.0621011625744359e-07 1.7571906596458575e-08 -1.0621011625744359e-07 -0.00030351843452081084 -1.4663886993560027e-08 1.7571906596458575e-08 -1.4663886993560027e-08 -0.00030365021666511893" pbc="T T T"
Pd       1.80724601       1.27791641       3.13024043       0.00000597       0.00000874      -0.00000039
Pd       5.42173274       3.83374571       9.39072197      -0.00001721      -0.00000263       0.00000406
Ru      -0.00000056      -0.00000032       0.00000011       0.00000268      -0.00000021      -0.00000000
Se       1.98791508       1.40566709       6.26048083      -0.00376256      -0.00266559      -0.00000019
Se       5.24106633       3.70599318       6.26048078       0.00376402       0.00266016      -0.00000161
Se       4.42777787       1.40566900       4.85182479       0.00188192      -0.00265889      -0.00326331
Se       2.80120346       3.70599204       7.66913775      -0.00187825       0.00265791       0.00326526
Se       2.80120361       3.70599229       4.85182435      -0.00187805       0.00266095      -0.00326745
Se       4.42777778       1.40566886       7.66913748       0.00188153      -0.00266050       0.00326371
