9
Lattice="5.451306340740666 5.767662206677135e-08 3.1473130370045945 1.817102143066875 5.139541096415411 3.1473130801177405 1.2884776651507689e-08 6.191356544912006e-08 6.294626051692122" Properties=species:S:1:pos:R:3:forces:R:3 energy=-36.475284576416016 free_energy=-36.475284576416016 stress="-3.024972465937026e-05 -1.542053951197886e-08 -2.197569592965465e-08 -1.542053951197886e-08 -3.0276018151198514e-05 -9.978518455966423e-09 -2.197569592965465e-08 -9.978518455966423e-09 -3.0221584893297404e-05" pbc="T T T"
Pd       1.81710225       1.28488487       3.14731273       0.00000069      -0.00000311      -0.00000036
Pd       5.45130685       3.85465747       9.44193626       0.00000280       0.00000886      -0.00001447
Rh      -0.00000006      -0.00000003       0.00000012      -0.00000111      -0.00000077       0.00000126
Se       2.02336613       1.43073537       6.29462583      -0.00057879      -0.00041281       0.00000037
Se       5.24504247       3.70880588       6.29462764       0.00057772       0.00041161       0.00000745
Se       4.43962302       1.43073499       4.89960052       0.00028978      -0.00041655      -0.00049877
Se       2.82878512       3.70880541       7.68965278      -0.00028870       0.00040989       0.00050244
Se       2.82878484       3.70880499       4.89959993      -0.00029194       0.00041184      -0.00050034
Se       4.43962336       1.43073599       7.68965286       0.00028948      -0.00040907       0.00050238
