9
Lattice="5.165731220189613 -7.811345588385231e-08 2.982436486987896 1.7219105146843368 4.870297583572788 2.982436172446627 2.0587047781371121e-07 -2.396604902580141e-07 5.964872617397675" Properties=species:S:1:pos:R:3:forces:R:3 energy=-39.368202209472656 free_energy=-39.368202209472656 stress="6.0504517023218796e-05 -2.238169827251113e-08 -2.815596644722973e-08 -2.238169827251113e-08 6.0464550188044086e-05 -2.196917137098353e-08 -2.815596644722973e-08 -2.196917137098353e-08 6.0411075537558645e-05" pbc="T T T"
Pd       1.72190867       1.21757825       2.98243666      -0.00001950       0.00005259       0.00000127
Pd       5.16572866       3.65272856       8.94730587      -0.00003208       0.00006535      -0.00003585
Ru      -0.00000065       0.00000590      -0.00000175      -0.00000379       0.00001310      -0.00000450
S        1.84202458       1.30250349       5.96487301       0.00238770       0.00164568       0.00000333
S        5.04561995       3.56778866       5.96487501      -0.00234997      -0.00169396       0.00002696
S        4.24471953       1.30250375       4.57767580      -0.00118816       0.00164431       0.00206536
S        2.64292360       3.56778864       7.35207163       0.00119853      -0.00169116      -0.00203097
S        2.64292258       3.56778776       4.57767456       0.00118479      -0.00169402       0.00203443
S        4.24472122       1.30250405       7.35207023      -0.00117755       0.00165820      -0.00206143
