9
Lattice="5.2309087615566305 4.041010526007818e-08 3.0200663549701483 1.743636298589176 4.9317483646270945 3.0200663434729083 4.0187114039690407e-08 1.433533154220393e-08 6.040132640334271" Properties=species:S:1:pos:R:3:forces:R:3 energy=-37.61867904663086 free_energy=-37.61867904663086 stress="7.664060103707016e-05 2.4703019629868095e-09 -1.0253677906746361e-08 2.4703019629868095e-09 7.656781235709786e-05 2.430090795257911e-08 -1.0253677906746361e-08 2.430090795257911e-08 7.674117659917101e-05" pbc="T T T"
Pd       1.74363546       1.23293562       3.02006652      -0.00000738      -0.00001579       0.00000159
Pd       5.23091005       3.69881164       9.06019850       0.00001016       0.00000251      -0.00000375
Rh      -0.00000010      -0.00000001       0.00000007      -0.00000050      -0.00000062       0.00000038
S        1.84519116       1.30474732       6.04013257      -0.00177473      -0.00125206      -0.00000103
S        5.12935325       3.62700175       6.04013284       0.00177264       0.00126082       0.00000099
S        4.30831317       1.30474688       4.61804939       0.00088951      -0.00125897      -0.00153232
S        2.66623216       3.62700184       7.46221580      -0.00088841       0.00126135       0.00153357
S        2.66623165       3.62700145       4.61804959      -0.00089097       0.00125992      -0.00153261
S        4.30831356       1.30474726       7.46221597       0.00088987      -0.00125736       0.00153285
