9
Lattice="4.617737472908382 3.3082961908854894e-08 2.6660519000040126 1.5392458138714302 4.353644537890406 2.666051972095884 -2.4946981553762452e-08 7.065402023430469e-08 5.332103843217417" Properties=species:S:1:pos:R:3:forces:R:3 energy=-46.453094482421875 free_energy=-46.453094482421875 stress="-2.36178093473427e-05 -1.1710411307319646e-08 -7.483109953909661e-08 -1.1710411307319646e-08 -2.3595968741574325e-05 5.489264864877441e-08 -7.483109953909661e-08 5.489264864877441e-08 -2.359667996643111e-05" pbc="T T T"
Pd       1.53924794       1.08840944       2.66605218       0.00002620      -0.00002242       0.00000646
Pd       4.61773872       3.26523506       7.99816091       0.00001695       0.00001419       0.00006093
Ru       0.00000083      -0.00000018       0.00000138       0.00000443      -0.00000523       0.00000087
O        1.53621914       1.08627142       5.33210335      -0.00250202      -0.00176927      -0.00000932
O        4.62076292       3.26737406       5.33210112       0.00249785       0.00178573      -0.00003246
O        3.84962668       1.08627165       3.99645619       0.00123921      -0.00176379      -0.00218004
O        2.30735458       3.26737323       6.66774856      -0.00127578       0.00178450       0.00216001
O        2.30735603       3.26737344       3.99645717      -0.00124627       0.00177181      -0.00217324
O        3.84962608       1.08627041       6.66774953       0.00123882      -0.00179583       0.00216579
