9
Lattice="4.557906627659056 -5.658545303371311e-09 2.6315086182763965 1.5193022056777632 4.29723560107104 2.631508615170806 -4.172024829587612e-09 -6.753627215436227e-09 5.263017243778934" Properties=species:S:1:pos:R:3:forces:R:3 energy=-42.49755096435547 free_energy=-42.49755096435547 stress="-0.00024860037956386805 6.422390441684911e-08 -3.2475398370479525e-08 6.422390441684911e-08 -0.00024866455351002514 -6.79250504731499e-08 -3.2475398370479525e-08 -6.79250504731499e-08 -0.0002486517187207937" pbc="T T T"
Pd       1.51930207       1.07431021       2.63150750      -0.00000249       0.00001639      -0.00001507
Pd       4.55790708       3.22292626       7.89452688       0.00000523      -0.00000552       0.00001282
Rh       0.00000015       0.00000008       0.00000001      -0.00000437       0.00000282       0.00000218
O        1.58094475       1.11789715       5.26301761      -0.00064406      -0.00045156       0.00000731
O        4.49626424       3.17933797       5.26301651       0.00064975       0.00044769      -0.00000741
O        3.76743456       1.11789693       4.00064708       0.00032768      -0.00045097      -0.00055546
O        2.30977403       3.17933811       6.52538775      -0.00032797       0.00044349       0.00055373
O        2.30977462       3.17933869       4.00064676      -0.00031906       0.00045133      -0.00055626
O        3.76743383       1.11789689       6.52538782       0.00031519      -0.00045362       0.00055826
