9
Lattice="4.667871132262662 -2.5107143120401333e-08 2.694996729034337 1.5559571187910852 4.400910716024942 2.694996558644233 1.1066766227178193e-07 -1.3043052985512436e-07 5.389993266386632" Properties=species:S:1:pos:R:3:forces:R:3 energy=-42.12142562866211 free_energy=-42.12142562866211 stress="-2.7649992262013257e-05 1.1833865443122704e-08 1.0300587049982823e-08 1.1833865443122704e-08 -2.7584306735661812e-05 -5.368215383327879e-08 1.0300587049982823e-08 -5.368215383327879e-08 -2.7589658202487044e-05" pbc="T T T"
Pd       1.55595662       1.10023032       2.69499660      -0.00000684       0.00003423       0.00000060
Pd       4.66787124       3.30068219       8.08498484      -0.00000273      -0.00000825      -0.00006256
Sb       0.00000008      -0.00000002       0.00000016       0.00000420      -0.00000650       0.00001356
O        1.62335996       1.14788916       5.38999340      -0.00014746      -0.00010008      -0.00000014
O        4.60046897       3.25302089       5.38999549       0.00015152       0.00009096       0.00002482
O        3.85619116       1.14788784       4.10086801       0.00006908      -0.00010842      -0.00011587
O        2.36763806       3.25302148       6.67912013      -0.00006145       0.00009388       0.00013590
O        2.36763622       3.25302070       4.10086794      -0.00008500       0.00009483      -0.00012743
O        3.85619160       1.14788963       6.67911974       0.00007850      -0.00009125       0.00013125
