9
Lattice="5.509826441871902 2.511683697188102e-07 3.1810997635389135 1.8366091298473084 5.194714349768246 3.1810996265575677 7.639592571853214e-09 -1.623651658028753e-07 6.36219951384562" Properties=species:S:1:pos:R:3:forces:R:3 energy=-30.476192474365234 free_energy=-30.476192474365234 stress="2.1421315977931954e-05 3.9753711433831995e-09 7.49854294213037e-08 3.9753711433831995e-09 2.1224637748673558e-05 -1.130927707038154e-08 7.49854294213037e-08 -1.130927707038154e-08 2.123128615494352e-05" pbc="T T T"
Pd       1.83661290       1.29868309       3.18109848       0.00005555       0.00005423      -0.00001672
Pd       5.50982315       3.89603619       9.54330300      -0.00004508       0.00000416       0.00004894
Sb       0.00000016       0.00000018       0.00000001      -0.00000290       0.00000115       0.00001062
S        1.98054143       1.40045164       6.36219735      -0.00321648      -0.00230125      -0.00001036
S        5.36589585       3.79426071       6.36219562       0.00323606       0.00228012      -0.00004271
S        4.51955757       1.40045404       4.89629700       0.00161447      -0.00226671      -0.00280884
S        2.82687813       3.79425870       7.82810450      -0.00161132       0.00224170       0.00282320
S        2.82688102       3.79426003       4.89629551      -0.00159186       0.00226539      -0.00282606
S        4.51955200       1.40045309       7.82810394       0.00156185      -0.00227901       0.00282198
