9
Lattice="4.633738571966033 3.8637994921198735e-09 2.675290172443679 1.5445795527251915 4.368730396785093 2.6752901289801208 3.967154974530362e-08 -2.5179734237172315e-08 5.350580276174202" Properties=species:S:1:pos:R:3:forces:R:3 energy=-54.26594924926758 free_energy=-54.26594924926758 stress="-8.185523620340973e-05 -5.903859445766102e-08 -8.784658689364733e-08 -5.903859445766102e-08 -8.164206519722939e-05 -4.6687361532349314e-08 -8.784658689364733e-08 -4.6687361532349314e-08 -8.156288095051423e-05" pbc="T T T"
Pd       1.54457932       1.09218295       2.67529019      -0.00000438       0.00000595      -0.00000066
Pd       4.63373849       3.27654670       8.02587115      -0.00000039      -0.00001442       0.00000855
Ta      -0.00000001      -0.00000018      -0.00000018      -0.00000030       0.00000182       0.00000093
O        1.61226428       1.14004345       5.35058014      -0.00263935      -0.00185931      -0.00000012
O        4.56605388       3.22868751       5.35058026       0.00263387       0.00186306      -0.00000286
O        3.82760671       1.14004358       4.07155214       0.00132486      -0.00185984      -0.00228751
O        2.35071160       3.22868712       6.62960846      -0.00131917       0.00186324       0.00228226
O        2.35071181       3.22868706       4.07155178      -0.00131598       0.00186372      -0.00228584
O        3.82760648       1.14004339       6.62960836       0.00132179      -0.00186384       0.00228590
