9
Lattice="5.31894313248297 7.507728791807699e-09 3.070893274930861 1.7729810973902187 5.014747505593856 3.0708931949951714 2.1408646826531929e-07 5.348115469398689e-08 6.141786179053071" Properties=species:S:1:pos:R:3:forces:R:3 energy=-43.51628112792969 free_energy=-43.51628112792969 stress="-0.00019755310495384037 8.711992194321283e-08 -1.125206026131309e-07 8.711992194321283e-08 -0.0001976879284484312 -8.693101705148365e-08 -1.125206026131309e-07 -8.693101705148365e-08 -0.00019769211940001696" pbc="T T T"
Pd       1.77298114       1.25368624       3.07089237      -0.00000032      -0.00000723      -0.00000609
Pd       5.31894240       3.76106046       9.21267582      -0.00000741      -0.00000173      -0.00003520
Ta      -0.00000004      -0.00000017      -0.00000008      -0.00000057       0.00000158       0.00000251
S        1.91878217       1.35678350       6.14178617       0.00130746       0.00092444      -0.00000386
S        5.17314195       3.65796473       6.14178825      -0.00131053      -0.00091803       0.00001668
S        4.35955241       1.35678287       4.73260749      -0.00065798       0.00092348       0.00114110
S        2.73237376       3.65796429       7.55096663       0.00066981      -0.00092365      -0.00112832
S        2.73237115       3.65796418       4.73260750       0.00065118      -0.00093035       0.00114268
S        4.35955292       1.35678418       7.55096637      -0.00065182       0.00093125      -0.00112936
