9
Lattice="4.514604542037643 4.504149221423955e-08 2.606508030601666 1.5048681689861705 4.256410152267399 2.6065081244070516 1.1047305998364228e-08 1.2269930520893314e-07 5.213016042068823" Properties=species:S:1:pos:R:3:forces:R:3 energy=-43.35741424560547 free_energy=-43.35741424560547 stress="-7.821594044798985e-05 1.4405658532723464e-07 -2.106510343935497e-08 1.4405658532723464e-07 -7.84722578828223e-05 -4.1474326195611866e-08 -2.106510343935497e-08 -4.1474326195611866e-08 -7.850427937228233e-05" pbc="T T T"
Pt       1.50486943       1.06410385       2.60650869       0.00002824       0.00001961       0.00001157
Pt       4.51460483       3.19230628       7.81952172       0.00001477      -0.00002429      -0.00004931
As       0.00000194       0.00000180      -0.00000014      -0.00010999      -0.00009659       0.00001478
O        1.47009126       1.03951216       5.21301605      -0.00773644      -0.00546139       0.00000638
O        4.54937865       3.21689690       5.21301813       0.00786030       0.00556165       0.00001777
O        3.77955782       1.03951233       3.87964502       0.00388491      -0.00551063      -0.00674701
O        2.23991447       3.21689833       6.54638694      -0.00390464       0.00550342       0.00674999
O        2.23991348       3.21689683       3.87964515      -0.00391883       0.00550056      -0.00675559
O        3.77955867       1.03951330       6.54638761       0.00388199      -0.00549316       0.00675118
