9
Lattice="4.484797711081503 -0.9877134767494259 0.5588835214655379 0.37929221288786574 2.174458211585132 1.3880926387530892 -0.20634430281655794 0.5099359248855784 1.7805450433603172" Properties=species:S:1:pos:R:3:forces:R:3 energy=-20543393792.0 free_energy=-20543393792.0 stress="9963292672.0 2833436416.0 -2410396928.0 2833436416.0 0.0 1659304320.0 -2410396928.0 1659304320.0 0.0" pbc="T T T"
Pt       1.68239832      -3.19891294      -1.48147211 41927090176.00000000 -7861056512.00000000 8773365760.00000000
Pt       2.25007909      -0.59743362       1.01609134 3219834880.00000000 -9268995072.00000000 34073878528.00000000
As       1.75717656      -3.14588093      -1.86521435 -17990617088.00000000 -18338410496.00000000 -60340568064.00000000
N        3.16022054      -1.66068801       0.35017720 -19765108736.00000000 3650981632.00000000 674900096.00000000
N        3.19901419      -3.17067456      -1.24039511 -31179014144.00000000 15223655424.00000000 -7055421440.00000000
N        2.00029408      -1.11317526      -0.60244499 20470767616.00000000 22856505344.00000000 14781843456.00000000
N        0.89879966       0.40680841       1.25692852 30884544512.00000000 -3078212096.00000000 5367639040.00000000
N        1.26970197      -0.64501530       0.35306542 -8228851712.00000000 -1096203520.00000000 -6938953728.00000000
N        2.02489627      -1.11558910       0.83185669 -19338682368.00000000 -2088297472.00000000 10663331840.00000000
