9
Lattice="5.468550157258936 7.499400874575955e-08 3.1572689126968583 1.8228501338788718 5.155798906241019 3.157268894069994 1.924852896250898e-08 -9.202356753867859e-09 6.314537792054288" Properties=species:S:1:pos:R:3:forces:R:3 energy=-34.72956848144531 free_energy=-34.72956848144531 stress="-7.952604937599972e-05 -2.6141703912685443e-08 8.923144889649848e-09 -2.6141703912685443e-08 -7.953229214763269e-05 -5.219829568581247e-10 8.923144889649848e-09 -5.219829568581247e-10 -7.948247366584837e-05" pbc="T T T"
Pt       1.82285013       1.28895004       3.15726837      -0.00000066       0.00000054       0.00000038
Pt       5.46854920       3.86684510       9.47180719      -0.00000307      -0.00001144       0.00000263
As      -0.00000011       0.00000011       0.00000017       0.00000104       0.00000218      -0.00000276
Se       2.11195837       1.49338151       6.31453764      -0.00432205      -0.00305411       0.00000010
Se       5.17944188       3.66241874       6.31453743       0.00432220       0.00305912      -0.00000039
Se       4.41257121       1.49338133       4.98627849       0.00216240      -0.00305599      -0.00374663
Se       2.87882963       3.66241868       7.64279723      -0.00216068       0.00305796       0.00374296
Se       2.87882980       3.66241888       4.98627861      -0.00216103       0.00305906      -0.00374290
Se       4.41257108       1.49338149       7.64279721       0.00216188      -0.00305730       0.00374672
