9
Lattice="4.9998798725310705 -5.912010110694536e-08 2.8866820082152977 1.6666265057958873 4.7139324810208 2.886682116714685 -9.826391442855016e-08 6.340101631802584e-08 5.773364186628665" Properties=species:S:1:pos:R:3:forces:R:3 energy=-34.01824188232422 free_energy=-34.01824188232422 stress="1.6997391867334954e-05 6.873387548012033e-08 1.5707135148090856e-08 6.873387548012033e-08 1.64897610375192e-05 -1.80014723127897e-08 1.5707135148090856e-08 -1.80014723127897e-08 1.6889074686332606e-05" pbc="T T T"
Pt       1.66663309       1.17848442       2.88668520       0.00007155       0.00001284       0.00001640
Pt       4.99988490       3.53545025       8.66004391       0.00006240       0.00001110      -0.00001526
As       0.00000202       0.00000016      -0.00000062       0.00003206       0.00000594      -0.00000187
S        1.82417363       1.28988890       5.77336252      -0.00000688       0.00002782      -0.00001649
S        4.84233020       3.42404531       5.77336532      -0.00003622      -0.00001748       0.00000986
S        4.08778732       1.28988451       4.46646420      -0.00005568      -0.00000886       0.00001284
S        2.57871360       3.42404566       7.08026342      -0.00000180      -0.00001516      -0.00001851
S        2.57871208       3.42404457       4.46646440      -0.00001726      -0.00002543       0.00002250
S        4.08778823       1.28988613       7.08026498      -0.00004830       0.00000927      -0.00000943
