9
Lattice="5.367554673805778 2.8767175809244013e-08 3.0989590274031276 1.7891849504467454 5.060579056403686 3.098958971880187 7.118214417090175e-08 -1.766808153876591e-08 6.197917931515164" Properties=species:S:1:pos:R:3:forces:R:3 energy=-36.021087646484375 free_energy=-36.021087646484375 stress="-1.3023848623561207e-05 -1.61207776017136e-08 3.824041527877853e-08 -1.61207776017136e-08 -1.311795767833246e-05 1.558361972797684e-08 3.824041527877853e-08 1.558361972797684e-08 -1.2956085811310913e-05" pbc="T T T"
Pt       1.78918406       1.26514533       3.09895968      -0.00000866       0.00000353       0.00000515
Pt       5.36755402       3.79543220       9.29687676      -0.00000697      -0.00001909      -0.00000050
B       -0.00000009      -0.00000015       0.00000022      -0.00000236      -0.00000077      -0.00000293
Se       1.66591979       1.17798371       6.19791788       0.00035277       0.00025690      -0.00000188
Se       5.49081996       3.88259517       6.19791797      -0.00035594      -0.00025600      -0.00000030
Se       4.53459482       1.17798436       4.54168756      -0.00017425       0.00025985       0.00030297
Se       2.62214562       3.88259532       7.85414784       0.00018141      -0.00024967      -0.00030726
Se       2.62214521       3.88259562       4.54168788       0.00018121      -0.00025314       0.00030765
Se       4.53459545       1.17798466       7.85414798      -0.00016730       0.00025827      -0.00030299
