9
Lattice="3.954242301415198 7.08814536496159e-07 2.2829829758167777 1.3180809235398836 3.7280984075136474 2.282983862411053 -5.309144539275952e-07 7.104383461379919e-07 4.5659668712043615" Properties=species:S:1:pos:R:3:forces:R:3 energy=-46.69123840332031 free_energy=-46.69123840332031 stress="-2.9741820981143974e-05 1.3706173085381579e-08 -4.2146957923705486e-08 1.3706173085381579e-08 -2.9036547857685946e-05 -7.195182405439482e-08 -4.2146957923705486e-08 -7.195182405439482e-08 -2.986601430166047e-05" pbc="T T T"
Pt       1.31808076       0.93202635       2.28298286       0.00000921       0.00002510      -0.00000582
Pt       3.95424371       2.79607757       6.84895048       0.00001107       0.00002587      -0.00000903
B        0.00000047       0.00000212      -0.00000082       0.00000392      -0.00002246       0.00000592
O        1.26441302       0.89407723       4.56596861       0.00238061       0.00170052       0.00000467
O        4.00790887       2.83402129       4.56596591      -0.00235713      -0.00171608      -0.00000203
O        3.32203302       0.89407402       3.37799888      -0.00120991       0.00168735       0.00208062
O        1.95028824       2.83402331       5.75393542       0.00118554      -0.00169200      -0.00205147
O        1.95028781       2.83402255       3.37799932       0.00117356      -0.00169808       0.00204927
O        3.32203319       0.89407552       5.75393485      -0.00119793       0.00168896      -0.00207263
