9
Lattice="5.658687008472015 -8.197591553882672e-08 3.2670445230827774 1.886228956514112 5.3350615289790415 3.267044469427766 -1.35816273556107e-07 -1.6175030378376363e-07 6.534089281406258" Properties=species:S:1:pos:R:3:forces:R:3 energy=-32.26518249511719 free_energy=-32.26518249511719 stress="6.390512135112658e-05 -1.9430657971497567e-08 1.7803071017397087e-08 -1.9430657971497567e-08 6.380132981576025e-05 4.08903204629496e-08 1.7803071017397087e-08 4.08903204629496e-08 6.382569699781016e-05" pbc="T T T"
Pt       1.88622651       1.33376796       3.26704586      -0.00000964       0.00001035       0.00000367
Pt       5.65868708       4.00129579       9.80113036       0.00000085      -0.00000169      -0.00001272
Bi       0.00000017      -0.00000028       0.00000051       0.00000238      -0.00000261      -0.00000448
Se       2.24511502       1.58753547       6.53408887      -0.00183076      -0.00129494       0.00000170
Se       5.29980219       3.74752461       6.53409018       0.00182790       0.00128800       0.00000525
Se       4.53612985       1.58753537       5.21137119       0.00091667      -0.00129315      -0.00158045
Se       3.00878625       3.74752551       7.85680708      -0.00091137       0.00129299       0.00158355
Se       3.00878550       3.74752452       5.21137118      -0.00091435       0.00128852      -0.00157985
Se       4.53613074       1.58753615       7.85680780       0.00091860      -0.00128745       0.00158328
