9
Lattice="4.989511045035767 -1.1187214163226493e-07 2.8806956399583648 1.6631702832438564 4.704155294814628 2.8806955700308783 -2.869717111359662e-07 -2.885629809377998e-07 5.761391776966234" Properties=species:S:1:pos:R:3:forces:R:3 energy=-37.36199951171875 free_energy=-37.36199951171875 stress="9.672437590779737e-05 -4.350079763071335e-08 1.0776120262789846e-07 -4.350079763071335e-08 9.689471335150301e-05 8.959231223570896e-08 1.0776120262789846e-07 8.959231223570896e-08 9.655657049734145e-05" pbc="T T T"
Pt       1.66317903       1.17604020       2.88069244       0.00008440       0.00000192      -0.00002638
Pt       4.98951468       3.52811122       8.64208900       0.00005422      -0.00004111       0.00000665
B       -0.00000082      -0.00000019      -0.00000067       0.00000474      -0.00000545      -0.00001196
S        1.67952366       1.18760533       5.76139240       0.00064357       0.00048052       0.00000338
S        4.97315399       3.51655193       5.76139060      -0.00069501      -0.00046849       0.00000143
S        4.14974630       1.18760466       4.33520725      -0.00035850       0.00048348       0.00058942
S        2.50293042       3.51655057       7.18757582       0.00031024      -0.00046626      -0.00057307
S        2.50293182       3.51655121       4.33520763       0.00031699      -0.00047003       0.00058348
S        4.14974509       1.18760468       7.18757726      -0.00036084       0.00048527      -0.00057286
