9
Lattice="5.348720192785324 3.0385042989539904e-07 3.0880854212864848 1.7829073182554926 5.042821359019597 3.0880849001918707 2.7054920955603164e-07 -4.4690080138496674e-07 6.176170373968046" Properties=species:S:1:pos:R:3:forces:R:3 energy=-29.540176391601562 free_energy=-29.540176391601562 stress="0.00013800877786707133 -2.2886159456447785e-07 -3.747724264258068e-08 -2.2886159456447785e-07 0.0001375284482492134 2.6352665827289457e-08 -3.747724264258068e-08 2.6352665827289457e-08 0.00013764295727014542" pbc="T T T"
Pt       1.78289806       1.26070800       3.08807778      -0.00013264       0.00004642      -0.00010539
Pt       5.34870356       3.78213386       9.26424695      -0.00025173       0.00025768      -0.00011839
Bi      -0.00000015       0.00000059      -0.00000005      -0.00001101       0.00000006       0.00000528
S        1.99380387       1.40981859       6.17617406       0.00392264       0.00256726       0.00005159
S        5.13783268       3.63299136       6.17617304      -0.00379682      -0.00272790       0.00004804
S        4.35182337       1.40982153       4.81477103      -0.00187784       0.00260901       0.00339878
S        2.77981738       3.63299310       7.53758407       0.00207371      -0.00271469      -0.00321877
S        2.77981164       3.63299556       4.81476255       0.00199494      -0.00267631       0.00328639
S        4.35182071       1.40982239       7.53757343      -0.00192137       0.00263816      -0.00334761
