9
Lattice="4.9979546174469585 7.171562598579602e-07 2.8855719081788727 1.665985662511778 4.712116515581622 2.885571710919027 3.503698414293875e-07 6.155901259637651e-09 5.7711432094993595" Properties=species:S:1:pos:R:3:forces:R:3 energy=-32.981285095214844 free_energy=-32.981285095214844 stress="0.00020645504991989583 5.975213213105235e-08 -2.972236146092655e-08 5.975213213105235e-08 0.000206360753509216 -3.533845926995127e-08 -2.972236146092655e-08 -3.533845926995127e-08 0.00020575334201566875" pbc="T T T"
Pt       1.66599061       1.17803119       2.88556874       0.00005061       0.00000905      -0.00001690
Pt       4.99795537       3.53408526       8.65672028       0.00000777      -0.00001725       0.00003888
Ga       0.00000056       0.00000051      -0.00000028      -0.00000044       0.00000341       0.00000155
S        1.81410696       1.28276193       5.77114585       0.00603269       0.00421837       0.00002029
S        4.84983759       3.42935145       5.77114175      -0.00601358      -0.00428163      -0.00001376
S        4.09090010       1.28276764       4.45662746      -0.00303998       0.00429156       0.00517685
S        2.57303338       3.42935105       7.08565418       0.00297980      -0.00426534      -0.00523441
S        2.57303781       3.42935437       4.45663167       0.00302264      -0.00423911       0.00522597
S        4.09089986       1.28276553       7.08565793      -0.00303973       0.00428104      -0.00519835
