9
Lattice="4.479127256722027 -6.08237168874698e-08 2.5860251899409006 1.4930424636598323 4.2229625342339645 2.5860250131027076 -7.035092455034066e-07 -7.14037914153534e-07 5.172051598395474" Properties=species:S:1:pos:R:3:forces:R:3 energy=-38.44670867919922 free_energy=-38.44670867919922 stress="-6.976842269068584e-05 -1.063267518475186e-06 3.539656063367147e-06 -1.063267518475186e-06 -7.348489452851936e-05 2.442528057144955e-06 3.539656063367147e-06 2.442528057144955e-06 -7.387476216536015e-05" pbc="T T T"
Pt       1.49302172       1.05577007       2.58601862      -0.00054358       0.00090475      -0.00039882
Pt       4.47913650       3.16723795       7.75801452       0.00019432       0.00057548      -0.00180215
Ga      -0.00000033       0.00000164      -0.00000268      -0.00002435       0.00006317      -0.00007918
O        1.51644527       1.07228221       5.17205525      -0.00512761      -0.00385588       0.00020397
O        4.45573631       3.15066027       5.17208414       0.00553149       0.00326270       0.00093498
O        3.72090713       1.07226779       3.89931957       0.00269294      -0.00427192      -0.00398946
O        2.25126820       3.15066736       6.44480881      -0.00243291       0.00338197       0.00487435
O        2.25124498       3.15066715       3.89930871      -0.00311840       0.00348920      -0.00432092
O        3.72091602       1.07229272       6.44480050       0.00282755      -0.00354981       0.00457650
