9
Lattice="2.301860371110492 0.09331083014274832 2.151837350952988 0.7940388402028982 2.3990086717629002 -0.022912453343839567 1.4153853575089994 -0.5456851656945784 3.345956971970589" Properties=species:S:1:pos:R:3:forces:R:3 energy=-115915440128.0 free_energy=-115915440128.0 stress="0.0 5094929920.0 -7602956288.0 5094929920.0 0.0 0.0 -7602956288.0 0.0 0.0" pbc="T T T"
Pt       1.24767586      -0.24940246       2.00650108 -134658375680.00000000 100644724736.00000000 -45609115648.00000000
Pt       2.93022653       1.91966488       2.85497502 123788132352.00000000 70595395584.00000000 -40633901056.00000000
Ga       0.17276648      -0.11881161       0.73625866 -124803792896.00000000 31591907328.00000000 53645275136.00000000
N        1.79558638      -1.09586341       3.79659706 -101745008640.00000000 49766064128.00000000 27612774400.00000000
N        2.01497809       1.30375080       1.29219349 30817740800.00000000 -16660369408.00000000 24111775744.00000000
N        2.31803446       0.53580570       2.04080190 43510439936.00000000 11695330304.00000000 15378492416.00000000
N        1.92971938      -1.25859740       2.45340849 -2148532224.00000000 21414793216.00000000 26976958464.00000000
N        0.61574798       2.78648056      -1.26346586 86421872640.00000000 -110259871744.00000000 16433519616.00000000
N        4.70583998       0.05874324       4.99384231 78817624064.00000000 -158787960832.00000000 -77915799552.00000000
