9
Lattice="5.4418277382428295 -1.0430075359726704e-08 3.1418405796730933 1.8139425801628353 5.130604356072358 3.141840561344374 2.7565632066122054e-08 -2.9562190561631454e-09 6.283681111601213" Properties=species:S:1:pos:R:3:forces:R:3 energy=-32.305171966552734 free_energy=-32.305171966552734 stress="1.3574007425631862e-05 1.3483606231545764e-08 1.7594290468991858e-09 1.3483606231545764e-08 1.3606781976704951e-05 -3.186169106328407e-10 1.7594290468991858e-09 -3.186169106328407e-10 1.358315330435289e-05" pbc="T T T"
Pt       1.81394282       1.28265353       3.14184039       0.00000381       0.00001519      -0.00000179
Pt       5.44183004       3.84795427       9.42552116       0.00001480       0.00000533      -0.00000299
Ga      -0.00000000      -0.00000010       0.00000003       0.00000278      -0.00000381      -0.00000176
Se       2.06961221       1.46343641       6.28368111      -0.00034349      -0.00024910      -0.00000080
Se       5.18615771       3.66716742       6.28368135       0.00034189       0.00023839       0.00000201
Se       4.40702185       1.46343649       4.93417710       0.00017052      -0.00024238      -0.00029258
Se       2.84874736       3.66716626       7.63318489      -0.00018003       0.00024000       0.00030254
Se       2.84874720       3.66716652       4.93417785      -0.00018195       0.00024015      -0.00029914
Se       4.40702221       1.46343658       7.63318518       0.00017166      -0.00024372       0.00029457
