9
Lattice="4.622560969098177 3.566498420559228e-08 2.6688366755048 1.5408536525054932 4.358192226439571 2.66883674043221 -1.7566139116826523e-07 -4.469189808949583e-08 5.337673655264083" Properties=species:S:1:pos:R:3:forces:R:3 energy=-44.33108901977539 free_energy=-44.33108901977539 stress="0.00016444819630123675 -1.2234162127811032e-08 1.9702068243532267e-07 -1.2234162127811032e-08 0.0001641907001612708 2.951027795461414e-07 1.9702068243532267e-07 2.951027795461414e-07 0.00016427990340162069" pbc="T T T"
Pt       1.54084869       1.08954591       2.66883675      -0.00009780      -0.00005539      -0.00000478
Pt       4.62255775       3.26863886       8.00650312      -0.00007746      -0.00011426      -0.00014504
Ir      -0.00000016      -0.00000043      -0.00000045      -0.00000905      -0.00001462       0.00000533
O        1.53676065       1.08665556       5.33767414      -0.00138925      -0.00095454       0.00001471
O        4.62665294       3.27153773       5.33767756       0.00139542       0.00098607       0.00006922
O        3.85418154       1.08665534       3.99971134       0.00073126      -0.00096100      -0.00118718
O        2.30923767       3.27153910       6.67563679      -0.00062784       0.00100864       0.00121903
O        2.30923463       3.27153877       3.99971208      -0.00068319       0.00100883      -0.00118177
O        3.85418404       1.08665814       6.67563674       0.00075808      -0.00090369       0.00121027
