9
Lattice="5.438286236884149 1.0159037999797464e-08 3.1397960299094025 1.8127620757811125 5.12726534978882 3.1397960520073562 1.3576834750977364e-08 3.666472018806895e-08 6.2795920363029545" Properties=species:S:1:pos:R:3:forces:R:3 energy=-39.13878631591797 free_energy=-39.13878631591797 stress="-6.156697781989351e-05 3.5301397360854025e-08 9.963615710262275e-09 3.5301397360854025e-08 -6.157795723993331e-05 -4.741419701304039e-09 9.963615710262275e-09 -4.741419701304039e-09 -6.157079769764096e-05" pbc="T T T"
Pt       1.81276247       1.28181664       3.13979567       0.00000326       0.00000031      -0.00000053
Pt       5.43828731       3.84544851       9.41938859       0.00000505      -0.00000092       0.00000222
Ir      -0.00000007       0.00000023       0.00000016       0.00000153      -0.00000268      -0.00000083
Se       2.02988150       1.43534344       6.27959197      -0.00215408      -0.00152156      -0.00000055
Se       5.22116654       3.69192194       6.27959173       0.00215119       0.00152124      -0.00000128
Se       4.42334539       1.43534296       4.89772479       0.00107370      -0.00151999      -0.00186136
Se       2.82770231       3.69192229       7.66145902      -0.00107788       0.00152154       0.00186272
Se       2.82770270       3.69192266       4.89772498      -0.00107676       0.00152245      -0.00186343
Se       4.42334520       1.43534292       7.66145949       0.00107408      -0.00152038       0.00186288
