9
Lattice="5.148857462483763 -1.6094810338009258e-07 2.9726941356053795 1.716285674638475 4.854389235796167 2.972694125985844 -3.255463377445866e-07 -2.419775254348626e-07 5.945388835073585" Properties=species:S:1:pos:R:3:forces:R:3 energy=-41.14604187011719 free_energy=-41.14604187011719 stress="-6.538583693327382e-05 1.2806122384745322e-08 6.281020858978081e-08 1.2806122384745322e-08 -6.530529208248481e-05 3.8181212858034996e-08 6.281020858978081e-08 3.8181212858034996e-08 -6.544978532474488e-05" pbc="T T T"
Pt       1.71628543       1.21359640       2.97269243      -0.00000140      -0.00000335      -0.00000421
Pt       5.14885687       3.64079188       8.91808396      -0.00000192      -0.00000138       0.00000237
Ir       0.00000017      -0.00000014       0.00000050      -0.00000127       0.00000072      -0.00000011
S        1.85559419       1.31210298       5.94538901      -0.00076520      -0.00054199       0.00000135
S        5.00954876       3.54228605       5.94538796       0.00076503       0.00054294      -0.00000258
S        4.22106009       1.31210317       4.57968606       0.00038415      -0.00054103      -0.00066149
S        2.64408261       3.54228591       7.31109126      -0.00038144       0.00054103       0.00066346
S        2.64408281       3.54228588       4.57968600      -0.00038105       0.00054199      -0.00066203
S        4.22106051       1.31210319       7.31109143       0.00038326      -0.00053853       0.00066364
