9
Lattice="5.116276792812617 -4.607070862085365e-07 2.9538829233546045 1.7054251747431508 4.8236707831456185 2.953882903439875 1.6068644434452243e-07 8.923199917483486e-08 5.907765568392149" Properties=species:S:1:pos:R:3:forces:R:3 energy=-42.40437316894531 free_energy=-42.40437316894531 stress="8.637493738206103e-05 1.1105572639280581e-07 -5.337965802709732e-08 1.1105572639280581e-07 8.658584556542337e-05 -8.409856633306845e-08 -5.337965802709732e-08 -8.409856633306845e-08 8.675090793985873e-05" pbc="T T T"
Pt       1.70542285       1.20591714       2.95388549      -0.00001467      -0.00000989       0.00002165
Pt       5.11628011       3.61775033       8.86164806       0.00002188      -0.00001947      -0.00000161
Mo      -0.00000027       0.00000028       0.00000019       0.00000059      -0.00000437      -0.00000066
S        1.85475428       1.31150982       5.90776527      -0.00078076      -0.00054175       0.00000169
S        4.96694725       3.51216155       5.90776657       0.00077981       0.00055104       0.00000437
S        4.18889853       1.31150913       4.56014634       0.00038561      -0.00054520      -0.00067502
S        2.63280291       3.51216258       7.25538342      -0.00039408       0.00056016       0.00066847
S        2.63280239       3.51216136       4.56014666      -0.00039554       0.00055414      -0.00068170
S        4.18890054       1.31150941       7.25538365       0.00039688      -0.00054455       0.00066298
