9
Lattice="4.578751487723482 6.116808177835042e-08 2.6435434609918667 1.5262505703021942 4.31688817990739 2.6435434320240963 3.7899210592386436e-08 -8.679339920256785e-09 5.287086856340375" Properties=species:S:1:pos:R:3:forces:R:3 energy=-44.90753173828125 free_energy=-44.90753173828125 stress="-0.00010209593892795965 -1.7802734930683073e-07 -3.5859795133319494e-08 -1.7802734930683073e-07 -0.00010180067329201847 -3.120522729105346e-09 -3.5859795133319494e-08 -3.120522729105346e-09 -0.00010249191109323874" pbc="T T T"
Pt       1.52624916       1.07921896       2.64354477      -0.00001925      -0.00006186       0.00003374
Pt       4.57875493       3.23766754       7.93063188       0.00006785       0.00001815       0.00004453
Mo       0.00000011      -0.00000000       0.00000011       0.00000190      -0.00000146       0.00000337
O        1.58092415       1.11788247       5.28708660      -0.00264311      -0.00185758      -0.00001340
O        4.52407730       3.19900664       5.28708668       0.00262386       0.00187796      -0.00001499
O        3.78828926       1.11788225       4.01266401       0.00131592      -0.00186568      -0.00228208
O        2.31671146       3.19900697       6.56150805      -0.00134200       0.00188947       0.00224382
O        2.31671228       3.19900660       4.01266433      -0.00132924       0.00188190      -0.00227308
O        3.78828976       1.11788152       6.56150851       0.00132439      -0.00188100       0.00225818
