9
Lattice="4.078126672523544 -5.947800810476788e-08 2.354507518779979 1.3593753656705838 3.844894675464766 2.3545077539247075 -6.181785829699877e-08 2.4428049965644606e-07 4.70901514463168" Properties=species:S:1:pos:R:3:forces:R:3 energy=-41.57597351074219 free_energy=-41.57597351074219 stress="-0.0005807126290164888 8.873061574377061e-08 -2.426083369755361e-07 8.873061574377061e-08 -0.0005799825303256512 -7.893963527294545e-08 -2.426083369755361e-07 -7.893963527294545e-08 -0.0005804303218610585" pbc="T T T"
Pt       1.35936334       0.96119483       2.35448474      -0.00032378      -0.00085742      -0.00082688
Pt       4.07811206       2.88364764       7.06350247      -0.00033543      -0.00083477      -0.00081816
N       -0.00003325      -0.00009613      -0.00009928      -0.00109220      -0.00296568      -0.00297194
O        1.35993661       0.96162697       4.70902509      -0.00298595      -0.00185162       0.00035614
O        4.07763006       2.88332928       4.70902583       0.00500566       0.00381434       0.00036234
O        3.39816232       0.96163583       3.53226056       0.00158173      -0.00164860      -0.00211501
O        2.03931357       2.88333556       5.88585480      -0.00242540       0.00400084       0.00480896
O        2.03933758       2.88330362       3.53223716      -0.00170907       0.00300121      -0.00285500
O        3.39818537       0.96160170       5.88583026       0.00228575      -0.00265765       0.00405961
