9
Lattice="4.940225483610258 -7.72978115135528e-07 2.8522402348272498 1.646741208448339 4.657687692381477 2.8522400454291876 -4.963359944800409e-07 -5.829268397407556e-07 5.704481329333695" Properties=species:S:1:pos:R:3:forces:R:3 energy=-35.090415954589844 free_energy=-35.090415954589844 stress="4.802757393918e-05 1.3268716259062785e-07 1.8106331367562234e-07 1.3268716259062785e-07 4.87048746435903e-05 7.731020446044568e-08 1.8106331367562234e-07 7.731020446044568e-08 4.822853588848375e-05" pbc="T T T"
Pt       1.64673620       1.16442012       2.85223826      -0.00005680      -0.00001437       0.00000641
Pt       4.94022925       3.49326414       8.55673873       0.00004313      -0.00001314       0.00020963
P       -0.00000033      -0.00000002       0.00000066      -0.00000147      -0.00000150       0.00002566
S        1.76599624       1.24874760       5.70448118      -0.00087158      -0.00059941      -0.00000915
S        4.82096832       3.40894093       5.70446883       0.00085111       0.00063457      -0.00015582
S        4.05723519       1.24875026       4.38164018       0.00053268      -0.00058127      -0.00072989
S        2.52973252       3.40893702       7.02732020      -0.00050402       0.00058104       0.00070898
S        2.52974079       3.40894017       4.38163745      -0.00042278       0.00063229      -0.00076713
S        4.05722654       1.24874520       7.02732091       0.00043013      -0.00063835       0.00071153
