9
Lattice="4.4298971469044215 2.3387670525973838e-07 2.5576021953881933 1.4766326192679216 4.176546821127053 2.557602166869401 2.369835179031264e-08 -1.8171032936070405e-08 5.1152043497297255" Properties=species:S:1:pos:R:3:forces:R:3 energy=-47.08177185058594 free_energy=-47.08177185058594 stress="-0.00015633483417332172 -8.940117623978949e-08 -3.153953684886801e-07 -8.940117623978949e-08 -0.00015555314894299954 -2.2044604008897295e-07 -3.153953684886801e-07 -2.2044604008897295e-07 -0.00015659155906178057" pbc="T T T"
Pt       1.47662628       1.04414010       2.55761036      -0.00015711       0.00000673       0.00016189
Pt       4.42988850       3.13239515       7.67280463      -0.00020051      -0.00029100      -0.00000286
P        0.00000017       0.00000033       0.00000001       0.00000151       0.00000293      -0.00000280
O        1.39036754       0.98314240       5.11519997       0.00102258       0.00078988      -0.00007237
O        4.51616395       3.19340589       5.11520681      -0.00098276      -0.00074685       0.00000711
O        3.73471476       0.98314428       3.76169328      -0.00045079       0.00082970       0.00083733
O        2.17182015       3.19340947       6.46871267       0.00059384      -0.00069022      -0.00089109
O        2.17182065       3.19340875       3.76169442       0.00059658      -0.00070477       0.00085711
O        3.73471702       0.98314234       6.46871188      -0.00042272       0.00080395      -0.00089467
