9
Lattice="5.49545817408628 -6.147324589963948e-08 3.172804260034427 1.8318193355777586 5.181167664229563 3.172804256270315 -9.548126152466291e-08 -7.212551505901769e-08 6.34560868544725" Properties=species:S:1:pos:R:3:forces:R:3 energy=-33.899940490722656 free_energy=-33.899940490722656 stress="-3.118218592135236e-05 -3.3656576192697685e-08 -6.85452974380496e-08 -3.3656576192697685e-08 -3.102619666606188e-05 6.958418197200444e-08 -6.85452974380496e-08 6.958418197200444e-08 -3.111364276264794e-05" pbc="T T T"
Pt       1.83182004       1.29528975       3.17280495       0.00000681      -0.00002476       0.00000621
Pt       5.49545994       3.88587503       9.51841082       0.00002262      -0.00001175      -0.00002434
P        0.00000007      -0.00000011       0.00000004       0.00000252       0.00000044      -0.00000483
Se       1.86934212       1.32182573       6.34560897       0.00525039       0.00372791       0.00000314
Se       5.45793372       3.85934354       6.34560997      -0.00526753      -0.00370637       0.00001769
Se       4.56078593       1.32182497       4.79170254      -0.00263616       0.00371012       0.00454795
Se       2.76649087       3.85934351       7.89951358       0.00262694      -0.00370094      -0.00455940
Se       2.76648995       3.85934271       4.79170337       0.00261892      -0.00371450       0.00456479
Se       4.56078705       1.32182497       7.89951456      -0.00262488       0.00371984      -0.00455117
