9
Lattice="4.680140513512199 -2.0478992994492013e-07 2.7020804385725743 1.5600467591791525 4.412478292138429 2.7020802403920743 -9.542925763698228e-08 -3.101991831965601e-07 5.404161042433454" Properties=species:S:1:pos:R:3:forces:R:3 energy=-45.010345458984375 free_energy=-45.010345458984375 stress="0.0006353525095619261 -1.1457611748255658e-08 3.6769921507584513e-07 -1.1457611748255658e-08 0.0006356126395985484 2.944068171473191e-07 3.6769921507584513e-07 2.944068171473191e-07 0.0006353448261506855" pbc="T T T"
Pt       1.56004721       1.10312072       2.70208514       0.00000459       0.00002695       0.00007530
Pt       4.68014193       3.30936239       8.10623574       0.00002692       0.00008035      -0.00009736
Ru       0.00000010       0.00000110      -0.00000030       0.00000761       0.00002202      -0.00000470
O        1.53903764       1.08826263       5.40415791      -0.00768358      -0.00545746      -0.00004417
O        4.70115067       3.32421252       5.40416394       0.00770837       0.00541234       0.00005329
O        3.91061919       1.08826092       4.03492661       0.00380209      -0.00548631      -0.00664777
O        2.32956662       3.32421443       6.77339600      -0.00383049       0.00543678       0.00667405
O        2.32956417       3.32421462       4.03492729      -0.00388044       0.00542802      -0.00665385
O        3.91062116       1.08826163       6.77339479       0.00384593      -0.00546300       0.00664461
