9
Lattice="5.0832761965333795 1.1886627021960823e-07 2.934830873049216 1.6944254999441977 4.792558681808837 2.9348308920472093 7.582617036207934e-08 7.688486201224273e-08 5.869661614763661" Properties=species:S:1:pos:R:3:forces:R:3 energy=-41.63583755493164 free_energy=-41.63583755493164 stress="-8.925301517592743e-05 1.8206089080763377e-08 -3.6355718435743256e-08 1.8206089080763377e-08 -8.919531683204696e-05 1.9965096242913205e-08 -3.6355718435743256e-08 1.9965096242913205e-08 -8.924578287405893e-05" pbc="T T T"
Pt       1.69442429       1.19814062       2.93483199      -0.00000321       0.00000940       0.00000323
Pt       5.08327766       3.59442239       8.80449019       0.00000524       0.00001862      -0.00000999
Ru       0.00000015       0.00000044       0.00000061      -0.00000163      -0.00000598      -0.00000449
S        1.82248091       1.28868693       5.86966204      -0.00099462      -0.00071162       0.00000614
S        4.95522141       3.50386993       5.86966371       0.00099903       0.00070190       0.00000536
S        4.17203503       1.28868698       4.51314504       0.00049445      -0.00070542      -0.00086385
S        2.60566517       3.50387098       7.22617728      -0.00050649       0.00070655       0.00086284
S        2.60566519       3.50386984       4.51314479      -0.00049528       0.00069702      -0.00086319
S        4.17203725       1.28868757       7.22617771       0.00050294      -0.00071079       0.00086385
