9
Lattice="5.409139431025769 1.2573036859347214e-07 3.122968334754858 1.8030465792932768 5.099785966231123 3.1229683629093463 8.755861553569993e-08 9.639539875977975e-08 6.245936517853677" Properties=species:S:1:pos:R:3:forces:R:3 energy=-38.12316131591797 free_energy=-38.12316131591797 stress="-0.00044945720583200455 -3.0454039290361834e-08 -1.6656406032211635e-08 -3.0454039290361834e-08 -0.00044944437104277313 -6.715859868222651e-09 -1.6656406032211635e-08 -6.715859868222651e-09 -0.00044943488319404423" pbc="T T T"
Pt       1.80304611       1.27494671       3.12296899      -0.00000139       0.00000077       0.00000227
Pt       5.40913873       3.82484025       9.36890414      -0.00000310       0.00000230      -0.00000273
Rh      -0.00000007      -0.00000006       0.00000007       0.00000051       0.00000076      -0.00000059
Se       2.03568510       1.43944602       6.24593682      -0.00430644      -0.00304937       0.00000061
Se       5.17650162       3.66033947       6.24593745       0.00430974       0.00304550       0.00000195
Se       4.39129681       1.43944688       4.88592310       0.00215353      -0.00304756      -0.00373274
Se       2.82088925       3.66033955       7.60594954      -0.00215513       0.00304869       0.00373325
Se       2.82088918       3.66033903       4.88592315      -0.00215434       0.00304630      -0.00373369
Se       4.39129773       1.43944697       7.60594964       0.00215662      -0.00304726       0.00373185
