9
Lattice="5.381466455653796 9.317004545633479e-08 3.1069912165396047 1.7938221939545953 5.0736954517405675 3.106991295818168 -2.94756925808381e-09 9.501185446114843e-08 6.213982438184506" Properties=species:S:1:pos:R:3:forces:R:3 energy=-39.48606491088867 free_energy=-39.48606491088867 stress="-2.639234298840165e-05 1.3207262838932365e-08 -1.1357857765403878e-08 1.3207262838932365e-08 -2.6330139007768594e-05 1.6080900167025902e-08 -1.1357857765403878e-08 1.6080900167025902e-08 -2.628018228278961e-05" pbc="T T T"
Pt       1.79382130       1.26842604       3.10699092      -0.00000611       0.00001278      -0.00000193
Pt       5.38146574       3.80527324       9.32097314      -0.00000218       0.00000980      -0.00000304
Ru       0.00000014      -0.00000022      -0.00000060       0.00000175      -0.00000124       0.00000052
Se       2.00082372       1.41479525       6.21398252      -0.00096634      -0.00069021      -0.00000090
Se       5.17446591       3.65889891       6.21398256       0.00096989       0.00067823      -0.00000038
Se       4.38105534       1.41479539       4.83975561       0.00048620      -0.00068744      -0.00083655
Se       2.79423392       3.65889892       7.58821023      -0.00048469       0.00068256       0.00084308
Se       2.79423354       3.65889939       4.83975555      -0.00048424       0.00068198      -0.00083914
Se       4.38105499       1.41479567       7.58820987       0.00048579      -0.00068662       0.00083828
