9
Lattice="5.13035658419804 -2.3643140040088497e-07 2.9620123620866687 1.7101187034363128 4.836946013160956 2.9620122495958183 -1.6585067369299572e-07 -2.550467066231499e-07 5.924025011435137" Properties=species:S:1:pos:R:3:forces:R:3 energy=-39.37294387817383 free_energy=-39.37294387817383 stress="0.00011865620035678148 1.9230940395686957e-08 2.350672190232217e-08 1.9230940395686957e-08 0.00011867609282489866 -2.5867410435864713e-09 2.350672190232217e-08 -2.5867410435864713e-09 0.00011865977285197005" pbc="T T T"
Pt       1.71011575       1.20923929       2.96201225      -0.00001865       0.00001862      -0.00000263
Pt       5.13035622       3.62770968       8.88603544      -0.00000733       0.00001017      -0.00000927
Rh       0.00000011      -0.00000004      -0.00000003      -0.00000163      -0.00000295       0.00000031
S        1.84127231       1.30197509       5.92402460       0.00687385       0.00485420       0.00000052
S        4.99920405       3.53496914       5.92402517      -0.00686353      -0.00486577       0.00000132
S        4.20972131       1.30197460       4.55660119      -0.00342882       0.00485402       0.00595522
S        2.63075510       3.53496991       7.29144960       0.00344002      -0.00486231      -0.00594765
S        2.63075457       3.53496922       4.55660061       0.00343728      -0.00486231       0.00595063
S        4.20972099       1.30197518       7.29144959      -0.00343111       0.00485599      -0.00594813
