9
Lattice="4.56137516779068 -4.03108826206841e-08 2.6335111244170593 1.5204583893945387 4.300505673518233 2.6335110583627865 -3.626298028312743e-08 -1.0654143226990679e-07 5.2670223116434745" Properties=species:S:1:pos:R:3:forces:R:3 energy=-41.90294647216797 free_energy=-41.90294647216797 stress="-0.0001296964765060693 9.765551567397779e-08 2.0005744261197833e-07 9.765551567397779e-08 -0.0001293482637265697 1.727335501300331e-07 2.0005744261197833e-07 1.727335501300331e-07 -0.00012955607962794602" pbc="T T T"
Pt       1.52046275       1.07512516       2.63350948       0.00008598      -0.00002166      -0.00004665
Pt       4.56137727       3.22538018       7.90052727       0.00004604       0.00001807      -0.00011379
Rh       0.00000051       0.00000012      -0.00000072       0.00000946      -0.00000237      -0.00000579
O        1.58327844       1.11954765       5.26702337      -0.00190046      -0.00132897       0.00002547
O        4.49855350       3.18096032       5.26702458       0.00186867       0.00137004       0.00004907
O        3.76973332       1.11954434       4.00467148       0.00090602      -0.00138420      -0.00162634
O        2.31209855       3.18095772       6.52937479      -0.00094087       0.00132516       0.00165874
O        2.31209538       3.18095876       4.00467215      -0.00098658       0.00134498      -0.00161093
O        3.76973433       1.11954787       6.52937573       0.00091150      -0.00132132       0.00167006
