9
Lattice="5.268564898689652 -4.5958495487284116e-07 3.0418068083217187 1.7561879696050278 4.967251116170438 3.0418066293269215 7.819777959467415e-08 -1.6392880060350417e-07 6.083613481200917" Properties=species:S:1:pos:R:3:forces:R:3 energy=-30.770395278930664 free_energy=-30.770395278930664 stress="-6.66657870169729e-05 1.738725075028924e-07 -1.6043429695855593e-07 1.738725075028924e-07 -6.736279465258121e-05 9.724811889100238e-08 -1.6043429695855593e-07 9.724811889100238e-08 -6.586185918422416e-05" pbc="T T T"
Pt       1.75618259       1.24181628       3.04180759      -0.00007554       0.00006224       0.00000272
Pt       5.26856401       3.72544679       9.12541867      -0.00001169       0.00012795      -0.00002331
Sb       0.00000018       0.00000066      -0.00000048       0.00000550       0.00001698       0.00000455
S        1.97836624       1.39890826       6.08361372      -0.00705060      -0.00510330       0.00000234
S        5.04639329       3.56833574       6.08361490       0.00713003       0.00498487       0.00002377
S        4.27938247       1.39890945       4.75512183       0.00354160      -0.00509460      -0.00609870
S        2.74536782       3.56833560       7.41210807      -0.00358149       0.00501892       0.00614361
S        2.74536843       3.56833833       4.75511875      -0.00356106       0.00504704      -0.00613928
S        4.27938682       1.39891073       7.41210466       0.00360310      -0.00505999       0.00608402
