9
Lattice="5.185394788388666 3.481952235693091e-09 2.9937889300935026 1.7284649396389888 4.888836919838305 2.993788918153988 1.0560068379744815e-07 6.004805981012875e-08 5.987577677281304" Properties=species:S:1:pos:R:3:forces:R:3 energy=-44.83245086669922 free_energy=-44.83245086669922 stress="-5.452757250168361e-05 -1.3410279109393741e-08 3.330425268899262e-09 -1.3410279109393741e-08 -5.4617888963548467e-05 -5.497606636595265e-08 3.330425268899262e-09 -5.497606636595265e-08 -5.433471596916206e-05" pbc="T T T"
Pt       1.72846207       1.22220445       2.99378986      -0.00002602      -0.00004136       0.00000833
Pt       5.18539437       3.66662763       8.98136570      -0.00000618      -0.00000548      -0.00000504
Ta       0.00000027       0.00000045      -0.00000003       0.00000007       0.00001011      -0.00000584
S        1.88671096       1.33410505       5.98757881       0.00357032       0.00252095       0.00000916
S        5.02714912       3.55473379       5.98758025      -0.00356483      -0.00250158       0.00001589
S        4.24204101       1.33410615       4.62772777      -0.00177251       0.00252870       0.00308055
S        2.67181985       3.55473405       7.34742622       0.00178088      -0.00250140      -0.00309339
S        2.67181980       3.55473171       4.62772743       0.00178424      -0.00252071       0.00308141
S        4.24204179       1.33410465       7.34742606      -0.00176583       0.00251091      -0.00309086
