9
Lattice="5.510292944202986 1.7468768080242016e-07 3.181369420223235 1.8367645133976407 5.195154394936889 3.1813693613920555 6.908581959606662e-08 -2.3202081439368028e-08 6.362738720786305" Properties=species:S:1:pos:R:3:forces:R:3 energy=-41.773624420166016 free_energy=-41.773624420166016 stress="4.268874545232393e-05 -2.5436868167361126e-09 -8.149500274612365e-08 -2.5436868167361126e-09 4.2503841541474685e-05 -1.7083166881093348e-08 -8.149500274612365e-08 -1.7083166881093348e-08 4.257163527654484e-05" pbc="T T T"
Pt       1.83676428       1.29878736       3.18136949      -0.00000182      -0.00000967       0.00000163
Pt       5.51029157       3.89636728       9.54410654      -0.00001085       0.00000995      -0.00001355
Ta       0.00000013       0.00000006       0.00000015       0.00000253       0.00000117       0.00000425
Se       2.01888004       1.42756257       6.36273834      -0.00042437      -0.00031070      -0.00000168
Se       5.32817783       3.76759146       6.36273898       0.00042789       0.00030582       0.00000273
Se       4.50085292       1.42756234       4.92977054       0.00021076      -0.00030839      -0.00036858
Se       2.84620501       3.76759107       7.79570776      -0.00020862       0.00030461       0.00037183
Se       2.84620424       3.76759220       4.92977083      -0.00020927       0.00030729      -0.00036596
Se       4.50085417       1.42756387       7.79570737       0.00021361      -0.00030006       0.00036936
