9
Lattice="4.6464555474198335 2.9413564094627852e-08 2.682632445447682 1.548818515163104 4.380720357643229 2.682632494594431 1.499188731382719e-08 7.079309787630003e-08 5.36526486492865" Properties=species:S:1:pos:R:3:forces:R:3 energy=-53.22541809082031 free_energy=-53.22541809082031 stress="0.0002720604243222624 1.3862453407398334e-08 1.6978125572109093e-08 1.3862453407398334e-08 0.0002718987234402448 -1.4707687512327539e-07 1.6978125572109093e-08 -1.4707687512327539e-07 0.0002719701733440161" pbc="T T T"
Pt       1.54881687       1.09518021       2.68263214      -0.00003309       0.00000192      -0.00000967
Pt       4.64645412       3.28553988       8.04789707      -0.00003409      -0.00000769      -0.00000152
Ta      -0.00000027       0.00000007       0.00000003      -0.00000255      -0.00000193      -0.00000147
O        1.61034863       1.13868883       5.36526469      -0.00398701      -0.00282300      -0.00000030
O        4.58492594       3.24203164       5.36526455       0.00399923       0.00281447      -0.00000389
O        3.84128175       1.13868849       4.07723545       0.00200465      -0.00281966      -0.00345084
O        2.35399364       3.24203145       6.65329544      -0.00197849       0.00281861       0.00346890
O        2.35399375       3.24203252       4.07723557      -0.00198168       0.00283766      -0.00345463
O        3.84128187       1.13868871       6.65329437       0.00201267      -0.00282076       0.00345382
