9
Lattice="5.480054635111523 -1.0159495992522961e-07 3.163910925628698 1.8266848531805198 5.166644080826649 3.163910803355153 2.75753793595292e-08 -1.302551958575842e-07 6.3278218034954135" Properties=species:S:1:pos:R:3:forces:R:3 energy=-42.141353607177734 free_energy=-42.141353607177734 stress="-5.080137270851992e-05 -9.80265557615212e-09 2.8714161715015507e-08 -9.80265557615212e-09 -5.06052456330508e-05 -7.739734186884561e-09 2.8714161715015507e-08 -7.739734186884561e-09 -5.086566670797765e-05" pbc="T T T"
Rb       1.82668492       1.29166130       3.16391108      -0.00000075      -0.00000038      -0.00000058
Rb       5.48005447       3.87498242       9.49173254       0.00000167       0.00000153      -0.00000015
As       0.00000007       0.00000046      -0.00000003      -0.00000071      -0.00002001      -0.00001448
O        1.46068268       1.03285692       6.32782185       0.00187147       0.00131822       0.00000020
O        5.84605755       4.13378716       6.32782233      -0.00186110      -0.00130928       0.00000154
O        4.74971338       1.03285643       4.42889876      -0.00093985       0.00131994       0.00162506
O        2.55702590       4.13378690       8.22674465       0.00093079      -0.00131041      -0.00160968
O        2.55702564       4.13378689       4.42889817       0.00093371      -0.00131679       0.00161803
O        4.74971335       1.03285710       8.22674465      -0.00093520       0.00131696      -0.00161958
