9
Lattice="5.979109779982712 -1.9083527746428986e-07 3.452041016881745 1.993036440223042 5.637158983163956 3.452040970434054 9.75580199184405e-09 -4.9988317866964264e-08 6.904082016866202" Properties=species:S:1:pos:R:3:forces:R:3 energy=-30.607690811157227 free_energy=-30.607690811157227 stress="9.742496331455186e-05 -2.7772543376158865e-08 -1.29664838866006e-08 -2.7772543376158865e-08 9.743023838382214e-05 4.334212544421234e-09 -1.29664838866006e-08 4.334212544421234e-09 9.744048293214291e-05" pbc="T T T"
Rb       1.99303652       1.40928987       3.45204112       0.00000022      -0.00000002      -0.00000002
Rb       5.97910955       4.22786899      10.35612279      -0.00000053       0.00000016      -0.00000004
As       0.00000021      -0.00000087       0.00000121       0.00000015       0.00000864      -0.00000831
Se       2.13994687       1.51317091       6.90408206       0.00407708       0.00288162       0.00000066
Se       5.83220048       4.12398846       6.90408162      -0.00407708      -0.00288470       0.00000061
Se       4.90913632       1.51317045       5.30529012      -0.00203840       0.00288136       0.00353089
Se       3.06300948       4.12398758       8.50287430       0.00203739      -0.00288381      -0.00352833
Se       3.06300950       4.12398852       5.30528900       0.00203848      -0.00288455       0.00353175
Se       4.90913603       1.51317128       8.50287394      -0.00203753       0.00288126      -0.00352737
