9
Lattice="5.988623286974815 2.3596283364141322e-07 3.457532825142231 1.9962080401663267 5.6461273630096445 3.4575327292325473 1.1266566461358336e-07 -3.7798172181480125e-08 6.915065455141544" Properties=species:S:1:pos:R:3:forces:R:3 energy=-31.8455753326416 free_energy=-31.8455753326416 stress="-5.939663606113754e-05 1.161537923621836e-07 2.5486935228968832e-08 1.161537923621836e-07 -5.955187953077257e-05 -3.204653964417048e-08 2.5486935228968832e-08 -3.204653964417048e-08 -5.960085036349483e-05" pbc="T T T"
Rb       1.99620826       1.41153173       3.45753266      -0.00000107       0.00000083      -0.00000019
Rb       5.98862381       4.23459555      10.37259832       0.00000002      -0.00000004      -0.00000138
As       0.00000076      -0.00000093      -0.00000060      -0.00001834       0.00001485       0.00001041
S        1.95993535       1.38588361       6.91506496       0.00232840       0.00164717      -0.00000006
S        6.02489539       4.26024373       6.91506523      -0.00232410      -0.00164300       0.00000017
S        5.00865608       1.38588348       5.15488595      -0.00116348       0.00164467       0.00201464
S        2.97617500       4.26024477       8.67524553       0.00117433      -0.00166017      -0.00203264
S        2.97617504       4.26024487       5.15488595       0.00116944      -0.00165313       0.00202656
S        5.00865609       1.38588314       8.67524529      -0.00116521       0.00164878      -0.00201797
