9
Lattice="6.088919441448173 6.875511610335407e-07 3.515440152018778 2.0296404796944056 5.74068776603449 3.515440121450118 7.320016730193994e-07 4.801646105684648e-07 7.030879036173401" Properties=species:S:1:pos:R:3:forces:R:3 energy=-30.62265396118164 free_energy=-30.62265396118164 stress="-5.427895666798577e-05 4.332892089564666e-08 -1.1287426104900078e-07 4.332892089564666e-08 -5.431802128441632e-05 1.6193520480101142e-07 -1.1287426104900078e-07 1.6193520480101142e-07 -5.4311796702677384e-05" pbc="T T T"
Rb       2.02964018       1.43517257       3.51543983      -0.00000115      -0.00000252      -0.00000172
Rb       6.08892040       4.30551676      10.54631879      -0.00000076       0.00000103       0.00000128
Bi       0.00000183       0.00000071      -0.00000015      -0.00000712      -0.00000747       0.00003604
S        1.98969401       1.40692786       7.03087720       0.00275642       0.00194779       0.00000236
S        6.12886915       4.33376229       7.03088013      -0.00275171      -0.00194272       0.00000035
S        5.09407123       1.40692712       5.23856509      -0.00136718       0.00193512       0.00237289
S        3.02448718       4.33376260       8.82319467       0.00138125      -0.00195044      -0.00238934
S        3.02448552       4.33376104       5.23856478       0.00137720      -0.00194392       0.00238416
S        5.09407337       1.40692463       8.82319736      -0.00138697       0.00196290      -0.00240588
