9
Lattice="6.747652308777465 5.6228939113397545e-08 3.8957590948863383 2.2492175211762477 6.361747646789254 3.895759039627082 1.1718242724264012e-07 1.51820319830452e-08 7.791517986806767" Properties=species:S:1:pos:R:3:forces:R:3 energy=-28.289825439453125 free_energy=-28.289825439453125 stress="7.1667100201011635e-06 1.7353509740303252e-09 -6.5066410037672995e-09 1.7353509740303252e-09 7.1550589382241014e-06 3.6762268784684693e-09 -6.5066410037672995e-09 3.6762268784684693e-09 7.1580307121621445e-06" pbc="T T T"
Rb       2.24921760       1.59043637       3.89575903       0.00000009       0.00000054      -0.00000041
Rb       6.74765249       4.77131148      11.68727724       0.00000017      -0.00000039       0.00000105
Bi       0.00000150       0.00000050       0.00000198      -0.00000236      -0.00000081      -0.00000198
Te       2.55519238       1.80679343       7.79151818      -0.00063038      -0.00044517      -0.00000031
Te       6.44167585       4.55495277       7.79151869       0.00063074       0.00044538       0.00000012
Te       5.47005613       1.80679394       6.10862106       0.00031555      -0.00044486      -0.00054556
Te       3.52681501       4.55495258       9.47441413      -0.00031522       0.00044602       0.00054657
Te       3.52681340       4.55495396       6.10862046      -0.00031456       0.00044486      -0.00054535
Te       5.47005544       1.80679586       9.47441380       0.00031587      -0.00044559       0.00054596
