9
Lattice="6.189313926325573 -9.122217864645512e-07 3.5734016936497905 2.0631040031098515 5.835341426946293 3.5734013107761022 1.2591943733286386e-07 -3.798841245339171e-07 7.146803169200775" Properties=species:S:1:pos:R:3:forces:R:3 energy=-30.216371536254883 free_energy=-30.216371536254883 stress="-0.00017692129767965525 -6.912282657367541e-08 3.138971749194752e-08 -6.912282657367541e-08 -0.0001768863876350224 4.9610534347266366e-08 3.138971749194752e-08 4.9610534347266366e-08 -0.00017637787095736712" pbc="T T T"
Rb       2.06310443       1.45883493       3.57340062       0.00000099       0.00000174      -0.00000041
Rb       6.18931389       4.37650525      10.72020444      -0.00000275      -0.00000062      -0.00000204
Bi      -0.00000024       0.00000145      -0.00000363      -0.00000108      -0.00000330       0.00000610
Se       2.43891292       1.72457219       7.14680236      -0.00142309      -0.00100343      -0.00000692
Se       5.81350473       4.11076869       7.14680082       0.00142053       0.00100847      -0.00000964
Se       4.96985581       1.72457433       5.68556836       0.00071006      -0.00100252      -0.00123136
Se       3.28255877       4.11077049       8.60803973      -0.00072101       0.00102054       0.00122876
Se       3.28256334       4.11076641       5.68556983      -0.00070699       0.00100251      -0.00122350
Se       4.96985877       1.72456681       8.60804230       0.00072335      -0.00102337       0.00123899
