9
Lattice="6.472459712241468 -1.1302704114837855e-06 3.7368777167241904 2.1574849497240174 6.102293534049402 3.7368786786952697 -8.39045586220156e-07 5.848739797772684e-07 7.4737568867181565" Properties=species:S:1:pos:R:3:forces:R:3 energy=-27.017230987548828 free_energy=-27.017230987548828 stress="-2.859423875634093e-05 3.622034938643992e-08 3.366008982652602e-08 3.622034938643992e-08 -2.836059866240248e-05 1.8910297328034176e-08 3.366008982652602e-08 1.8910297328034176e-08 -2.8485486836871132e-05" pbc="T T T"
Rb       2.15748743       1.52557338       3.73687725       0.00000246      -0.00000479       0.00000135
Rb       6.47245680       4.57671899      11.21063482      -0.00000182       0.00000305      -0.00000351
Ga      -0.00000489       0.00000210      -0.00000012       0.00000198      -0.00000416      -0.00000490
Te       2.37351268       1.67833390       7.47375773       0.00071111       0.00050455       0.00000166
Te       6.25643554       4.42395962       7.47375520      -0.00071520      -0.00049876       0.00000292
Te       5.28570253       1.67833013       5.79240170      -0.00035196       0.00049838       0.00061341
Te       3.34423783       4.42396515       9.15511336       0.00035655      -0.00050265      -0.00061959
Te       3.34424376       4.42396195       5.79240610       0.00035383      -0.00050266       0.00062048
Te       5.28570354       1.67832646       9.15510672      -0.00035704       0.00050697      -0.00061180
