9
Lattice="5.91657504208443 4.323842582074373e-07 3.415935913522098 1.972192191083421 5.578199586663355 3.4159357355835125 -6.160560491461899e-08 -2.6149107864182184e-07 6.831871933748144" Properties=species:S:1:pos:R:3:forces:R:3 energy=-28.504688262939453 free_energy=-28.504688262939453 stress="-0.0001693918602541089 4.947376908148726e-08 -1.4173142659501536e-08 4.947376908148726e-08 -0.00016930190031416714 1.1128554966433057e-08 -1.4173142659501536e-08 1.1128554966433057e-08 -0.00016948490520007908" pbc="T T T"
Rb       1.97219208       1.39454925       3.41593619      -0.00000163      -0.00000061       0.00000173
Rb       5.91657569       4.18365022      10.24780831      -0.00000229      -0.00000002       0.00000166
Ga      -0.00000143      -0.00000166       0.00000212      -0.00000044      -0.00000230       0.00000385
Se       2.25448124       1.59415893       6.83187282      -0.00455576      -0.00322117       0.00000379
Se       5.63428834       3.98404199       6.83187200       0.00456560       0.00322202       0.00000345
Se       4.78933787       1.59415550       5.36837000       0.00228514      -0.00323075      -0.00395501
Se       3.09943119       3.98404134       8.29537319      -0.00228006       0.00322077       0.00395423
Se       3.09942842       3.98404501       5.36836801      -0.00228819       0.00323412      -0.00396340
Se       4.78933534       1.59415827       8.29537155       0.00227743      -0.00322206       0.00394972
