9
Lattice="5.544248463424903 -1.3745184882731954e-07 3.200973036248458 1.8480826803865409 5.227167199588174 3.200973055585606 -9.895493480982475e-08 -4.628869590887609e-08 6.401946243891833" Properties=species:S:1:pos:R:3:forces:R:3 energy=-36.67193603515625 free_energy=-36.67193603515625 stress="-5.260909892967902e-05 4.539955966720299e-08 6.58414966991927e-09 4.539955966720299e-08 -5.257781594991684e-05 1.4175261853210941e-08 6.58414966991927e-09 1.4175261853210941e-08 -5.262512058834545e-05" pbc="T T T"
Rb       1.84808274       1.30679150       3.20097303       0.00000020      -0.00000000      -0.00000001
Rb       5.54424810       3.92037557       9.60291897      -0.00000035       0.00000006       0.00000037
Ga       0.00000028       0.00000030       0.00000003       0.00000262      -0.00000685      -0.00000277
O        1.56857361       1.10914853       6.40194616       0.00714457       0.00505054      -0.00000012
O        5.82375785       4.11801904       6.40194630      -0.00714117      -0.00504801      -0.00000007
O        4.75996148       1.10914816       4.55939696      -0.00357446       0.00505209       0.00618696
O        2.63236954       4.11801818       8.24449490       0.00357136      -0.00504902      -0.00618333
O        2.63236929       4.11801854       4.55939702       0.00357184      -0.00505149       0.00618547
O        4.75996138       1.10914836       8.24449518      -0.00357485       0.00505254      -0.00618649
