9
Lattice="5.573410839572613 5.681287233791276e-07 3.2178091327887075 1.8578042331284623 5.2546618816809465 3.2178089867757897 -3.182773393254455e-07 -4.0388446795223364e-07 6.435618816849636" Properties=species:S:1:pos:R:3:forces:R:3 energy=-39.30933380126953 free_energy=-39.30933380126953 stress="6.034023954271106e-06 2.95500285574235e-07 -5.0631538961454226e-09 2.95500285574235e-07 5.797248377348296e-06 -6.974143929028287e-08 -5.0631538961454226e-09 -6.974143929028287e-08 5.749232968810247e-06" pbc="T T T"
Rb       1.85780322       1.31366420       3.21780973      -0.00000038      -0.00000487      -0.00000068
Rb       5.57341119       3.94099556       9.65342744       0.00000005      -0.00000488      -0.00000034
N       -0.00000015       0.00000542      -0.00000036       0.00000095      -0.00008986      -0.00000178
O        1.28330609       0.90744145       6.43561924       0.00018239       0.00013936       0.00000141
O        6.14788893       4.34721912       6.43562020      -0.00017524      -0.00010800      -0.00000312
O        4.93175997       0.90743900       4.32918290      -0.00010991       0.00017083       0.00018501
O        2.49946628       4.34722050       8.54203500       0.00010633      -0.00013685      -0.00017285
O        2.49946555       4.34722166       4.32919991       0.00010622      -0.00013089       0.00017142
O        4.93175860       0.90744098       8.54205270      -0.00011003       0.00016356      -0.00017774
