9
Lattice="5.642363981999441 2.2867118297804213e-07 3.257620077450498 1.880788121848123 5.319672724231747 3.2576202294292584 -2.4714629020613847e-07 1.1376299499606747e-08 6.515240582970917" Properties=species:S:1:pos:R:3:forces:R:3 energy=-40.75161361694336 free_energy=-40.75161361694336 stress="-6.064909393899143e-05 -6.155951126629589e-08 -9.692615776657476e-08 -6.155951126629589e-08 -6.061664316803217e-05 9.666936762187106e-08 -9.692615776657476e-08 9.666936762187106e-08 -6.069130904506892e-05" pbc="T T T"
Rb       1.88078781       1.32991851       3.25762016       0.00000050       0.00000029      -0.00000119
Rb       5.64236394       3.98975447       9.77286059      -0.00000016       0.00000072       0.00000056
Sb      -0.00000016       0.00000033      -0.00000042       0.00002490      -0.00003705      -0.00001114
O        1.55448030       1.09918441       6.51524054       0.00284618       0.00201634       0.00000035
O        5.96867158       4.22048855       6.51524029      -0.00284702      -0.00201333       0.00000177
O        4.86512412       1.09918366       4.60384008      -0.00142807       0.00201824       0.00247091
O        2.65802787       4.22048863       8.42664092       0.00141209      -0.00199834      -0.00244874
O        2.65802811       4.22048916       4.60384017       0.00141957      -0.00200668       0.00246209
O        4.86512379       1.09918391       8.42664078      -0.00142819       0.00202033      -0.00247478
