9
Lattice="6.068965475805957 1.4284146395835236e-07 3.5039176348113252 2.0229883733813785 5.7218754161375625 3.5039180734116906 -4.7386335033139826e-07 2.0210174794325232e-07 7.00783609037797" Properties=species:S:1:pos:R:3:forces:R:3 energy=-30.45789337158203 free_energy=-30.45789337158203 stress="7.75984808569774e-05 -3.700538897533079e-08 -1.2889016076655935e-08 -3.700538897533079e-08 7.742163870716467e-05 -6.361081261729851e-08 -1.2889016076655935e-08 -6.361081261729851e-08 7.761143933748826e-05" pbc="T T T"
Rb       2.02298710       1.43046855       3.50391629      -0.00000020      -0.00000093      -0.00000035
Rb       6.06896591       4.29140733      10.51175378      -0.00000270      -0.00000506      -0.00000120
Sb      -0.00000329      -0.00000298      -0.00000274       0.00000302      -0.00000141       0.00000037
Se       2.36713747       1.67381648       7.00783381       0.00378101       0.00266799      -0.00000749
Se       5.72482642       4.04806392       7.00783533      -0.00374992      -0.00265159      -0.00000383
Se       4.88539316       1.67381560       5.55391689      -0.00189582       0.00266427       0.00327009
Se       3.20655240       4.04806237       8.46176146       0.00186992      -0.00265424      -0.00325385
Se       3.20655504       4.04805880       5.55391704       0.00187972      -0.00267182       0.00325857
Se       4.88539906       1.67381309       8.46175613      -0.00188500       0.00265276      -0.00326231
