9
Lattice="6.00318838008332 -6.09392399768842e-08 3.465942194679953 2.0010627703689887 5.65986036630129 3.4659421349900166 2.3280224307291297e-08 -5.6643313171690703e-08 6.9318843490373805" Properties=species:S:1:pos:R:3:forces:R:3 energy=-31.583986282348633 free_energy=-31.583986282348633 stress="-3.5384102375246584e-05 1.6497116561708935e-08 1.0667761785043695e-08 1.6497116561708935e-08 -3.5415374441072345e-05 -1.2446843555835585e-08 1.0667761785043695e-08 -1.2446843555835585e-08 -3.5426044632913545e-05" pbc="T T T"
Rb       2.00106270       1.41496483       3.46594249       0.00000050       0.00000131      -0.00000015
Rb       6.00318833       4.24489531      10.39782632       0.00000112      -0.00000070       0.00000064
Sb      -0.00000037       0.00000020       0.00000029       0.00000282      -0.00000353      -0.00000507
S        1.99561651       1.41111392       6.93188421       0.00060904       0.00043106      -0.00000030
S        6.00863414       4.24874632       6.93188432      -0.00060850      -0.00043154      -0.00000035
S        5.00538039       1.41111401       5.19419706      -0.00030762       0.00043511       0.00053209
S        2.99887126       4.24874596       8.66957159       0.00030351      -0.00043046      -0.00052726
S        2.99887138       4.24874586       5.19419686       0.00030479      -0.00043207       0.00052911
S        5.00538000       1.41111455       8.66957142      -0.00030524       0.00043106      -0.00052881
