9
Lattice="6.078095748203605 3.133319234413805e-07 3.5091899860649205 2.0260321437137008 5.730484072161658 3.509190103439692 -1.1903836445888042e-07 5.958136130470233e-08 7.01838017831031" Properties=species:S:1:pos:R:3:forces:R:3 energy=-35.247230529785156 free_energy=-35.247230529785156 stress="-1.7482911061961204e-05 3.201277465336716e-08 3.276449334066456e-08 3.201277465336716e-08 -1.7505077266832814e-05 7.699143544925846e-09 3.276449334066456e-08 7.699143544925846e-09 -1.7507103621028364e-05" pbc="T T T"
Rb       2.02603188       1.43262121       3.50919023      -0.00000020       0.00000111       0.00000059
Rb       6.07809592       4.29786323      10.52757003       0.00000043       0.00000018      -0.00000005
Y       -0.00000054      -0.00000025      -0.00000071       0.00000141       0.00000182      -0.00000019
S        2.25470339       1.59431709       7.01838037       0.00234854       0.00165936       0.00000013
S        5.84942402       4.13616777       7.01838034      -0.00234777      -0.00166053      -0.00000187
S        4.95074441       1.59431639       5.46182040      -0.00117573       0.00166066       0.00203577
S        3.15338398       4.13616776       8.57493953       0.00117369      -0.00166060      -0.00203332
S        3.15338394       4.13616783       5.46182091       0.00117512      -0.00166199       0.00203443
S        4.95074405       1.59431686       8.57493996      -0.00117560       0.00165990      -0.00203545
