9
Lattice="6.31799151274546 6.192071076215659e-08 3.6476942698444574 2.1059972560197155 5.956660163685138 3.647694223555084 -9.252448716350418e-08 -1.2211729774447356e-07 7.295388699945956" Properties=species:S:1:pos:R:3:forces:R:3 energy=-34.310028076171875 free_energy=-34.310028076171875 stress="-0.00010890787962125614 -3.0725753052962546e-09 6.9520349477159016e-09 -3.0725753052962546e-09 -0.00010893474973272532 -1.301188490288041e-08 6.9520349477159016e-09 -1.301188490288041e-08 -0.00010897691390709952" pbc="T T T"
Rb       2.10599697       1.48916521       3.64769417      -0.00000034      -0.00000063      -0.00000068
Rb       6.31799170       4.46749491      10.94308263      -0.00000043       0.00000013      -0.00000110
Y       -0.00000106      -0.00000038      -0.00000042      -0.00000012       0.00000001      -0.00001070
Se       2.40401647       1.69989620       7.29538734      -0.00003051      -0.00002178      -0.00000010
Se       6.01997333       4.25676538       7.29538671       0.00003325       0.00002385      -0.00000053
Se       5.11598227       1.69989722       5.72963323       0.00001363      -0.00002081      -0.00002521
Se       3.30800368       4.25676576       8.86114564      -0.00001834       0.00002458       0.00003123
Se       3.30800616       4.25676212       5.72963380      -0.00001466       0.00002109      -0.00002523
Se       5.11598519       1.69989402       8.86114571       0.00001749      -0.00002648       0.00003228
