9
Lattice="4.224637530840646 1.3106083910183178e-09 2.4390955832902312 1.4082124895907988 3.983026483806343 2.4390956212655737 -3.862851672481544e-09 4.377865595434267e-08 4.878191173271114" Properties=species:S:1:pos:R:3:forces:R:3 energy=-64.06327056884766 free_energy=-64.06327056884766 stress="-6.271891470532864e-05 -7.95683874343922e-09 -4.446384593848052e-08 -7.95683874343922e-09 -6.273548933677375e-05 1.6353544651792618e-07 -4.446384593848052e-08 1.6353544651792618e-07 -6.288627628237009e-05" pbc="T T T"
Re       1.40821222       0.99575758       2.43909627       0.00000069       0.00000971       0.00005679
Re       4.22463695       2.98727086       7.31728746       0.00000514       0.00000273       0.00005503
Ga       0.00000116      -0.00000119       0.00000557      -0.00017633       0.00017330      -0.00084337
N        1.58303899       1.11937712       4.87819114      -0.00051582      -0.00036606      -0.00003024
N        4.04981118       2.86364843       4.87819098       0.00054061       0.00038671      -0.00003170
N        3.43311875       1.11937645       3.81004625       0.00016990      -0.00024492      -0.00032699
N        2.19973266       2.86364793       5.94633374      -0.00036108       0.00051105       0.00059456
N        2.19973096       2.86365019       3.81004525      -0.00009707       0.00014058      -0.00019610
N        3.43311723       1.11937874       5.94633289       0.00043404      -0.00061297       0.00072229
