9
Lattice="5.432035336672789 2.1398837926826166e-07 3.1361870888632453 1.8106786289659695 5.121372154367083 3.1361871206321346 1.630617317474452e-08 5.0439025972732766e-08 6.27237414948336" Properties=species:S:1:pos:R:3:forces:R:3 energy=-36.469539642333984 free_energy=-36.469539642333984 stress="-0.00015016569523140788 -7.026365977935711e-08 -2.970129919788178e-09 -7.026365977935711e-08 -0.00015034170064609498 -1.1779446751347677e-08 -2.970129919788178e-09 -1.1779446751347677e-08 -0.0001503988023614511" pbc="T T T"
Rh       1.81067465       1.28034407       3.13618772      -0.00003187       0.00000685       0.00000460
Rh       5.43203825       3.84102858       9.40856286       0.00002323      -0.00000652       0.00001160
As       0.00000020       0.00000001      -0.00000024       0.00000017      -0.00000042       0.00000203
Se       2.08546200       1.47464519       6.27237399      -0.00302732      -0.00213543      -0.00000359
Se       5.15725191       3.64672680       6.27237394       0.00303352       0.00213483      -0.00000292
Se       4.38930559       1.47464535       4.94225044       0.00152117      -0.00213796      -0.00261742
Se       2.85340856       3.64672767       7.60249701      -0.00152111       0.00214019       0.00261468
Se       2.85340923       3.64672766       4.94225063      -0.00151868       0.00214088      -0.00261959
Se       4.38930557       1.47464434       7.60249711       0.00152098      -0.00214240       0.00261050
