9
Lattice="5.399878916641221 4.2333133680765805e-08 3.1176215565741487 1.799959684219066 5.09105471865979 3.1176215471750415 -2.9920396559836454e-08 -3.2668432738866685e-08 6.2352431649719575" Properties=species:S:1:pos:R:3:forces:R:3 energy=-35.44185256958008 free_energy=-35.44185256958008 stress="0.00028408519574441016 -1.0942665662483364e-09 1.6738004759986325e-08 -1.0942665662483364e-09 0.0002840178203769028 -3.1866946414993436e-08 1.6738004759986325e-08 -3.1866946414993436e-08 0.00028408109210431576" pbc="T T T"
Rh       1.79996001       1.27276297       3.11762164       0.00000466      -0.00000737       0.00000149
Rh       5.39987912       3.81829175       9.35286401       0.00000213       0.00000671      -0.00000459
As      -0.00000004       0.00000010      -0.00000029       0.00000063      -0.00000070      -0.00000184
S        1.90000358       1.34350505       6.23524311      -0.00662512      -0.00469083       0.00000101
S        5.29983521       3.74754975       6.23524346       0.00662482       0.00468946       0.00000363
S        4.44987698       1.34350476       4.76307280       0.00330800      -0.00469106      -0.00573820
S        2.74996114       3.74754992       7.70741339      -0.00331268       0.00469297       0.00573593
S        2.74996107       3.74754964       4.76307320      -0.00331527       0.00468820      -0.00573689
S        4.44987716       1.34350505       7.70741378       0.00331232      -0.00468737       0.00573939
