9
Lattice="4.414859054371468 8.181049502971026e-08 2.548920054972414 1.4716196846541956 4.162369304854479 2.5489201888044732 -1.123610254480564e-07 8.445887691191042e-08 5.09784030455983" Properties=species:S:1:pos:R:3:forces:R:3 energy=-48.36247253417969 free_energy=-48.36247253417969 stress="0.00041940578375943005 2.1445867304237254e-08 2.5268729331173745e-08 2.1445867304237254e-08 0.00041946119745261967 4.2150546164521074e-08 2.5268729331173745e-08 4.2150546164521074e-08 0.0004196607042104006" pbc="T T T"
Rh       1.47162006       1.04059294       2.54892036       0.00000742       0.00000653       0.00000494
Rh       4.41486034       3.12177577       7.64676025       0.00001992      -0.00001977       0.00000214
As      -0.00000030       0.00000019      -0.00000001       0.00001089      -0.00000516       0.00000269
O        1.45378578       1.02798319       5.09784015      -0.00297332      -0.00209439       0.00000170
O        4.43269211       3.13438684       5.09784034       0.00296271       0.00210071       0.00000052
O        3.68796518       1.02798280       3.80793592       0.00147551      -0.00209594      -0.00257790
O        2.19851257       3.13438681       6.38774436      -0.00148916       0.00209892       0.00257456
O        2.19851277       3.13438690       3.80793646      -0.00149357       0.00210524      -0.00257373
O        3.68796600       1.02798253       6.38774410       0.00147957      -0.00209630       0.00256515
