9
Lattice="4.188718966017002 -2.3250287372332264e-07 2.418357808339967 1.396239383021941 3.9491620183840617 2.418357900331279 -4.4873060874635276e-07 -2.0463449143304256e-07 4.836716393904067" Properties=species:S:1:pos:R:3:forces:R:3 energy=-51.55698776245117 free_energy=-51.55698776245117 stress="0.00023914947814773768 -6.420363263259787e-08 5.465443564389716e-08 -6.420363263259787e-08 0.00023972283815965056 4.146890262290981e-07 5.465443564389716e-08 4.146890262290981e-07 0.00023883412359282374" pbc="T T T"
Rh       1.39623766       0.98728900       2.41835821      -0.00002232      -0.00000743      -0.00000330
Rh       4.18871693       2.96187303       7.25507216      -0.00002034       0.00001192      -0.00002416
As       0.00000058      -0.00000017       0.00000015       0.00000227      -0.00000308       0.00000966
N        1.51159267       1.06885812       4.83671785      -0.00049120      -0.00035059       0.00002195
N        4.07336522       2.88030391       4.83671740       0.00050199       0.00035167       0.00001212
N        3.43292095       1.06885809       3.72743508       0.00024638      -0.00035363      -0.00043964
N        2.15203751       2.88030400       5.94599626      -0.00023660       0.00036067       0.00043792
N        2.15203626       2.88030376       3.72743611      -0.00024125       0.00035274      -0.00042623
N        3.43292363       1.06885658       5.94599515       0.00026140      -0.00036186       0.00041240
