9
Lattice="4.607410279675273 -9.572735172267102e-08 2.6600893132328216 1.5358033690122554 4.3439075491783745 2.6600892565835785 -5.684722949711035e-08 -1.095779317366109e-07 5.320178724927919" Properties=species:S:1:pos:R:3:forces:R:3 energy=-37.72499084472656 free_energy=-37.72499084472656 stress="-0.0002887123846448958 4.856491386817652e-07 -4.543052600780584e-09 4.856491386817652e-07 -0.00028734197258017957 6.66156765305459e-08 -4.543052600780584e-09 6.66156765305459e-08 -0.00028777585248462856" pbc="T T T"
Rh       1.53581479       1.08597862       2.66009038       0.00028124       0.00003782       0.00002475
Rh       4.60741296       3.25793880       7.98026848       0.00005624       0.00021047       0.00001156
Au      -0.00000041      -0.00000029      -0.00000013      -0.00001340      -0.00001407       0.00000993
O        1.61571474       1.14247958       5.32017755      -0.00004375      -0.00010812      -0.00002058
O        4.52749858       3.20142752       5.32017953       0.00003839       0.00009882       0.00000528
O        3.79954831       1.14247909       4.05933690      -0.00009009      -0.00011808      -0.00008398
O        2.34365857       3.20142438       6.58101979      -0.00006771       0.00001228       0.00007087
O        2.34365937       3.20142413       4.05933690      -0.00006154       0.00001222      -0.00008380
O        3.79954758       1.14247753       6.58101967      -0.00009960      -0.00013131       0.00006640
