9
Lattice="5.436375940667366 3.2104555656822834e-08 3.1386932528747 1.8121253251655896 5.12546452482708 3.1386932851924447 -9.470277250853892e-09 3.288450568996055e-08 6.277386522152368" Properties=species:S:1:pos:R:3:forces:R:3 energy=-32.94430923461914 free_energy=-32.94430923461914 stress="-3.15533579851035e-05 -3.0853680499376424e-08 7.690267089799363e-09 -3.0853680499376424e-08 -3.1497012969339266e-05 -1.5565033706366194e-08 7.690267089799363e-09 -1.5565033706366194e-08 -3.1459887395612895e-05" pbc="T T T"
Rh       1.81212529       1.28136586       3.13869352      -0.00000406      -0.00000361       0.00000398
Rh       5.43637599       3.84409812       9.41607986       0.00000172      -0.00000302      -0.00000108
Au      -0.00000018      -0.00000017       0.00000015       0.00000093       0.00000680      -0.00000956
S        1.95338588       1.38125277       6.27738668      -0.00362939      -0.00256562       0.00000063
S        5.29511494       3.74421236       6.27738635       0.00362697       0.00256678      -0.00000027
S        4.45968279       1.38125223       4.83037543       0.00181171      -0.00256860      -0.00314125
S        2.78881804       3.74421189       7.72439759      -0.00181487       0.00256824       0.00314331
S        2.78881834       3.74421215       4.83037538      -0.00181459       0.00256607      -0.00314102
S        4.45968389       1.38125317       7.72439728       0.00182143      -0.00256711       0.00314525
