9
Lattice="5.516512025503845 1.1492853198902656e-08 3.1849596581850266 1.8388373448926398 5.2010174258953725 3.184959671656205 4.056701509808519e-08 4.518392648246598e-08 6.3699192461059555" Properties=species:S:1:pos:R:3:forces:R:3 energy=-33.526649475097656 free_energy=-33.526649475097656 stress="0.00019180237723048776 1.702800744851629e-08 -9.632540098891695e-08 1.702800744851629e-08 0.00019180119852535427 -5.686025517093185e-08 -9.632540098891695e-08 -5.686025517093185e-08 0.00019187454017810524" pbc="T T T"
Rh       1.83883776       1.30025533       3.18495660       0.00000645       0.00000811      -0.00003856
Rh       5.51651066       3.90076356       9.55488826      -0.00001321       0.00000408       0.00009621
Au       0.00000019       0.00000009      -0.00000018       0.00000002      -0.00000117       0.00000080
Se       2.12087521       1.49968502       6.36992127      -0.00565311      -0.00400184       0.00002120
Se       5.23447420       3.70133150       6.36991438       0.00566037       0.00399710      -0.00004821
Se       4.45607579       1.49968697       5.02169045       0.00283997      -0.00398254      -0.00490648
Se       2.89927347       3.70133105       7.71814658      -0.00284671       0.00398692       0.00489575
Se       2.89927794       3.70133291       5.02169036      -0.00280063       0.00400671      -0.00491191
Se       4.45607249       1.49968350       7.71814667       0.00280686      -0.00401749       0.00489117
