9
Lattice="5.329919872633431 -9.713354042580529e-08 3.0772306388625577 1.776639923590417 5.025096182639897 3.0772305390543275 -9.884495408609931e-08 -1.9213354675783576e-07 6.154461448929554" Properties=species:S:1:pos:R:3:forces:R:3 energy=-38.237300872802734 free_energy=-38.237300872802734 stress="-1.5905759937595576e-05 -8.724435618390203e-10 2.752245542581022e-08 -8.724435618390203e-10 -1.5861462088651024e-05 4.1239367476464395e-08 2.752245542581022e-08 4.1239367476464395e-08 -1.6007012163754553e-05" pbc="T T T"
Rh       1.77663733       1.25627193       3.07723273      -0.00002715      -0.00002118       0.00002186
Rh       5.32992019       3.76882377       9.23168919       0.00000497       0.00001839      -0.00002670
B       -0.00000021       0.00000012      -0.00000018      -0.00000398       0.00000020       0.00000125
Se       1.66657806       1.17844799       6.15446105       0.00048782       0.00033834      -0.00000812
Se       5.43998167       3.84664798       6.15446308      -0.00048362      -0.00034025       0.00001748
Se       4.49663064       1.17844734       4.52053035      -0.00024363       0.00033235       0.00043027
Se       2.60992965       3.84664886       7.78839265       0.00025211      -0.00033046      -0.00042799
Se       2.60992854       3.84664813       4.52052984       0.00024009      -0.00033874       0.00042756
Se       4.49663291       1.17844742       7.78839185      -0.00022662       0.00034137      -0.00043543
