9
Lattice="5.327391121477842 -8.075167340375915e-08 3.0757706964776417 1.7757969789613097 5.022712672425733 3.075770671186082 -1.4040790970823112e-07 -1.302591558102345e-07 6.151541636148975" Properties=species:S:1:pos:R:3:forces:R:3 energy=-36.58575439453125 free_energy=-36.58575439453125 stress="-3.0296703698695637e-05 1.0946552553292577e-09 1.002765230850855e-07 1.0946552553292577e-09 -3.0451948987320065e-05 5.4955130224243476e-08 1.002765230850855e-07 5.4955130224243476e-08 -3.0407853046199307e-05" pbc="T T T"
Rh       1.77579708       1.25568131       3.07577038      -0.00000145       0.00003409      -0.00000375
Rh       5.32739203       3.76703536       9.22730834       0.00001440       0.00000980      -0.00004513
Be       0.00000007      -0.00000007      -0.00000027      -0.00000197       0.00000891       0.00000746
Se       1.59536184       1.12809129       6.15154156      -0.00005275      -0.00003439      -0.00000019
Se       5.50782689       3.89462051       6.15154361       0.00006104       0.00002551       0.00002589
Se       4.52971010       1.12808942       4.45739568       0.00002453      -0.00005567      -0.00003600
Se       2.57347793       3.89461987       7.84568964      -0.00002071       0.00001550       0.00004977
Se       2.57347554       3.89462055       4.45739465      -0.00004944       0.00002396      -0.00004148
Se       4.52971033       1.12809166       7.84568844       0.00002635      -0.00002772       0.00004351
