9
Lattice="4.151826502437799 -1.1277113598696533e-08 2.397058161056021 1.3839421827143923 3.914379450032475 2.3970581162525857 5.168945731760844e-08 -1.8322838694894603e-08 4.794116232583297" Properties=species:S:1:pos:R:3:forces:R:3 energy=-46.82711410522461 free_energy=-46.82711410522461 stress="-0.0002887404116336256 -9.910794851464289e-09 3.293284578376188e-08 -9.910794851464289e-09 -0.0002890392788685858 -1.5199232450413547e-07 3.293284578376188e-08 -1.5199232450413547e-07 -0.0002889575553126633" pbc="T T T"
Rh       1.38394021       0.97859621       2.39705935      -0.00002319       0.00001893       0.00001802
Rh       4.15182639       2.93578531       7.19117544      -0.00000698       0.00001204       0.00001693
Be      -0.00000004       0.00000015       0.00000020      -0.00000297       0.00000390       0.00000063
O        1.32790961       0.93897342       4.79411570       0.00483155       0.00340891      -0.00000993
O        4.20785993       2.97540489       4.79411597      -0.00482315      -0.00342762      -0.00000722
O        3.48787243       0.93897336       3.54706173      -0.00240749       0.00341377       0.00418788
O        2.04789665       2.97540581       6.04117063       0.00241545      -0.00341550      -0.00419050
O        2.04789742       2.97540526       3.54706056       0.00242510      -0.00342312       0.00417244
O        3.48787241       0.93897330       6.04117049      -0.00240806       0.00340965      -0.00418806
