9
Lattice="4.765148702384658 6.932129796500725e-08 2.7511599550004195 1.588382958964075 4.492625226864374 2.7511599674497362 9.263134093700526e-08 8.074741546453574e-08 5.502319749558605" Properties=species:S:1:pos:R:3:forces:R:3 energy=-37.65118408203125 free_energy=-37.65118408203125 stress="7.072937296470627e-05 5.413139803067679e-08 -8.525240957624192e-08 5.413139803067679e-08 7.096876652212813e-05 -1.2571396368343812e-08 -8.525240957624192e-08 -1.2571396368343812e-08 7.090649160090834e-05" pbc="T T T"
Rh       1.58839128       1.12314587       2.75116286       0.00013235      -0.00017450       0.00005397
Rh       4.76512129       3.36947700       8.25348536      -0.00046180       0.00012889       0.00009874
Be      -0.00000092      -0.00000011       0.00000071      -0.00001671      -0.00000060       0.00000232
S        1.63405152       1.15543656       5.50232023      -0.00031853      -0.00042194      -0.00000882
S        4.71948398       3.33718868       5.50231821       0.00039011       0.00040886      -0.00003680
S        3.94812325       1.15544434       4.16628045       0.00017601      -0.00029159      -0.00043172
S        2.40541542       3.33718445       6.83835752      -0.00006059       0.00035310       0.00040367
S        2.40541756       3.33718163       4.16627668      -0.00002110       0.00031620      -0.00046787
S        3.94812366       1.15544319       6.83835685       0.00018030      -0.00031865       0.00038648
