9
Lattice="5.300310930443892 1.7011815953650771e-07 3.060136149505962 1.7667704307065017 4.997181674695159 3.0601362184940344 1.3783531337377882e-07 1.819571862216102e-07 6.12027206027406" Properties=species:S:1:pos:R:3:forces:R:3 energy=-40.83019256591797 free_energy=-40.83019256591797 stress="3.4401768061798066e-05 -1.1719209602745195e-08 -2.0686880475295766e-07 -1.1719209602745195e-08 3.419600034249015e-05 -1.266340063921234e-07 -2.0686880475295766e-07 -1.266340063921234e-07 3.435840699239634e-05" pbc="T T T"
Rh       1.76677144       1.24929383       3.06013667       0.00001474      -0.00002323       0.00001123
Rh       5.30031186       3.74788871       9.18039695       0.00000733       0.00003083      -0.00015165
Cr       0.00000030      -0.00000012       0.00000016      -0.00000609       0.00000031       0.00001473
Se       1.93913486       1.37117464       6.12027134       0.00148645       0.00104046      -0.00001284
Se       5.12794489       3.62600877       6.12027720      -0.00149453      -0.00102723       0.00006352
Se       4.33074249       1.37117212       4.73947841      -0.00075996       0.00100973       0.00130716
Se       2.73634015       3.62600679       7.50107034       0.00076841      -0.00103951      -0.00126871
Se       2.73633491       3.62600614       4.73947735       0.00071141      -0.00105432       0.00130558
Se       4.33074509       1.37117720       7.50106932      -0.00072774       0.00106302      -0.00126892
