9
Lattice="5.317988702856905 8.289472080503662e-08 3.07034211871297 1.77266302822069 5.01384845555537 3.0703420336443163 -8.391266040183098e-08 -1.6352278842972734e-07 6.140684382766835" Properties=species:S:1:pos:R:3:forces:R:3 energy=-38.47589874267578 free_energy=-38.47589874267578 stress="-0.00015204938245005906 -2.7309809524922457e-08 6.180022893431669e-08 -2.7309809524922457e-08 -0.00015210811397992074 6.84403218542684e-08 6.180022893431669e-08 6.84403218542684e-08 -0.00015206834359560162" pbc="T T T"
Rh       1.77266457       1.25346619       3.07034016       0.00001947       0.00004384      -0.00002981
Rh       5.31798850       3.76038869       9.21103276      -0.00000461       0.00003399       0.00007929
Co      -0.00000027      -0.00000036      -0.00000031       0.00000044      -0.00000471      -0.00000369
Se       1.93089703       1.36534904       6.14068465      -0.00260794      -0.00185759       0.00000992
Se       5.15975580       3.64849782       6.14067962       0.00261581       0.00183688      -0.00004703
Se       4.35254077       1.36534980       4.74254792       0.00131187      -0.00184436      -0.00226524
Se       2.73810982       3.64849557       7.53882223      -0.00132571       0.00182110       0.00227109
Se       2.73811201       3.64849861       4.74254658      -0.00129093       0.00184166      -0.00227392
Se       4.35253832       1.36534825       7.53882052       0.00128171      -0.00187072       0.00225937
