9
Lattice="5.2265716168255745 -3.3899054110780516e-08 3.017562609546828 1.7421904710867664 4.927659003280441 3.0175626717184003 -1.0285349872456787e-09 7.541699235461317e-08 6.035125220875133" Properties=species:S:1:pos:R:3:forces:R:3 energy=-35.10786819458008 free_energy=-35.10786819458008 stress="-7.721104338997975e-05 1.1208115324734536e-08 -1.68573794923077e-08 1.1208115324734536e-08 -7.722962618572637e-05 -1.0895693236534498e-08 -1.68573794923077e-08 -1.0895693236534498e-08 -7.724898750893772e-05" pbc="T T T"
Rh       1.74219075       1.23191494       3.01756337       0.00000291       0.00000213       0.00001059
Rh       5.22657191       3.69574372       9.05269018       0.00000627      -0.00000601       0.00003543
Cu      -0.00000008       0.00000004      -0.00000012       0.00000079       0.00000290      -0.00000451
S        1.83499034       1.29753453       6.03512543       0.00046915       0.00034043       0.00000056
S        5.13377186       3.63012487       6.03512436      -0.00047630      -0.00033835      -0.00001609
S        4.30907619       1.29753448       4.60671052      -0.00023660       0.00034228       0.00040263
S        2.65968533       3.63012479       7.46353898       0.00022945      -0.00033686      -0.00041699
S        2.65968582       3.63012469       4.60671053       0.00024149      -0.00033817       0.00040507
S        4.30907630       1.29753415       7.46353878      -0.00023749       0.00033149      -0.00041676
