9
Lattice="5.361830886197807 7.39723805757559e-08 3.0956547442335025 1.7872770523157122 5.055182688187192 3.095654708712748 6.723891608362082e-08 4.041201186207327e-09 6.191309372005867" Properties=species:S:1:pos:R:3:forces:R:3 energy=-35.477989196777344 free_energy=-35.477989196777344 stress="-7.133869803510606e-05 5.3067421568187e-09 -2.6828258725686283e-08 5.3067421568187e-09 -7.130215090001002e-05 -3.0734139677690564e-09 -2.6828258725686283e-08 -3.0734139677690564e-09 -7.134831685107201e-05" pbc="T T T"
Rh       1.78728337       1.26379938       3.09565136       0.00007431       0.00004031      -0.00003566
Rh       5.36182748       3.79138711       9.28696120      -0.00004639      -0.00000283      -0.00002867
Cu       0.00000012      -0.00000014      -0.00000015      -0.00000328      -0.00000116       0.00000258
Se       2.00965791       1.42104066       6.19131073      -0.00016472      -0.00013477       0.00001606
Se       5.13945066       3.63414028       6.19131094       0.00016993       0.00012398       0.00001255
Se       4.35700004       1.42104277       4.83606721       0.00006287      -0.00011659      -0.00016686
Se       2.79210645       3.63413770       7.54655298      -0.00007470       0.00009227       0.00018188
Se       2.79210611       3.63413999       4.83606818      -0.00007731       0.00010908      -0.00016102
Se       4.35699982       1.42104325       7.54655289       0.00005931      -0.00011033       0.00017902
