9
Lattice="4.184565442802624 1.0813753516114596e-08 2.4159600850789285 1.3948551570825174 3.945246095967315 2.41596008631503 4.028145869979287e-08 2.999720248934914e-08 4.8319201003883245" Properties=species:S:1:pos:R:3:forces:R:3 energy=-50.87030029296875 free_energy=-50.87030029296875 stress="0.00030835578218102455 -3.809397597365205e-08 3.564720785220743e-08 -3.809397597365205e-08 0.00030798601801507175 8.336490253668671e-08 3.564720785220743e-08 8.336490253668671e-08 0.0003086309880018234" pbc="T T T"
Rh       1.39485494       0.98631176       2.41596013      -0.00000555       0.00000113      -0.00000171
Rh       4.18456516       2.95893455       7.24788010      -0.00000175       0.00000429       0.00000246
C       -0.00000056       0.00000040       0.00000017      -0.00000403       0.00000070      -0.00000048
O        1.20362011       0.85108760       4.83191997      -0.00326157      -0.00230248      -0.00000233
O        4.37580085       3.09415824       4.83192012       0.00325555       0.00229877       0.00000363
O        3.58275575       0.85108774       3.45832593       0.00163397      -0.00230323      -0.00283065
O        1.99666513       3.09415827       6.20551457      -0.00162420       0.00230440       0.00282875
O        1.99666531       3.09415814       3.45832568      -0.00162782       0.00229862      -0.00282925
O        3.58275587       0.85108786       6.20551446       0.00163451      -0.00230053       0.00283024
