9
Lattice="4.827452774599656 1.3990243784954623e-08 2.787131196496051 1.6091509000177213 4.551364901909476 2.7871312623814655 -9.221975099990035e-08 1.548366065134773e-08 5.574262552721429" Properties=species:S:1:pos:R:3:forces:R:3 energy=-39.65079879760742 free_energy=-39.65079879760742 stress="4.2556515836622566e-05 -7.715759409165912e-08 1.861026106553254e-07 -7.715759409165912e-08 4.2624440538929775e-05 1.1158366675090292e-07 1.861026106553254e-07 1.1158366675090292e-07 4.234805965097621e-05" pbc="T T T"
Rh       1.60915823       1.13783022       2.78712298       0.00013380      -0.00019573      -0.00016605
Rh       4.82744472       3.41353057       8.36141006      -0.00015252       0.00012672       0.00028091
C       -0.00000350      -0.00000135      -0.00001080      -0.00008219      -0.00003984      -0.00023587
S        1.61420435       1.14140426       5.57426587       0.00008984      -0.00010793       0.00010152
S        4.82240231       3.40996256       5.57424832      -0.00003119       0.00015457      -0.00019692
S        4.02035249       1.14141306       4.18507016      -0.00000195       0.00003596       0.00001334
S        2.41624955       3.40995566       6.96346003      -0.00001895       0.00004341       0.00007407
S        2.41626224       3.40996066       4.18507155       0.00019733       0.00011660       0.00003240
S        4.02034402       1.14140404       6.96346195      -0.00013416      -0.00013380       0.00009634
