9
Lattice="4.980600932974745 -1.0503021596259629e-07 2.8755510787619594 1.6602001866517608 4.695755520896054 2.875551122611219 -5.263115032099907e-08 1.648832060437302e-08 5.751102248683695" Properties=species:S:1:pos:R:3:forces:R:3 energy=-40.85503005981445 free_energy=-40.85503005981445 stress="7.493340672226623e-05 3.814362514731329e-08 -2.516463482038489e-08 3.814362514731329e-08 7.49519094824791e-05 2.7982679284832557e-08 -2.516463482038489e-08 2.7982679284832557e-08 7.49467290006578e-05" pbc="T T T"
Rh       1.66020559       1.17393654       2.87555333       0.00009383      -0.00003643       0.00004564
Rh       4.98060029       3.52181717       8.62665860      -0.00000681       0.00000749       0.00009379
Co      -0.00000048       0.00000035      -0.00000056      -0.00000742       0.00000351      -0.00001429
S        1.73707241       1.22829515       5.75110124       0.00035784       0.00024052      -0.00001766
S        4.90372760       3.46746091       5.75109971      -0.00038031      -0.00022036      -0.00004442
S        4.11206270       1.22829626       4.37989790      -0.00021115       0.00026272       0.00027116
S        2.52873626       3.46745999       7.12230444       0.00017208      -0.00024618      -0.00031556
S        2.52873694       3.46746019       4.37989868       0.00019595      -0.00024933       0.00028960
S        4.11206295       1.22829510       7.12230435      -0.00021428       0.00023790      -0.00030841
