9
Lattice="4.428115023068492 -2.8449888782371528e-08 2.5565734049149325 1.4760383314862728 4.174866847294244 2.5565733749742545 1.117200961241105e-08 -2.8769900055545023e-08 5.113146790479374" Properties=species:S:1:pos:R:3:forces:R:3 energy=-45.164894104003906 free_energy=-45.164894104003906 stress="0.0003623574448283762 1.1519566811557524e-07 1.8445980742853862e-08 1.1519566811557524e-07 0.000362346472684294 6.225444337815134e-08 1.8445980742853862e-08 6.225444337815134e-08 0.0003624621022026986" pbc="T T T"
Rh       1.47604222       1.04371654       2.55657258       0.00006980      -0.00000484      -0.00001747
Rh       4.42811557       3.13114821       7.66971883       0.00001110      -0.00003546      -0.00002568
Fe      -0.00000004       0.00000013      -0.00000009      -0.00000102      -0.00000155      -0.00000067
O        1.48847172       1.05250985       5.11314663      -0.00109699      -0.00075281       0.00000150
O        4.41568058       3.12235795       5.11314783       0.00107548       0.00077584       0.00001417
O        3.68387762       1.05250904       3.84562764       0.00051904      -0.00075683      -0.00094411
O        2.22027423       3.12235757       6.38066576      -0.00054722       0.00076073       0.00094643
O        2.22027440       3.12235847       3.84562846      -0.00054577       0.00076780      -0.00093326
O        3.68387710       1.05250947       6.38066660       0.00051558      -0.00075322       0.00095850
