9
Lattice="4.953811496417196 2.503036658485731e-07 2.86008444868593 1.6512706787196396 4.670498457856152 2.8600845458100714 2.245585591158798e-07 2.777392052069349e-07 5.720168508425046" Properties=species:S:1:pos:R:3:forces:R:3 energy=-42.24979782104492 free_energy=-42.24979782104492 stress="0.00028419902082532644 -1.21137460951104e-07 -1.6026783100642206e-07 -1.21137460951104e-07 0.00028410041704773903 -6.696117083038189e-08 -1.6026783100642206e-07 -6.696117083038189e-08 0.00028428577934391797" pbc="T T T"
Rh       1.65126985       1.16762537       2.86008138      -0.00001611       0.00001094      -0.00005097
Rh       4.95381144       3.50287120       8.58026714      -0.00000271      -0.00005700       0.00026035
Fe       0.00000052       0.00000096       0.00000107       0.00000017       0.00000088      -0.00002506
S        1.73823603       1.22912102       5.72016829      -0.00585783      -0.00411192       0.00000831
S        4.86684590       3.44137823       5.72016194       0.00586292       0.00412467      -0.00011391
S        4.08469561       1.22912150       4.36544031       0.00296128      -0.00408340      -0.00508973
S        2.52038619       3.44137693       7.07489458      -0.00297861       0.00411388       0.00504902
S        2.52039308       3.44138189       4.36544061      -0.00286686       0.00416031      -0.00508952
S        4.08469108       1.22911883       7.07489488       0.00289780      -0.00415847       0.00505143
