9
Lattice="5.264800182222908 1.1734223436000439e-07 3.039633874842141 1.7549334967453036 4.963701484112939 3.039633888629827 3.8151402592324275e-08 4.386349194737164e-08 6.079267683604173" Properties=species:S:1:pos:R:3:forces:R:3 energy=-33.84629440307617 free_energy=-33.84629440307617 stress="0.00011999876005575061 5.5512959562520336e-08 -4.4966711243432655e-08 5.5512959562520336e-08 0.00011992546205874532 -2.541771904063239e-09 -4.4966711243432655e-08 -2.541771904063239e-09 0.00011996689136140049" pbc="T T T"
Rh       1.75493436       1.24092615       3.03963264       0.00001287       0.00000467      -0.00001742
Rh       5.26480124       3.72277884       9.11889937       0.00001242       0.00004144      -0.00003074
Ga      -0.00000020      -0.00000033      -0.00000102       0.00000549       0.00000568       0.00002541
S        1.86999201       1.32228273       6.07926689       0.00374177       0.00262366      -0.00000177
S        5.14974322       3.64141748       6.07926718      -0.00374213      -0.00265031      -0.00000038
S        4.32980316       1.32228189       4.65909509      -0.00187695       0.00260977       0.00324562
S        2.68992930       3.64141815       7.49944324       0.00188157      -0.00265382      -0.00323662
S        2.68992819       3.64141880       4.65909553       0.00185363      -0.00262597       0.00325091
S        4.32980364       1.32228285       7.49944291      -0.00188847       0.00264455      -0.00323509
