9
Lattice="5.409511153379667 7.186499775988202e-08 3.1231827270665296 1.803170415083859 5.1001361932501394 3.1231827913793424 -6.759312999128771e-08 3.0971240400292654e-08 6.246365571207783" Properties=species:S:1:pos:R:3:forces:R:3 energy=-35.285213470458984 free_energy=-35.285213470458984 stress="-1.2048187272739597e-05 -7.686313807653278e-09 -6.006368380440108e-08 -7.686313807653278e-09 -1.2100024832761846e-05 4.385568530551609e-08 -6.006368380440108e-08 4.385568530551609e-08 -1.2052840247633867e-05" pbc="T T T"
Rh       1.80317071       1.27503420       3.12318350       0.00000122      -0.00000027       0.00001044
Rh       5.40951155       3.82510293       9.36954615       0.00000778       0.00000896      -0.00002734
Ge       0.00000021       0.00000037       0.00000012      -0.00000326      -0.00000755      -0.00000598
S        1.89335544       1.33880456       6.24636517      -0.00344729      -0.00244161      -0.00000652
S        5.31932543       3.76133127       6.24636681       0.00345498       0.00244308       0.00001614
S        4.46283243       1.33880359       4.76287742       0.00171408      -0.00245020      -0.00298202
S        2.74984888       3.76133182       7.72985373      -0.00172493       0.00244692       0.00299370
S        2.74984774       3.76133145       4.76287741      -0.00173205       0.00243917      -0.00298604
S        4.46283370       1.33880501       7.72985393       0.00172931      -0.00243831       0.00298798
