9
Lattice="5.463700672696815 -5.01019413813588e-08 3.1544690088013168 1.8212335717344843 5.151226071158537 3.1544689024439205 1.1104591965306347e-07 -5.1739261434571456e-08 6.30893782526538" Properties=species:S:1:pos:R:3:forces:R:3 energy=-35.58723449707031 free_energy=-35.58723449707031 stress="-1.332784813712351e-05 2.3592159337226803e-08 4.319798563301447e-08 2.3592159337226803e-08 -1.3072141882730648e-05 3.342109877735311e-08 4.319798563301447e-08 3.342109877735311e-08 -1.3090273569105193e-05" pbc="T T T"
Rh       1.82124036       1.28780652       3.15446715       0.00006889      -0.00000661      -0.00001051
Rh       5.46369655       3.86342636       9.46340126      -0.00004710       0.00006854      -0.00005557
Ge      -0.00000003      -0.00000051       0.00000021      -0.00000078       0.00000179      -0.00000028
Se       2.07665924       1.46841546       6.30893728      -0.00016895      -0.00016509      -0.00000006
Se       5.20827574       3.68280883       6.30893959       0.00017798       0.00015162       0.00002253
Se       4.42536803       1.46841512       4.95290799       0.00005996      -0.00016618      -0.00016361
Se       2.85956523       3.68280586       7.66497183      -0.00006720       0.00012216       0.00019082
Se       2.85956311       3.68280805       4.95290749      -0.00008970       0.00013584      -0.00016588
Se       4.42536926       1.46841814       7.66497013       0.00006682      -0.00014211       0.00018251
