9
Lattice="5.463140886196512 5.478103565191526e-08 3.1541459774906753 1.8210469468172408 5.150698802035864 3.154146093358463 -4.3150318845149015e-08 1.1139659892867746e-07 6.308292029719897" Properties=species:S:1:pos:R:3:forces:R:3 energy=-34.08816909790039 free_energy=-34.08816909790039 stress="2.345595021324698e-05 -7.243853517024945e-09 -3.430917772107023e-08 -7.243853517024945e-09 2.347316694795154e-05 -1.6975455707779474e-08 -3.430917772107023e-08 -1.6975455707779474e-08 2.3457747374777682e-05" pbc="T T T"
Rh       1.82104746       1.28767738       3.15414750       0.00000810       0.00003031       0.00001934
Rh       5.46313802       3.86302120       9.46243270      -0.00003199      -0.00003508      -0.00005718
Ga       0.00000012       0.00000018       0.00000031       0.00000137      -0.00000139      -0.00000327
Se       2.06126235       1.45753384       6.30829171      -0.00055480      -0.00038461      -0.00000768
Se       5.22292534       3.69316508       6.30829512       0.00055856       0.00038272       0.00002901
Se       4.43250913       1.45753357       4.93925159       0.00026841      -0.00038353      -0.00048256
Se       2.85168061       3.69316540       7.67733341      -0.00025713       0.00038956       0.00049807
Se       2.85167756       3.69316357       4.93925092      -0.00028094       0.00036915      -0.00048919
Se       4.43251051       1.45753560       7.67733314       0.00028844      -0.00036718       0.00049348
