9
Lattice="4.395352824306546 -8.214160594681775e-08 2.5376580887185516 1.4651174677121697 4.143978472539665 2.5376581977444896 -2.155264605255831e-07 -1.8871232915673353e-08 5.075316550739879" Properties=species:S:1:pos:R:3:forces:R:3 energy=-42.894386291503906 free_energy=-42.894386291503906 stress="0.00020121379930060357 2.624869566147936e-08 5.02376508393354e-07 2.624869566147936e-08 0.00020124376169405878 3.5576266554926406e-07 5.02376508393354e-07 3.5576266554926406e-07 0.00020139216212555766" pbc="T T T"
Rh       1.46512023       1.03600329       2.53765613       0.00006069       0.00019272      -0.00006465
Rh       4.39535444       3.10799202       7.61296437       0.00003798       0.00018476      -0.00021778
Ga       0.00000006       0.00000066      -0.00000050       0.00000270       0.00000601      -0.00001376
O        1.50258604       1.06248461       5.07531887      -0.00043315      -0.00038773       0.00004667
O        4.35788690       3.08148836       5.07532075       0.00049752       0.00027674       0.00009000
O        3.64405691       1.06248215       3.83893676       0.00017360      -0.00043780      -0.00034428
O        2.21640980       3.08148667       6.31170134      -0.00023985       0.00024867       0.00047845
O        2.21640600       3.08148828       3.83893513      -0.00031155       0.00026822      -0.00039321
O        3.64405987       1.06248758       6.31169867       0.00021186      -0.00035191       0.00041848
