9
Lattice="5.434059274909152 4.7519879070647116e-08 3.137355590025912 1.8113530979429542 5.123280027824836 3.1373556567021876 -1.5038949444933187e-07 -2.4679961399656685e-08 6.274711440534061" Properties=species:S:1:pos:R:3:forces:R:3 energy=-40.62323760986328 free_energy=-40.62323760986328 stress="0.0003143093781545758 -4.2641140396426636e-08 6.927623275032602e-08 -4.2641140396426636e-08 0.00031422381289303303 7.620630526616878e-08 6.927623275032602e-08 7.620630526616878e-08 0.0003142228233627975" pbc="T T T"
Rh       1.81135711       1.28081734       3.13735275       0.00003890      -0.00002626      -0.00003143
Rh       5.43406031       3.84246307       9.41207072       0.00001087       0.00003136       0.00003694
Ir      -0.00000037      -0.00000031       0.00000022      -0.00000160       0.00000224      -0.00000058
Se       2.01644663       1.42584243       6.27471215       0.00210419       0.00147544       0.00001145
Se       5.22896493       3.69743922       6.27470975      -0.00211462      -0.00146726      -0.00001723
Se       4.42583545       1.42584255       4.88364912      -0.00105648       0.00148065       0.00181755
Se       2.81957455       3.69743616       7.66577310       0.00103591      -0.00148879      -0.00181949
Se       2.81957721       3.69743875       4.88364975       0.00106069      -0.00147228       0.00182235
Se       4.42583303       1.42584103       7.66577320      -0.00107795       0.00146478      -0.00181967
