9
Lattice="4.491835329644699 -1.6662212149461103e-07 2.593362134452877 1.4972782745742013 4.234942658566282 2.593362154454328 -1.6256514113915593e-07 -9.045420770201927e-08 5.1867245504768205" Properties=species:S:1:pos:R:3:forces:R:3 energy=-48.03650665283203 free_energy=-48.03650665283203 stress="0.0003573974536266178 2.321799854598794e-07 2.570719743744121e-07 2.321799854598794e-07 0.0003580757766030729 2.1818037510001886e-07 2.570719743744121e-07 2.1818037510001886e-07 0.0003578601172193885" pbc="T T T"
Rh       1.49727845       1.05873459       2.59336420      -0.00000761      -0.00001622       0.00003514
Rh       4.49182882       3.17621031       7.78008182      -0.00012221       0.00006972      -0.00009329
Ir       0.00000024      -0.00000010       0.00000014      -0.00000117      -0.00000200      -0.00000327
O        1.52499749       1.07833279       5.18672395       0.00207079       0.00140117      -0.00001386
O        4.46411789       3.15660721       5.18672651      -0.00202901      -0.00143938       0.00004125
O        3.72933648       1.07833385       3.91404745      -0.00103067       0.00142129       0.00177493
O        2.25977935       3.15660815       6.45940252       0.00107924      -0.00143014      -0.00173984
O        2.25977752       3.15660785       3.91404706       0.00104639      -0.00144497       0.00176154
O        3.72933753       1.07833496       6.45940180      -0.00100585       0.00144086      -0.00176247
