9
Lattice="5.155669718563406 3.80374181009626e-08 2.976627251372945 1.7185565763595403 4.860812257938136 2.976627307416801 -8.823087947045843e-08 6.2507784442726996e-09 5.953254655566285" Properties=species:S:1:pos:R:3:forces:R:3 energy=-42.76295471191406 free_energy=-42.76295471191406 stress="-6.959770689718425e-05 -4.486480875698362e-08 2.5635820133373954e-09 -4.486480875698362e-08 -6.96297429385595e-05 -1.7715880318291966e-08 2.5635820133373954e-09 -1.7715880318291966e-08 -6.960817700019106e-05" pbc="T T T"
Rh       1.71855766       1.21520550       2.97662739       0.00001531       0.00003452       0.00000137
Rh       5.15566929       3.64560744       8.92988267      -0.00000463      -0.00001875       0.00001363
Ir      -0.00000007       0.00000110       0.00000017       0.00000022       0.00000444       0.00000005
S        1.85442998       1.31128040       5.95325472       0.00079858       0.00057119       0.00000139
S        5.01979669       3.54953068       5.95325432      -0.00079530      -0.00058299      -0.00000638
S        4.22845415       1.31128121       4.58261000      -0.00040391       0.00058025       0.00067878
S        2.64577147       3.54953094       7.32389829       0.00039554      -0.00058103      -0.00068665
S        2.64577148       3.54953110       4.58261070       0.00039959      -0.00058079       0.00068390
S        4.22845409       1.31128081       7.32389851      -0.00040552       0.00057334      -0.00068593
