9
Lattice="5.34114878899814 1.659262719768688e-07 3.0837138481946833 1.7803830795542104 5.035683403061572 3.083713859537341 3.305772466997667e-07 2.476452683751629e-07 6.167427123812707" Properties=species:S:1:pos:R:3:forces:R:3 energy=-40.52947998046875 free_energy=-40.52947998046875 stress="0.000122586585348472 -5.732703201033473e-09 -6.077025460626828e-08 -5.732703201033473e-09 0.00012244327808730304 -3.1753419449387366e-08 -6.077025460626828e-08 -3.1753419449387366e-08 0.00012259195500519127" pbc="T T T"
Rh       1.78038342       1.25891420       3.08371336       0.00000778      -0.00007723      -0.00000281
Rh       5.34115190       3.77676543       9.25113816       0.00002751       0.00003065      -0.00004140
Mn       0.00000012      -0.00000035      -0.00000006      -0.00000282       0.00000377       0.00000189
Se       1.95499666       1.38238925       6.16742692       0.00269565       0.00189233      -0.00000091
Se       5.16653558       3.65329466       6.16742902      -0.00270614      -0.00187877       0.00001725
Se       4.36364999       1.38238979       4.77679072      -0.00135460       0.00188270       0.00233996
Se       2.75788105       3.65329556       7.55806418       0.00134812      -0.00187436      -0.00234681
Se       2.75787961       3.65329537       4.77679153       0.00133352      -0.00187644       0.00235891
Se       4.36365056       1.38239140       7.55806556      -0.00134896       0.00189739      -0.00232607
