9
Lattice="5.437979237876438 -2.1582952928633216e-08 3.13961894044548 1.8126597563694855 5.126976150224278 3.1396188871688384 -3.0917546998628466e-08 -8.711227565901246e-08 6.2792379344417455" Properties=species:S:1:pos:R:3:forces:R:3 energy=-32.73999786376953 free_energy=-32.73999786376953 stress="0.0003821062855422497 -1.555947726217255e-08 7.947249969220138e-09 -1.555947726217255e-08 0.0003819736302830279 -9.021579039369954e-09 7.947249969220138e-09 -9.021579039369954e-09 0.00038197790854610503" pbc="T T T"
Rh       1.81266065       1.28174427       3.13961854       0.00001386       0.00000153      -0.00000457
Rh       5.43797754       3.84523322       9.41885633      -0.00003024       0.00001491      -0.00000382
Mg      -0.00000017      -0.00000006       0.00000026      -0.00000015       0.00000076      -0.00000289
Se       2.07183849       1.46500976       6.27923763       0.00818473       0.00577472      -0.00000049
Se       5.17880037       3.66196560       6.27923756      -0.00818077      -0.00577824      -0.00000232
Se       4.40206006       1.46501001       4.93388350      -0.00409605       0.00577995       0.00708354
Se       2.84857977       3.66196490       7.62459365       0.00410090      -0.00578749      -0.00707424
Se       2.84857971       3.66196569       4.93388267       0.00410238      -0.00578643       0.00708017
Se       4.40205941       1.46501071       7.62459301      -0.00409473       0.00578028      -0.00707561
