9
Lattice="4.252326040995166 3.037783960296056e-08 2.455081492337292 1.4174420117589666 4.009131364840712 2.4550815452454917 4.538471130489566e-08 9.689086204188932e-08 4.910162906066023" Properties=species:S:1:pos:R:3:forces:R:3 energy=-40.508270263671875 free_energy=-40.508270263671875 stress="-8.988589979708195e-05 2.473456390816864e-07 -3.843202307507454e-07 2.473456390816864e-07 -8.90111259650439e-05 -2.887460652800655e-07 -3.843202307507454e-07 -2.887460652800655e-07 -8.918160892790183e-05" pbc="T T T"
Rh       1.41744951       1.00228188       2.45507718       0.00013997      -0.00001422      -0.00007080
Rh       4.25233094       3.00685007       7.36524370       0.00009790       0.00002072      -0.00001872
Mg       0.00000024      -0.00000024      -0.00000009       0.00001171       0.00000682       0.00000002
O        1.51987239       1.07471210       4.91016589      -0.00195539      -0.00136174       0.00004103
O        4.14989365       2.93442063       4.91016364       0.00190456       0.00139062       0.00001291
O        3.49238760       1.07471100       3.77133014       0.00093020      -0.00139639      -0.00166999
O        2.17737529       2.93441981       6.04899458      -0.00101957       0.00136298       0.00165603
O        2.17737727       2.93441836       3.77132969      -0.00100508       0.00135447      -0.00166686
O        3.49238554       1.07471249       6.04899905       0.00089599      -0.00136334       0.00171620
