9
Lattice="5.441528016336814 -9.621658025073003e-08 3.1416676332338778 1.8138425633328943 5.1303218577666625 3.141667664524265 -8.594191016396618e-08 -2.2447290996327992e-08 6.283335415323426" Properties=species:S:1:pos:R:3:forces:R:3 energy=-42.068546295166016 free_energy=-42.068546295166016 stress="1.0776909221021924e-05 8.544271423716054e-08 -1.563073759314193e-08 8.544271423716054e-08 1.0884477887884714e-05 5.9114874773058546e-08 -1.563073759314193e-08 5.9114874773058546e-08 1.1117899703094736e-05" pbc="T T T"
Rh       1.81383748       1.28258035       3.14167067      -0.00006053       0.00000033       0.00003094
Rh       5.44153331       3.84774321       9.42500571       0.00006281       0.00002101       0.00003047
Mo       0.00000023      -0.00000071      -0.00000117       0.00000038       0.00000702       0.00000379
Se       2.00729554       1.41937314       6.28333513      -0.00759423      -0.00535849      -0.00000711
Se       5.24807541       3.71094845       6.28333628       0.00759041       0.00534949      -0.00000283
Se       4.43788051       1.41937244       4.88003757       0.00380778      -0.00537613      -0.00656796
Se       2.81748729       3.71095044       7.68663097      -0.00381914       0.00537497       0.00653920
Se       2.81748985       3.71094933       4.88003678      -0.00380340       0.00536552      -0.00656399
Se       4.43788245       1.41937036       7.68663091       0.00381598      -0.00538382       0.00653741
