9
Lattice="4.514641581280106 -5.124103241047821e-08 2.606529532907118 1.5048804771190363 4.256444754657433 2.6065295357889484 -4.100653952303422e-08 -2.546650617019461e-08 5.213059136839653" Properties=species:S:1:pos:R:3:forces:R:3 energy=-49.81920623779297 free_energy=-49.81920623779297 stress="1.621357114345301e-06 2.7009567915570187e-09 8.647436544606535e-09 2.7009567915570187e-09 1.600104496901622e-06 2.012970412579307e-08 8.647436544606535e-09 2.012970412579307e-08 1.616652980374056e-06" pbc="T T T"
Rh       1.50487993       1.06411239       2.60652899      -0.00000838       0.00002313      -0.00000894
Rh       4.51464196       3.19233327       7.81958905       0.00000571      -0.00000376       0.00000987
Mo       0.00000015      -0.00000007      -0.00000008      -0.00000160      -0.00000062       0.00000155
O        1.55380829       1.09870860       5.21305916       0.00435030       0.00307721       0.00000391
O        4.46571373       3.15773609       5.21305859      -0.00434893      -0.00308031      -0.00000463
O        3.73773791       1.09870839       3.95216747      -0.00216806       0.00307506       0.00376999
O        2.28178447       3.15773596       6.47395124       0.00217488      -0.00308490      -0.00376928
O        2.28178430       3.15773589       3.95216714       0.00217250      -0.00308371       0.00376743
O        3.73773738       1.09870825       6.47395128      -0.00217703       0.00307810      -0.00377125
