9
Lattice="5.250620034295313 1.7626912978887447e-07 3.0314468405650863 1.7502068524101113 4.950332518246786 3.0314468264947156 1.9890361903776205e-08 -3.168029407132172e-09 6.062893646679088" Properties=species:S:1:pos:R:3:forces:R:3 energy=-42.285423278808594 free_energy=-42.285423278808594 stress="4.8420377424918115e-05 -8.101762460910322e-08 5.97398894797152e-08 -8.101762460910322e-08 4.8389894800493494e-05 -2.3450187569551417e-08 5.97398894797152e-08 -2.3450187569551417e-08 4.8457917728228495e-05" pbc="T T T"
Rh       1.75020696       1.23758219       3.03144510       0.00000084      -0.00001148      -0.00002069
Rh       5.25061944       3.71275080       9.09434420      -0.00000830       0.00001550       0.00004338
Mn       0.00000025      -0.00000020      -0.00000030      -0.00000091       0.00000159      -0.00000134
S        1.81931153       1.28644696       6.06289457       0.00052142       0.00036013       0.00000988
S        5.18151568       3.66388553       6.06289083      -0.00052065      -0.00036240      -0.00002526
S        4.34096483       1.28644731       4.60701665      -0.00025454       0.00036472       0.00044698
S        2.65986224       3.66388510       7.51877085       0.00025693      -0.00036693      -0.00045127
S        2.65986295       3.66388582       4.60701653       0.00026885      -0.00035673       0.00044549
S        4.34096389       1.28644725       7.51877087      -0.00026342       0.00035530      -0.00044769
