9
Lattice="5.323138425123448 8.401753779617683e-08 3.0733154302738397 1.7743795266510944 5.018703375826987 3.073315478082824 -8.87879125002386e-08 -4.228727403459319e-09 6.146631014332816" Properties=species:S:1:pos:R:3:forces:R:3 energy=-44.77460861206055 free_energy=-44.77460861206055 stress="-6.552055856445804e-05 -1.885596567774428e-08 5.077624010141335e-08 -1.885596567774428e-08 -6.561114423675463e-05 5.0618478297792535e-08 5.077624010141335e-08 5.0618478297792535e-08 -6.55791736789979e-05" pbc="T T T"
Rh       1.77438005       1.25467507       3.07331507       0.00000516      -0.00000831      -0.00000361
Rh       5.32313732       3.76402894       9.21994837      -0.00001101       0.00001287       0.00002481
Mo      -0.00000032       0.00000016      -0.00000005       0.00000285      -0.00000260      -0.00000105
S        1.87417045       1.32523809       6.14663059      -0.00146997      -0.00104955      -0.00000104
S        5.22334748       3.69346497       6.14662982       0.00147235       0.00104481      -0.00001134
S        4.38605353       1.32523858       4.69639448       0.00073740      -0.00104260      -0.00127754
S        2.71146464       3.69346473       7.59686777      -0.00073689       0.00104269       0.00127861
S        2.71146525       3.69346521       4.69639423      -0.00072896       0.00104862      -0.00128183
S        4.38605304       1.32523815       7.59686735       0.00072882      -0.00104585       0.00127280
