9
Lattice="4.392268982124857 5.3734880693584114e-08 2.535877580228948 1.4640896983770564 4.1410709325843715 2.5358776027334176 -3.024821098988881e-08 6.173522305680865e-09 5.071755212849333" Properties=species:S:1:pos:R:3:forces:R:3 energy=-49.2588005065918 free_energy=-49.2588005065918 stress="0.00020997181127313524 1.041268333779044e-07 -5.160988969521441e-09 1.041268333779044e-07 0.000209813893889077 7.10915983859195e-08 -5.160988969521441e-09 7.10915983859195e-08 0.00020974870130885392" pbc="T T T"
Rh       1.46408918       1.03526871       2.53587729      -0.00000430       0.00001292      -0.00000363
Rh       4.39226900       3.10580313       7.60763280      -0.00000120       0.00000214      -0.00000463
Mn      -0.00000006       0.00000001      -0.00000020      -0.00000082      -0.00000367       0.00000312
O        1.46849006       1.03837898       5.07175512      -0.00176015      -0.00124630       0.00000072
O        4.38786882       3.10269150       5.07175519       0.00176503       0.00124227       0.00000325
O        3.65802442       1.03837919       3.80762721       0.00088588      -0.00124663      -0.00152229
O        2.19833445       3.10269167       6.33588355      -0.00088258       0.00123945       0.00152622
O        2.19833458       3.10269159       3.80762695      -0.00087997       0.00124155      -0.00152443
O        3.65802417       1.03837917       6.33588360       0.00087819      -0.00124164       0.00152193
