9
Lattice="4.184720183961624 -1.516334904547872e-07 2.4160496714164394 1.394906649663954 3.9453917353244266 2.4160495594598275 2.1797949006947137e-07 1.701652128927757e-08 4.832098965281347" Properties=species:S:1:pos:R:3:forces:R:3 energy=-44.26206970214844 free_energy=-44.26206970214844 stress="0.00013676041271537542 1.6695258864274365e-07 2.3567261564494402e-07 1.6695258864274365e-07 0.00013679136463906616 1.86174034411124e-07 2.3567261564494402e-07 1.86174034411124e-07 0.00013684938312508166" pbc="T T T"
Rh       1.39490265       0.98634433       2.41605611      -0.00006510      -0.00006529       0.00017169
Rh       4.18471749       2.95904089       7.24815293      -0.00004060      -0.00005875       0.00015946
N       -0.00000467      -0.00000962       0.00004573      -0.00014188      -0.00026386       0.00114218
O        1.30114033       0.92004649       4.83209510      -0.00069797      -0.00047445      -0.00010390
O        4.27849517       3.02535193       4.83209739       0.00090230       0.00064576      -0.00006629
O        3.53415914       0.92003647       3.54285588       0.00054359      -0.00070643      -0.00099361
O        2.04548072       3.02534416       6.12131964      -0.00024450       0.00041878       0.00039554
O        2.04547085       3.02536044       3.54285384      -0.00051785       0.00081980      -0.00105143
O        3.53414665       0.92005155       6.12131749       0.00026155      -0.00031757       0.00034547
