9
Lattice="4.343915089360029 -2.3813377849510903e-08 2.507960548715157 1.4479716821307396 4.095482410187677 2.507960534635537 1.532540968140284e-08 -6.407247632450845e-09 5.015921070885945" Properties=species:S:1:pos:R:3:forces:R:3 energy=-42.10573196411133 free_energy=-42.10573196411133 stress="0.00015822003479115665 1.2866770759956125e-08 -4.457233160337637e-08 1.2866770759956125e-08 0.00015832290227990597 4.581789525559543e-08 -4.457233160337637e-08 4.581789525559543e-08 0.0001583534321980551" pbc="T T T"
Rh       1.44797269       1.02387068       2.50796078       0.00001831       0.00000192       0.00000301
Rh       4.34391572       3.07161210       7.52388112       0.00001393       0.00000315      -0.00000965
Ni      -0.00000009      -0.00000015      -0.00000021       0.00000351       0.00000750      -0.00000375
O        1.45348796       1.02777158       5.01592138      -0.00062882      -0.00043865       0.00000298
O        4.33839880       3.06771076       5.01592124       0.00061781       0.00043643       0.00000260
O        3.61717008       1.02777083       3.76671778       0.00029775      -0.00044534      -0.00054067
O        2.17471587       3.06771138       6.26512405      -0.00031112       0.00044379       0.00053723
O        2.17471523       3.06771103       3.76671821      -0.00031649       0.00043380      -0.00053427
O        3.61717090       1.02777131       6.26512422       0.00030552      -0.00044285       0.00054226
