9
Lattice="5.326117061983636 -3.475524808502545e-07 3.0750349823765557 1.7753720299021645 5.021510999079143 3.0750349761700577 -3.324769730568915e-08 -3.111085045900449e-08 6.150070022339718" Properties=species:S:1:pos:R:3:forces:R:3 energy=-37.240013122558594 free_energy=-37.240013122558594 stress="9.327527550340164e-06 2.4334276815807243e-09 -2.697508882931743e-08 2.4334276815807243e-09 9.36567084863782e-06 3.255135538893228e-08 -2.697508882931743e-08 3.255135538893228e-08 9.374727596878074e-06" pbc="T T T"
Rh       1.77538406       1.25537357       3.07503665       0.00014606      -0.00004908       0.00002019
Rh       5.32611925       3.76613009       9.22510457       0.00003072      -0.00003306      -0.00000760
Ni      -0.00000084       0.00000016      -0.00000034      -0.00000718       0.00000553       0.00000230
Se       1.94938805       1.37842793       6.15006908       0.00073814       0.00054482      -0.00001355
Se       5.15209708       3.64308787       6.15007017      -0.00078988      -0.00048774       0.00000395
Se       4.35141820       1.37842677       4.76325355      -0.00043172       0.00053689       0.00061861
Se       2.75006639       3.64308460       7.53688402       0.00037190      -0.00052559      -0.00065222
Se       2.75006569       3.64308449       4.76325540       0.00036536      -0.00053486       0.00064871
Se       4.35141814       1.37842696       7.53688700      -0.00042349       0.00054333      -0.00062045
