9
Lattice="4.259093152995874 -8.139136168329488e-08 2.458988652642019 1.419697724040343 4.015511077390966 2.4589885086886047 1.789672814559934e-08 -1.6365134936701526e-07 4.917977274285991" Properties=species:S:1:pos:R:3:forces:R:3 energy=-53.16181182861328 free_energy=-53.16181182861328 stress="-0.00040940227336250246 6.836698389633966e-07 -3.7872123215265674e-08 6.836698389633966e-07 -0.0004100072546862066 9.972938919133867e-09 -3.7872123215265674e-08 9.972938919133867e-09 -0.0004106978012714535" pbc="T T T"
Rh       1.41969716       1.00387745       2.45898874      -0.00000546      -0.00000757       0.00000112
Rh       4.25909295       3.01163312       7.37696597      -0.00000826      -0.00000354      -0.00000072
P        0.00000121       0.00000117      -0.00000033      -0.00007482      -0.00007426       0.00001245
O        1.35090147       0.95523099       4.91797725       0.00512159       0.00362134      -0.00000046
O        4.32788767       3.06027852       4.91797718      -0.00499523      -0.00353730       0.00000235
O        3.58364288       0.95523107       3.62890274      -0.00255859       0.00360918       0.00442982
O        2.09514849       3.06027999       6.20705143       0.00254315      -0.00361502      -0.00442517
O        2.09514865       3.06028003       3.62890295       0.00253832      -0.00360823       0.00441432
O        3.58364292       0.95523090       6.20705182      -0.00256103       0.00361443      -0.00443482
