9
Lattice="5.344320653848447 -1.2198105805617463e-07 3.0855449169939853 1.7814401003587994 5.03867356074919 3.0855449214727697 3.9858992189818565e-08 3.366995681403945e-08 6.17108976495017" Properties=species:S:1:pos:R:3:forces:R:3 energy=-37.47317123413086 free_energy=-37.47317123413086 stress="-3.8071848962317745e-07 1.0365499747422291e-07 -8.421879726938641e-08 1.0365499747422291e-07 -4.1900779024217627e-07 -5.57517907395777e-08 -8.421879726938641e-08 -5.57517907395777e-08 -2.163300649726807e-08" pbc="T T T"
Rh       1.78145319       1.25967576       3.08554167       0.00011570       0.00006417      -0.00003005
Rh       5.34432471       3.77900705       9.25663572       0.00003308       0.00001533       0.00001086
P       -0.00000087      -0.00000062      -0.00000020      -0.00000603      -0.00000066       0.00000076
Se       2.02791791       1.43395624       6.17109050       0.00820610       0.00580892       0.00000992
Se       5.09784033       3.60471671       6.17108927      -0.00823301      -0.00581869      -0.00000248
Se       4.33035645       1.43395475       4.84177422      -0.00414300       0.00580388       0.00710645
Se       2.79539783       3.60471430       7.50040624       0.00408679      -0.00584093      -0.00710374
Se       2.79539839       3.60471564       4.84177456       0.00409341      -0.00583144       0.00710911
Se       4.33035533       1.43395410       7.50040630      -0.00415298       0.00579958      -0.00710085
