9
Lattice="4.525965555716177 2.4061576422282474e-08 2.613067456632484 1.5086552217104852 4.267121195741025 2.613067432753924 -3.3000213667300844e-08 -5.257981337438103e-08 5.226134970423024" Properties=species:S:1:pos:R:3:forces:R:3 energy=-49.259498596191406 free_energy=-49.259498596191406 stress="6.374150689225644e-05 -7.352809205940503e-08 1.5068252423589001e-07 -7.352809205940503e-08 6.366995512507856e-05 6.404895458445026e-08 1.5068252423589001e-07 6.404895458445026e-08 6.353340722853318e-05" pbc="T T T"
Rh       1.50865271       1.06677620       2.61306785      -0.00004564      -0.00008124       0.00000255
Rh       4.52596565       3.20033718       7.83919750      -0.00000091      -0.00007836      -0.00008954
Ru      -0.00000003      -0.00000064       0.00000005      -0.00000377      -0.00000979      -0.00000184
O        1.52770118       1.08024988       5.22613462      -0.00052941      -0.00033623       0.00000216
O        4.50691833       3.18687424       5.22613703       0.00050920       0.00039136       0.00004242
O        3.76211492       1.08024941       3.93609623       0.00027278      -0.00035074      -0.00044692
O        2.27250745       3.18687389       6.51617428      -0.00022906       0.00038657       0.00044984
O        2.27250571       3.18687452       3.93609805      -0.00026530       0.00040671      -0.00041425
O        3.76211701       1.08024993       6.51617390       0.00029209      -0.00032780       0.00045526
