9
Lattice="5.380876891956981 -4.063733291621772e-08 3.106650568129395 1.7936255725739858 5.073139209580316 3.1066506023634783 -2.7068566818674284e-08 2.278767513560995e-08 6.213301183142895" Properties=species:S:1:pos:R:3:forces:R:3 energy=-40.93697738647461 free_energy=-40.93697738647461 stress="-0.00026104654534719884 5.979713080250804e-08 -1.4408938042720365e-08 5.979713080250804e-08 -0.0002608690701890737 -5.5015818567483166e-09 -1.4408938042720365e-08 -5.5015818567483166e-09 -0.0002609379298519343" pbc="T T T"
Rh       1.79362259       1.26828645       3.10665019      -0.00003420       0.00001906      -0.00000261
Rh       5.38087702       3.80485281       9.31995096       0.00000231      -0.00001861      -0.00000904
Ru       0.00000026      -0.00000002       0.00000006       0.00000102      -0.00000002      -0.00000090
Se       1.98849004       1.40607534       6.21330135      -0.00302351      -0.00212732       0.00000114
Se       5.18601284       3.66706325       6.21330152       0.00302947       0.00212252       0.00000485
Se       4.38663320       1.40607535       4.82873402       0.00152630      -0.00212857      -0.00260898
Se       2.78787065       3.66706390       7.59786904      -0.00151128       0.00213000       0.00261414
Se       2.78786986       3.66706410       4.82873365      -0.00151537       0.00212955      -0.00261092
Se       4.38663325       1.40607552       7.59786864       0.00152491      -0.00212646       0.00261223
