9
Lattice="4.271291454466136 2.134702466576106e-07 2.4660310609019644 1.4237640273431893 4.027011828590339 2.4660310471734808 2.1682869008698997e-07 1.3650716978270783e-07 4.932061746245589" Properties=species:S:1:pos:R:3:forces:R:3 energy=-49.41270446777344 free_energy=-49.41270446777344 stress="-0.0004008379182778299 -8.234183468402989e-08 -4.102677308992497e-08 -8.234183468402989e-08 -0.0004004460643045604 7.980147387343095e-08 -4.102677308992497e-08 7.980147387343095e-08 -0.000400662625906989" pbc="T T T"
Rh       1.42376355       1.00675284       2.46603122      -0.00000450       0.00000038       0.00000510
Rh       4.27129160       3.02025930       7.39809369       0.00000062       0.00000073       0.00000748
S        0.00000017       0.00000000       0.00000009       0.00000838       0.00000902       0.00000199
O        1.31449947       0.92949160       4.93206138       0.00478697       0.00338757      -0.00000056
O        4.38055637       3.09752082       4.93206151      -0.00480723      -0.00339949       0.00000086
O        3.61404216       0.92949148       3.60442085      -0.00238705       0.00338399       0.00414300
O        2.08101358       3.09752064       6.25970337       0.00239754      -0.00338697      -0.00415576
O        2.08101397       3.09752071       3.60442059       0.00240004      -0.00338423       0.00414991
O        3.61404216       0.92949154       6.25970322      -0.00239480       0.00338840      -0.00415158
