9
Lattice="4.554028182014928 2.2891483434637846e-09 2.629269337512364 1.5180093811289905 4.293579134255802 2.62926936355239 -5.672613379526334e-08 -8.219044437286903e-09 5.258538773277268" Properties=species:S:1:pos:R:3:forces:R:3 energy=-58.33998107910156 free_energy=-58.33998107910156 stress="0.0005259103490971029 4.4559342882166675e-08 -1.4526563951733351e-08 4.4559342882166675e-08 0.0005258310120552778 5.077040654555276e-08 -1.4526563951733351e-08 5.077040654555276e-08 0.0005257117445580661" pbc="T T T"
Rh       1.51801015       1.07339408       2.62926976       0.00001227      -0.00001550       0.00000726
Rh       4.55402919       3.22018076       7.88780801       0.00001634      -0.00005993      -0.00000255
Ta      -0.00000017       0.00000002      -0.00000000      -0.00000116       0.00000085       0.00000284
O        1.58262488       1.11908656       5.25853911      -0.00104135      -0.00070721       0.00000299
O        4.48941172       3.17449422       5.25853823       0.00102192       0.00073469      -0.00000275
O        3.76271516       1.11908601       3.99986305       0.00051060      -0.00071359      -0.00089413
O        2.30932208       3.17449469       6.51721365      -0.00051156       0.00073558       0.00088102
O        2.30932164       3.17449351       3.99986315      -0.00052062       0.00072598      -0.00088769
O        3.76271547       1.11908654       6.51721469       0.00051296      -0.00070012       0.00089324
