9
Lattice="5.3187294692269855 9.44126671365996e-08 3.070769935488123 1.7729099209434083 5.014546286094889 3.070769920151455 3.497173677192921e-08 5.945212935033517e-09 6.141539810403433" Properties=species:S:1:pos:R:3:forces:R:3 energy=-47.175716400146484 free_energy=-47.175716400146484 stress="-0.0001738138817017898 -1.3127405829038707e-08 -1.0483235612923636e-08 -1.3127405829038707e-08 -0.0001738516439218074 -5.320654139495673e-08 -1.0483235612923636e-08 -5.320654139495673e-08 -0.0001738069549901411" pbc="T T T"
Rh       1.77291051       1.25363625       3.07076973       0.00000500      -0.00000313      -0.00000038
Rh       5.31872953       3.76090923       9.21230909      -0.00000050      -0.00000462      -0.00000831
Ta      -0.00000003      -0.00000004       0.00000012       0.00000071      -0.00000191       0.00000203
S        1.91607366       1.35486915       6.14153981       0.00508925       0.00360119      -0.00000059
S        5.17556556       3.65967756       6.14154013      -0.00509110      -0.00359771       0.00000330
S        4.36069247       1.35486890       4.73013869      -0.00254659       0.00359792       0.00440776
S        2.73094700       3.65967769       7.55294109       0.00254868      -0.00359875      -0.00440657
S        2.73094672       3.65967759       4.73013868       0.00254142      -0.00359619       0.00440663
S        4.36069238       1.35486917       7.55294134      -0.00254688       0.00360334      -0.00440383
