9
Lattice="5.5887794979118635 8.965051851596328e-08 3.2266832976725426 1.862926614803342 5.269151731215131 3.2266832440204287 4.268896726956652e-08 -3.552448763345018e-08 6.453366521405601" Properties=species:S:1:pos:R:3:forces:R:3 energy=-43.59645080566406 free_energy=-43.59645080566406 stress="2.7321227662469028e-06 4.124101238289768e-08 -2.2163360036131508e-09 4.124101238289768e-08 2.7366950234863907e-06 4.3470777200127486e-08 -2.2163360036131508e-09 4.3470777200127486e-08 2.67846507995273e-06" pbc="T T T"
Rh       1.86292551       1.31728826       3.22668313      -0.00001004       0.00000217      -0.00000224
Rh       5.58877946       3.95186339       9.68004969      -0.00000090      -0.00000494      -0.00000099
Ta       0.00000015       0.00000016      -0.00000029      -0.00000165      -0.00000194       0.00000639
Se       2.02445274       1.43150434       6.45336660      -0.00234765      -0.00165582       0.00000123
Se       5.42725347       3.83764720       6.45336669       0.00234854       0.00165735       0.00000087
Se       4.57655389       1.43150430       4.97991091       0.00118032      -0.00165656      -0.00202905
Se       2.87515300       3.83764773       7.92682259      -0.00117025       0.00165819       0.00202928
Se       2.87515294       3.83764771       4.97991040      -0.00117254       0.00165724      -0.00203146
Se       4.57655348       1.43150406       7.92682256       0.00117424      -0.00165576       0.00202601
