9
Lattice="5.09184317058822 -3.4577142862342206e-08 2.939777051776158 1.6972810186916363 4.80063580393485 2.939777061426176 4.774436801185794e-08 4.557921405690342e-08 5.879554020856584" Properties=species:S:1:pos:R:3:forces:R:3 energy=-43.68199920654297 free_energy=-43.68199920654297 stress="-9.167338430415839e-05 -1.6990276963113615e-09 -1.4465746289715753e-07 -1.6990276963113615e-09 -9.182510257232934e-05 -1.5028655298010563e-07 -1.4465746289715753e-07 -1.5028655298010563e-07 -9.150116966338828e-05" pbc="T T T"
Rh       1.69728024       1.20015623       2.93977803      -0.00000590      -0.00004408       0.00001787
Rh       5.09184222       3.60047822       8.81932891      -0.00001795       0.00001992      -0.00003191
V       -0.00000010      -0.00000045      -0.00000013       0.00000604       0.00000599       0.00000163
S        1.80393243       1.27557166       5.87955338       0.00019687       0.00012165      -0.00000777
S        4.98519223       3.52506440       5.87955540      -0.00020117      -0.00012666       0.00001522
S        4.18987753       1.27557194       4.50202856      -0.00009447       0.00012299       0.00017267
S        2.59924849       3.52506558       7.25707955       0.00011626      -0.00010878      -0.00017321
S        2.59924705       3.52506310       4.50202778       0.00009465      -0.00012597       0.00016630
S        4.18987679       1.27557267       7.25708120      -0.00009483       0.00013456      -0.00016052
