9
Lattice="4.409309707978025 -4.9843096509734385e-08 2.54571609401908 1.469769876527295 4.1571369609336974 2.5457160578876814 -4.634130046855672e-08 -7.702000620445458e-08 5.091432268303643" Properties=species:S:1:pos:R:3:forces:R:3 energy=-50.83302688598633 free_energy=-50.83302688598633 stress="3.140953413094394e-05 3.7245694528564854e-08 2.2265055577008752e-08 3.7245694528564854e-08 3.1361993023892865e-05 1.956863826535482e-08 2.2265055577008752e-08 1.956863826535482e-08 3.129531251033768e-05" pbc="T T T"
Rh       1.46976949       1.03928397       2.54571622      -0.00000928      -0.00000138      -0.00000012
Rh       4.40930861       3.11785481       7.63714743      -0.00002315       0.00003743      -0.00001501
V       -0.00000002      -0.00000023       0.00000014      -0.00000078       0.00000102      -0.00000052
O        1.50017261       1.06078117       5.09143252       0.00724983       0.00510979       0.00000322
O        4.37890763       3.09635479       5.09143243      -0.00723755      -0.00512457       0.00000416
O        3.65922318       1.06078116       3.84490345      -0.00362518       0.00511128       0.00627768
O        2.21985639       3.09635486       6.33796122       0.00363240      -0.00512415      -0.00627077
O        2.21985643       3.09635512       3.84490345       0.00362915      -0.00512320       0.00627553
O        3.65922392       1.06078163       6.33796076      -0.00361612       0.00511390      -0.00627428
