9
Lattice="5.319333963923193 9.839939288391593e-09 3.07111896784442 1.7731113618671206 5.0151157807978874 3.0711189136620414 8.821378302784788e-08 -3.983020282160072e-09 6.142237782898082" Properties=species:S:1:pos:R:3:forces:R:3 energy=-31.6286678314209 free_energy=-31.6286678314209 stress="2.154345111193834e-06 5.192756447058855e-08 -2.0151691870751165e-08 5.192756447058855e-08 2.300962933077244e-06 -1.7449178102424412e-08 -2.0151691870751165e-08 -1.7449178102424412e-08 2.1268726868584054e-06" pbc="T T T"
Rh       1.77311221       1.25377787       3.07112012       0.00001435      -0.00001278       0.00001364
Rh       5.31933411       3.76133822       9.21335725      -0.00000354       0.00001812       0.00000290
Zn      -0.00000032       0.00000017       0.00000015       0.00000340       0.00000232      -0.00000040
S        1.88177016       1.33061119       6.14223702       0.00004698       0.00002193      -0.00000492
S        5.21067636       3.68450444       6.14223878      -0.00005185      -0.00003089       0.00000481
S        4.37844783       1.33061176       4.70077761      -0.00003795       0.00003332       0.00003285
S        2.71399633       3.68450421       7.58369665       0.00002865      -0.00002914      -0.00004449
S        2.71399623       3.68450480       4.70077866       0.00002695      -0.00002914       0.00004259
S        4.37844878       1.33061053       7.58369645      -0.00002712       0.00002630      -0.00004723
