9
Lattice="5.43968495225313 2.1987185378334422e-07 3.1406036635861434 1.8132284032451058 5.128584362970812 3.1406038739779953 -9.448670971886107e-08 1.9086414111973381e-07 6.2812074908280415" Properties=species:S:1:pos:R:3:forces:R:3 energy=-31.868839263916016 free_energy=-31.868839263916016 stress="-2.9932472898508422e-05 -7.637662235993048e-08 6.663441354248789e-08 -7.637662235993048e-08 -2.9870971047785133e-05 5.04078130347807e-08 6.663441354248789e-08 5.04078130347807e-08 -3.0088653147686273e-05" pbc="T T T"
Rh       1.81323451       1.28215108       3.14059909       0.00007372       0.00005891      -0.00005418
Rh       5.43968377       3.84643316       9.42181683      -0.00001897      -0.00006194       0.00006549
Zn      -0.00000012       0.00000019       0.00000088      -0.00000239      -0.00000108      -0.00000662
Se       2.04369678       1.44511392       6.28121064      -0.00135040      -0.00092992       0.00003108
Se       5.20921570       3.68347181       6.28120259       0.00133958       0.00094059      -0.00004459
Se       4.41783545       1.44511597       4.91049518       0.00066650      -0.00090510      -0.00118956
Se       2.83507689       3.68346830       7.65191890      -0.00068644       0.00090674       0.00118712
Se       2.83507774       3.68347021       4.91049637      -0.00065526       0.00092694      -0.00118050
Se       4.41783232       1.44511448       7.65191958       0.00063364      -0.00093506       0.00119177
