9
Lattice="4.6649410640259745 -6.405500767215737e-07 2.693308828689907 1.5549804960129603 4.398132050197605 2.6933075378781526 2.4567430896636656e-06 1.56261829439507e-07 5.386613402172394" Properties=species:S:1:pos:R:3:forces:R:3 energy=-42.31644821166992 free_energy=-42.31644821166992 stress="-4.0369781345361844e-05 6.546652571159939e-07 -1.4959164218453225e-06 6.546652571159939e-07 -2.5776986149139702e-05 -1.4577346973965177e-06 -1.4959164218453225e-06 -1.4577346973965177e-06 -3.616140384110622e-05" pbc="T T T"
Ru       1.55500184       1.09952478       2.69329819       0.00027094      -0.00009546      -0.00008895
Ru       4.66495298       3.29864828       8.07994049       0.00012991       0.00060187       0.00020176
As      -0.00000648      -0.00000100      -0.00000835      -0.00006790      -0.00016777       0.00007960
S        1.71163185       1.21031474       5.38659167       0.00154316       0.00113034       0.00008419
S        4.50826706       3.18783147       5.38657356      -0.00164199      -0.00129890      -0.00002765
S        3.80911480       1.21027160       4.17565810      -0.00093049       0.00114840       0.00131464
S        2.41082887       3.18780238       6.59762544       0.00074548      -0.00113910      -0.00149947
S        2.41079387       3.18783884       4.17564894       0.00076514      -0.00119776       0.00143141
S        3.80910534       1.21029672       6.59759538      -0.00081414       0.00101870      -0.00149417
