9
Lattice="4.391374014618486 3.643976231259384e-08 2.535360940606939 1.4637913959817959 4.1402268433471345 2.535360900042494 1.5154338625881258e-09 -4.8609520402162676e-08 5.070721878589057" Properties=species:S:1:pos:R:3:forces:R:3 energy=-53.853572845458984 free_energy=-53.853572845458984 stress="0.00031172987655736506 -6.306303479419739e-09 1.4140967152798112e-07 -6.306303479419739e-09 0.0003115855797659606 4.754837235054765e-08 1.4140967152798112e-07 4.754837235054765e-08 0.00031137801124714315" pbc="T T T"
Ru       1.46378944       1.03505625       2.53536105      -0.00003100      -0.00000895      -0.00000053
Ru       4.39137364       3.10517003       7.60608156      -0.00001084       0.00000130      -0.00002580
As      -0.00000001       0.00000008      -0.00000024       0.00000038      -0.00000352       0.00000231
N        1.50251651       1.06243858       5.07072191      -0.00226951      -0.00161386       0.00000085
N        4.35264943       3.07778809       5.07072258       0.00227535       0.00160998       0.00001266
N        3.64011683       1.06243934       3.83657803       0.00114903      -0.00160569      -0.00196272
N        2.21504967       3.07778761       6.30486631      -0.00112778       0.00160706       0.00197375
N        2.21504902       3.07778801       3.83657821      -0.00113887       0.00161272      -0.00196165
N        3.64011716       1.06243937       6.30486561       0.00115308      -0.00159895       0.00196064
