9
Lattice="4.589662619842863 -9.840180659983204e-08 2.649842957427913 1.5298874780837162 4.327175206910087 2.649842903889874 9.946487928308978e-09 -5.853723479090958e-08 5.299685897628016" Properties=species:S:1:pos:R:3:forces:R:3 energy=-51.73131561279297 free_energy=-51.73131561279297 stress="-7.724551687715575e-05 -2.9689495306683966e-09 1.1544248934569623e-07 -2.9689495306683966e-09 -7.73477295297198e-05 6.974535438075691e-08 1.1544248934569623e-07 6.974535438075691e-08 -7.708756311330944e-05" pbc="T T T"
Ru       1.52987435       1.08179929       2.64983156      -0.00019233       0.00008213      -0.00016784
Ru       4.58965946       3.24538672       7.94952300      -0.00004812       0.00008198      -0.00008937
As       0.00000041      -0.00000030       0.00000037       0.00001152      -0.00000411       0.00001501
O        1.46412359       1.03528750       5.29968860      -0.00021601      -0.00020903       0.00005367
O        4.65543180       3.29188134       5.29969015       0.00028837       0.00011683       0.00005696
O        3.85760823       1.03528818       3.91781450       0.00021005      -0.00020838      -0.00014114
O        2.26194889       3.29188245       6.68156490      -0.00010556       0.00013763       0.00025201
O        2.26195056       3.29188582       3.91781073      -0.00009561       0.00018626      -0.00019348
O        3.85760309       1.03528917       6.68156323       0.00014752      -0.00018346       0.00021386
