9
Lattice="5.3878986212701605 -8.806400865199558e-08 3.110704691402737 1.7959661755890015 5.079759162007562 3.110704602156211 2.53076123257637e-08 -9.140901593809093e-08 6.221409338971388" Properties=species:S:1:pos:R:3:forces:R:3 energy=-37.12311553955078 free_energy=-37.12311553955078 stress="-5.2203376981196925e-06 9.565215286500006e-10 6.368571892068076e-09 9.565215286500006e-10 -5.070256975159282e-06 -5.973810601744844e-08 6.368571892068076e-09 -5.973810601744844e-08 -5.133407739776885e-06" pbc="T T T"
Ru       1.79596721       1.26993615       3.11070394       0.00000778      -0.00002028      -0.00000651
Ru       5.38789798       3.80982040       9.33211350      -0.00000477       0.00000544      -0.00000411
As       0.00000023       0.00000003       0.00000015      -0.00000114       0.00000331      -0.00000238
Se       1.99383432       1.40985297       6.22140961       0.00108922       0.00076905       0.00000055
Se       5.19002992       3.66990685       6.22140948      -0.00109401      -0.00076583       0.00000315
Se       4.39098143       1.40985320       4.83741592      -0.00054513       0.00076815       0.00094497
Se       2.79288352       3.66990624       7.60540273       0.00054599      -0.00076342      -0.00094482
Se       2.79288382       3.66990661       4.83741589       0.00054671      -0.00076503       0.00094777
Se       4.39098086       1.40985346       7.60540326      -0.00054441       0.00076863      -0.00093850
