9
Lattice="5.124460564722844 1.0509518856039817e-07 2.9586087903023666 1.708153544034722 4.8313882061337114 2.9586089230194483 -2.6074241243706923e-08 1.4410731264380788e-07 5.917217625766602" Properties=species:S:1:pos:R:3:forces:R:3 energy=-39.34071350097656 free_energy=-39.34071350097656 stress="-7.16248105163686e-05 -1.0000321992720274e-07 -1.3242925867018585e-08 -1.0000321992720274e-07 -7.173065387178212e-05 -9.342900675335386e-09 -1.3242925867018585e-08 -9.342900675335386e-09 -7.164776616264135e-05" pbc="T T T"
Ru       1.70814968       1.20784796       2.95860864      -0.00002762       0.00000455      -0.00000174
Ru       5.12445894       3.62354034       8.87582709      -0.00001897      -0.00000366       0.00000091
Be      -0.00000030       0.00000003      -0.00000025       0.00000329       0.00001446       0.00000887
Se       1.64447349       1.16281817       5.91721801       0.00098985       0.00069401       0.00000145
Se       5.18814160       3.66856908       5.91721750      -0.00099224      -0.00071079      -0.00000018
Se       4.30222567       1.16281913       4.38276510      -0.00047973       0.00069842       0.00085467
Se       2.53039052       3.66857005       7.45167102       0.00050327      -0.00070032      -0.00085780
Se       2.53039093       3.66856994       4.38276399       0.00050277      -0.00069848       0.00085250
Se       4.30222581       1.16281913       7.45167029      -0.00048053       0.00070202      -0.00085878
