9
Lattice="4.171092182319482 9.915507983953713e-08 2.408181104082967 1.3903641383960659 3.932543880595361 2.408181131555686 -6.460384733294758e-08 -1.2034712196437845e-08 4.816362320063061" Properties=species:S:1:pos:R:3:forces:R:3 energy=-49.5714225769043 free_energy=-49.5714225769043 stress="6.646900874329731e-05 3.378170632117872e-08 1.1104079788992749e-07 3.378170632117872e-08 6.648589624091983e-05 1.4409273774163012e-07 1.1104079788992749e-07 1.4409273774163012e-07 6.621003558393568e-05" pbc="T T T"
Ru       1.39035339       0.98312537       2.40819111      -0.00032209      -0.00031311       0.00031229
Ru       4.17107642       2.94939398       7.22456075      -0.00043932      -0.00039547       0.00048123
Be       0.00000034       0.00000030      -0.00000048       0.00000883       0.00000671      -0.00000813
O        1.33901619       0.94682704       4.81635688      -0.00004983      -0.00002956      -0.00015663
O        4.22244233       2.98572107       4.81635623       0.00011641       0.00015014      -0.00018394
O        3.50159170       0.94683533       3.56779638       0.00021586       0.00017196      -0.00022054
O        2.05987435       2.98572271       6.06491959       0.00005689       0.00022358      -0.00002235
O        2.05987932       2.98572051       3.56779696       0.00018340       0.00015354      -0.00020403
O        3.50159114       0.94682952       6.06492061       0.00022939       0.00003147       0.00000238
