9
Lattice="4.665536826102941 -9.69089831067216e-08 2.693648914842254 1.5551788503112705 4.398710641655401 2.69364891545955 3.403542644275427e-08 2.4822641233905473e-08 5.387297770733465" Properties=species:S:1:pos:R:3:forces:R:3 energy=-46.183074951171875 free_energy=-46.183074951171875 stress="0.00017476548964623362 4.573552914166612e-08 -4.7172208361700996e-09 4.573552914166612e-08 0.00017466004646848887 1.4835792150336147e-08 -4.7172208361700996e-09 1.4835792150336147e-08 0.00017478808877058327" pbc="T T T"
Ru       1.55517773       1.09967773       2.69364837      -0.00000761      -0.00000098      -0.00000379
Ru       4.66553563       3.29903204       8.08094581      -0.00000838      -0.00000602      -0.00000344
B        0.00000011      -0.00000017       0.00000034      -0.00000017      -0.00000011      -0.00000079
S        1.58479204       1.12061782       5.38729761       0.00018704       0.00013047       0.00000188
S        4.63592385       3.27809450       5.38729755      -0.00019193      -0.00013238       0.00000011
S        3.87314123       1.12061750       4.06611936      -0.00008935       0.00013670       0.00016445
S        2.34757567       3.27809235       6.70847766       0.00009930      -0.00013256      -0.00015596
S        2.34757503       3.27809335       4.06611973       0.00009835      -0.00012773       0.00016376
S        3.87314153       1.12061720       6.70847598      -0.00008726       0.00013268      -0.00016600
