9
Lattice="4.6517896249108155 3.4151006413823134e-07 2.685711488535433 1.5505965359145986 4.38575136273994 2.685712056130361 -7.388083621951971e-07 1.727426654448215e-07 5.371424256724402" Properties=species:S:1:pos:R:3:forces:R:3 energy=-44.11640930175781 free_energy=-44.11640930175781 stress="0.00018395879305899143 1.1266625676853437e-07 3.618243127334608e-08 1.1266625676853437e-07 0.00018397870007902384 -6.261247165184614e-08 3.618243127334608e-08 -6.261247165184614e-08 0.00018395263759884983" pbc="T T T"
Ru       1.55059602       1.09643669       2.68571229      -0.00000003      -0.00001551      -0.00000129
Ru       4.65178914       3.28931400       8.05713414       0.00000040      -0.00000583      -0.00001699
Be       0.00000028      -0.00000231      -0.00000054       0.00000108       0.00001663      -0.00000625
S        1.60837135       1.13729514       5.37142262      -0.00540265      -0.00381466      -0.00001363
S        4.59401058       3.24846194       5.37142448       0.00540398       0.00381562      -0.00000494
S        3.84760476       1.13728991       4.07860575       0.00269611      -0.00380552      -0.00464635
S        2.35478322       3.24845891       6.66424416      -0.00271191       0.00382535       0.00469266
S        2.35478477       3.24845970       4.07860405      -0.00268699       0.00380521      -0.00468285
S        3.84760133       1.13729344       6.66424412       0.00269994      -0.00382095       0.00468016
