9
Lattice="4.158832886144717 3.2437321854796396e-08 2.401103447941819 1.3862776703316255 3.9209849319379897 2.401103428829485 1.0074759436252524e-07 4.783155881676142e-08 4.80220672138367" Properties=species:S:1:pos:R:3:forces:R:3 energy=-53.518001556396484 free_energy=-53.518001556396484 stress="0.00034638665965758264 -1.254947368245496e-09 -1.5388241081382148e-07 -1.254947368245496e-09 0.0003467711212579161 -2.25072881221422e-07 -1.5388241081382148e-07 -2.25072881221422e-07 0.0003467345959506929" pbc="T T T"
Ru       1.38627806       0.98025684       2.40109934       0.00000440       0.00016763      -0.00007752
Ru       4.15883281       2.94074628       7.20330435       0.00000352       0.00014294      -0.00009499
C       -0.00000019       0.00000290      -0.00000188       0.00000234       0.00005118      -0.00002900
O        1.22120872       0.86351978       4.80220845       0.00756431       0.00526273       0.00003676
O        4.32390277       3.05745866       4.80220890      -0.00754929      -0.00538635       0.00003948
O        3.54823002       0.86352063       3.45870283      -0.00376713       0.00528395       0.00657618
O        1.99688069       3.05745626       6.14571584       0.00375867      -0.00540912      -0.00649595
O        1.99688015       3.05745679       3.45870153       0.00375289      -0.00540340       0.00655532
O        3.54822974       0.86352176       6.14571497      -0.00377148       0.00529087      -0.00651073
