9
Lattice="4.4988343440892855 -6.025801519100063e-08 2.5974029830464027 1.4996113858715012 4.241541183181361 2.5974029923067303 -9.198508537921688e-08 -5.370176144445325e-08 5.194806125415613" Properties=species:S:1:pos:R:3:forces:R:3 energy=-46.9561767578125 free_energy=-46.9561767578125 stress="0.00030835450161248446 -4.9447343997144344e-08 6.045563338830107e-08 -4.9447343997144344e-08 0.00030827216687612236 9.90456285876462e-08 6.045563338830107e-08 9.90456285876462e-08 0.0003080311871599406" pbc="T T T"
Ru       1.49961106       1.06038571       2.59740271       0.00000120       0.00000211      -0.00000028
Ru       4.49883555       3.18115676       7.79220791       0.00000460       0.00000334      -0.00000060
C        0.00000070       0.00000029       0.00000123       0.00000482       0.00000673       0.00000736
S        1.58140933       1.11822374       5.19480547       0.00008611       0.00005874       0.00000117
S        4.41703634       3.12331574       5.19480609      -0.00009664      -0.00005527      -0.00000022
S        3.70812997       1.11822495       3.96694356      -0.00004494       0.00005537       0.00006747
S        2.29031477       3.12331596       6.42266838       0.00004935      -0.00006633      -0.00007903
S        2.29031512       3.12331590       3.96694382       0.00004683      -0.00006153       0.00007271
S        3.70812970       1.11822531       6.42266903      -0.00005126       0.00005686      -0.00006940
