9
Lattice="4.551961588447645 -1.076826187493804e-07 2.628076236315596 1.5173204625468695 4.291630509454306 2.6280761764065836 -4.623038366686145e-08 -1.0606305511742572e-07 5.256152552704575" Properties=species:S:1:pos:R:3:forces:R:3 energy=-46.93011474609375 free_energy=-46.93011474609375 stress="-0.0001378866727463901 8.016638730623526e-08 1.5053456081659533e-07 8.016638730623526e-08 -0.0001380842732032761 1.3524179109936085e-07 1.5053456081659533e-07 1.3524179109936085e-07 -0.00013787983334623277" pbc="T T T"
Ru       1.51733420       1.07289990       2.62809281       0.00028501      -0.00015906       0.00034412
Ru       4.55197341       3.21871338       7.88424117       0.00025034      -0.00020215       0.00026504
Ga       0.00000067      -0.00000087       0.00000082       0.00001815       0.00000059       0.00002127
O        1.51968396       1.07459019       5.25614460       0.00286406       0.00224537      -0.00017187
O        4.54959080       3.21704982       5.25614783      -0.00304598      -0.00202292      -0.00011659
O        3.79210873       1.07458578       3.94415895      -0.00164151       0.00217637       0.00242227
O        2.27715959       3.21705465       6.56813044       0.00137582      -0.00199389      -0.00274247
O        2.27716510       3.21704664       3.94416335       0.00146130      -0.00213593       0.00254631
O        3.79211162       1.07458188       6.56813993      -0.00156626       0.00209132      -0.00256819
