9
Lattice="5.443339389587758 3.6478895512891124e-08 3.1427134244420625 1.8144464725527045 5.1320295638584295 3.1427134678054287 -6.548552498449249e-08 6.803786642115956e-09 6.2854269623084065" Properties=species:S:1:pos:R:3:forces:R:3 energy=-35.788822174072266 free_energy=-35.788822174072266 stress="-4.8484860599273816e-05 -2.105029217602805e-08 4.241688245087971e-08 -2.105029217602805e-08 -4.8539837735006586e-05 3.754636423991542e-08 4.241688245087971e-08 3.754636423991542e-08 -4.8502897698199376e-05" pbc="T T T"
Ru       1.81444710       1.28300798       3.14271457       0.00000416       0.00000408       0.00000811
Ru       5.44333922       3.84902244       9.42814053       0.00000007       0.00000508       0.00000590
Ga      -0.00000013      -0.00000036       0.00000012       0.00000148       0.00000790       0.00000040
Se       1.98196523       1.40146057       6.28542669      -0.00085309      -0.00060257      -0.00000405
Se       5.27582163       3.73056884       6.28542669       0.00084636       0.00059533      -0.00000086
Se       4.45235635       1.40146064       4.85914477       0.00042233      -0.00060280      -0.00074138
Se       2.80542845       3.73056912       7.71170880      -0.00042263       0.00059913       0.00073239
Se       2.80542869       3.73056890       4.85914486      -0.00042479       0.00059712      -0.00073540
Se       4.45235668       1.40146035       7.71170839       0.00042614      -0.00060299       0.00073503
