9
Lattice="4.808563621788703 2.6559189268601137e-07 2.7762253810604838 1.602854753376903 4.533557979357554 2.7762254462233416 -2.6876311182409005e-09 7.790738376014655e-08 5.552450766776118" Properties=species:S:1:pos:R:3:forces:R:3 energy=-39.67316436767578 free_energy=-39.67316436767578 stress="2.3849141143728048e-05 -1.0762978952527646e-08 1.3004310517317208e-07 -1.0762978952527646e-08 2.374463110754732e-05 -9.635455988643571e-09 1.3004310517317208e-07 -9.635455988643571e-09 2.374091127421707e-05" pbc="T T T"
Ru       1.60285462       1.13338872       2.77622706      -0.00000060      -0.00000268       0.00001484
Ru       4.80856365       3.40016977       8.32867578       0.00000179       0.00000668      -0.00000043
Ga       0.00000018       0.00000008      -0.00000075       0.00000388      -0.00000069       0.00001431
S        1.73815268       1.22906063       5.55245080       0.00018167       0.00012776       0.00000280
S        4.67326582       3.30449851       5.55245082      -0.00018680      -0.00013506      -0.00000156
S        3.93948792       1.22906036       4.28150936      -0.00008339       0.00013274       0.00015950
S        2.47193298       3.30449966       6.82339169       0.00012100      -0.00012410      -0.00016508
S        2.47192869       3.30449658       4.28151012       0.00006676      -0.00013334       0.00015122
S        3.93948699       1.22905908       6.82339123      -0.00010419       0.00012875      -0.00017586
