9
Lattice="3.9618305002842096 2.320267600984469e-07 2.287363777918528 1.3206103180865052 3.7352499966959942 2.287363894713888 7.836258894162155e-08 1.9845523035896846e-07 4.574727420109085" Properties=species:S:1:pos:R:3:forces:R:3 energy=-60.744625091552734 free_energy=-60.744625091552734 stress="4.12484587286599e-05 8.259549986178172e-07 -2.9020096548038055e-08 8.259549986178172e-07 4.267617259756662e-05 8.531866910743702e-07 -2.9020096548038055e-08 8.531866910743702e-07 4.2574756662361324e-05" pbc="T T T"
Ru       1.32061047       0.93381699       2.28736477      -0.00033915      -0.00023264      -0.00017197
Ru       3.96183043       2.80144214       6.86209184      -0.00032806      -0.00022479      -0.00016637
Ga      -0.00001763      -0.00001568      -0.00000936       0.00549289       0.00453120       0.00290770
N        1.48249646       1.04828254       4.57472675      -0.00031316      -0.00017738       0.00027061
N        3.79996790       2.68698206       4.57472662      -0.00686753      -0.00480902       0.00026166
N        3.22058506       1.04827625       3.57123572      -0.00047529       0.00172377       0.00189292
N        2.06184919       2.68697590       5.57822524       0.00282109      -0.00293505      -0.00381303
N        2.06185302       2.68697050       3.57123518       0.00166094      -0.00126886       0.00227082
N        3.22058861       1.04827084       5.57822397      -0.00165075       0.00339258      -0.00345147
