9
Lattice="4.173935960581091 -3.8653521175282476e-08 2.4098227154518557 1.3913120161505477 3.9352236565626515 2.409822601598761 -2.736911303139268e-07 -3.329698146928896e-07 4.819645904950599" Properties=species:S:1:pos:R:3:forces:R:3 energy=-47.946144104003906 free_energy=-47.946144104003906 stress="-6.159499025670812e-05 -2.0518437793271005e-07 7.09309517787915e-07 -2.0518437793271005e-07 -6.11978248343803e-05 5.876913746760692e-07 7.09309517787915e-07 5.876913746760692e-07 -6.198805931489915e-05" pbc="T T T"
Ru       1.39131450       0.98380935       2.40982416       0.00007906       0.00004150       0.00003546
Ru       4.17393535       2.95141658       7.22947994       0.00003707      -0.00002954       0.00018630
N        0.00001655      -0.00001256      -0.00001736       0.00044891      -0.00032713      -0.00043801
O        1.30879665       0.92546134       4.81964409       0.00228882       0.00167966      -0.00003075
O        4.25644584       3.00975844       4.81964317      -0.00246608      -0.00175607      -0.00003902
O        3.51952779       0.92547181       3.54328115      -0.00137663       0.00191009       0.00221205
O        2.04570829       3.00976578       6.09602205       0.00106257      -0.00154114      -0.00183892
O        2.04571232       3.00976397       3.54327759       0.00116980      -0.00163507       0.00205922
O        3.51953352       0.92545809       6.09600856      -0.00124216       0.00165689      -0.00214577
