9
Lattice="4.408340016757086 -1.892550262577509e-07 2.545156092820462 1.469446460205478 4.1562232397647625 2.5451561510443264 -4.439279639483912e-07 -2.4259511181494455e-07 5.0903129545467465" Properties=species:S:1:pos:R:3:forces:R:3 energy=-55.93703079223633 free_energy=-55.93703079223633 stress="0.0002358860510867089 1.8117721367616468e-07 1.4693102912133327e-06 1.8117721367616468e-07 0.00023558716929983348 1.0609390983518097e-06 1.4693102912133327e-06 1.0609390983518097e-06 0.00023605367459822446" pbc="T T T"
Ru       1.46944963       1.03905603       2.54514631       0.00006008       0.00000768      -0.00017443
Ru       4.40834456       3.11717141       7.63548805       0.00009828       0.00007828       0.00034401
P       -0.00000047      -0.00000043      -0.00000069      -0.00000933      -0.00000261      -0.00000997
O        1.37442491       0.97186702       5.09031479       0.00203347       0.00144613       0.00003993
O        4.50335927       3.18435615       5.09030585      -0.00205386      -0.00145006      -0.00011007
O        3.72112577       0.97186650       3.73544338      -0.00103498       0.00145519       0.00174630
O        2.15665638       3.18435454       6.44518007       0.00095540      -0.00147593      -0.00179136
O        2.15666087       3.18435821       3.73544464       0.00103772      -0.00143206       0.00176191
O        3.72112325       0.97186228       6.44517863      -0.00108677       0.00137424      -0.00180376
