9
Lattice="5.254938157532334 -9.91967632436685e-08 3.033939935225932 1.7516459673712594 4.954403061495682 3.0339399207043134 1.505327746208229e-07 8.865747508737829e-08 6.0678796097214365" Properties=species:S:1:pos:R:3:forces:R:3 energy=-39.09479522705078 free_energy=-39.09479522705078 stress="-0.0001209431211464107 3.620065314180465e-08 -6.574069288944884e-08 3.620065314180465e-08 -0.00012094293197151273 -4.418945209749836e-09 -6.574069288944884e-08 -4.418945209749836e-09 -0.00012089235679013655" pbc="T T T"
Ru       1.75164619       1.23860121       3.03394008      -0.00000111      -0.00000033       0.00000470
Ru       5.25493655       3.71580007       9.10182326      -0.00000955      -0.00001191       0.00001982
P       -0.00000009       0.00000016      -0.00000048       0.00000233       0.00000046      -0.00000065
Se       1.88561281       1.33333048       6.06787974      -0.00140515      -0.00098956      -0.00000084
Se       5.12097166       3.62107295       6.06787859       0.00140503       0.00099176      -0.00000676
Se       4.31213174       1.33333029       4.66692787       0.00070235      -0.00098857      -0.00121871
Se       2.69445274       3.62107393       7.46883046      -0.00070068       0.00099525       0.00121075
Se       2.69445383       3.62107331       4.66692735      -0.00069480       0.00099283      -0.00122038
Se       4.31213165       1.33332985       7.46883102       0.00070156      -0.00099027       0.00121272
