9
Lattice="4.595150731156455 -3.425734806875448e-08 2.653010559495502 1.531716938803774 4.332349078084576 2.6530104543315787 5.245689697348199e-07 2.4212731710040296e-07 5.306020210410522" Properties=species:S:1:pos:R:3:forces:R:3 energy=-44.31639862060547 free_energy=-44.31639862060547 stress="5.9718662669183686e-05 1.636840210039736e-07 7.123319960555818e-07 1.636840210039736e-07 6.090747774578631e-05 5.536890057555865e-07 7.123319960555818e-07 5.536890057555865e-07 6.0136339016025886e-05" pbc="T T T"
Ru       1.53172333       1.08308559       2.65301780       0.00004049      -0.00001187       0.00005486
Ru       4.59515557       3.24926449       7.95902900       0.00002949       0.00002094      -0.00000763
P       -0.00000178      -0.00000283      -0.00000510      -0.00002222      -0.00002324      -0.00004278
S        1.65736431       1.17191493       5.30605976       0.00049019       0.00015169       0.00045781
S        4.46952963       3.16039567       5.30606289      -0.00020850      -0.00056684       0.00042406
S        3.76645240       1.17195507       4.08828729      -0.00037837       0.00060457      -0.00002700
S        2.36039378       3.16046042       6.52368686       0.00015789       0.00008565      -0.00068700
S        2.36039306       3.16041361       4.08831549       0.00018597      -0.00037557       0.00027162
S        3.76646489       1.17191061       6.52370903      -0.00029480       0.00011492      -0.00044429
