9
Lattice="5.194143493097164 1.7519838562889576e-07 2.998839808291737 1.7313813067646486 4.897085145069308 2.9988398477472753 1.9583916795126745e-07 1.8680231212257202e-07 5.997679277379976" Properties=species:S:1:pos:R:3:forces:R:3 energy=-41.042381286621094 free_energy=-41.042381286621094 stress="-7.497321348637342e-05 -7.635749454948382e-08 -2.2504266894429747e-07 -7.635749454948382e-08 -7.497049955418333e-05 2.4884865723606708e-08 -2.2504266894429747e-07 2.4884865723606708e-08 -7.471444405382499e-05" pbc="T T T"
Ru       1.73138488       1.22427386       2.99883715       0.00002789       0.00001233      -0.00001500
Ru       5.19414625       3.67281268       8.99652056       0.00001835      -0.00000233       0.00000615
Rh       0.00000003       0.00000008       0.00000110      -0.00000921       0.00000252      -0.00001102
Se       1.95653132       1.38347603       5.99767890      -0.00680184      -0.00479960      -0.00000478
Se       4.96899359       3.51360827       5.99767890       0.00677985       0.00479412      -0.00000563
Se       4.21587622       1.38347749       4.69324573       0.00339314      -0.00479561      -0.00589019
Se       2.70964631       3.51360620       7.30211311      -0.00341260       0.00480866       0.00589347
Se       2.70964597       3.51361010       4.69324641      -0.00339216       0.00479370      -0.00586808
Se       4.21587536       1.38347731       7.30211408       0.00339648      -0.00481373       0.00589556
