9
Lattice="4.100302719066755 -2.0241281873056317e-08 2.36731082178626 1.3667675277581948 3.8658025262211018 2.367310867132034 -2.9605573206007773e-08 3.460270104946915e-08 4.734621694850867" Properties=species:S:1:pos:R:3:forces:R:3 energy=-48.375003814697266 free_energy=-48.375003814697266 stress="7.158986409194767e-05 6.469068836167935e-08 -5.217355010245228e-07 6.469068836167935e-08 7.191646000137553e-05 2.1414078332782083e-07 -5.217355010245228e-07 2.1414078332782083e-07 7.208231545519084e-05" pbc="T T T"
Ru       1.36676821       0.96645023       2.36731032       0.00006151      -0.00002286      -0.00005990
Ru       4.10030269       2.89935131       7.10193276       0.00005595      -0.00002388      -0.00005384
Rh       0.00000689      -0.00000130      -0.00000762      -0.00171461       0.00033721       0.00189142
O        1.49753174       1.05891469       4.73462140       0.00086999       0.00066626       0.00006437
O        3.96953386       2.80688483       4.73462174       0.00014102       0.00016761       0.00007206
O        3.35153391       1.05891976       3.66421667       0.00028813      -0.00047332      -0.00053650
O        2.11553227       2.80688898       5.80503379       0.00063437      -0.00098044      -0.00114363
O        2.11553491       2.80688582       3.66421364       0.00001228      -0.00009847       0.00020248
O        3.35153644       1.05891586       5.80503079      -0.00034893       0.00042707      -0.00043678
