9
Lattice="4.348115524915676 4.7477733332772505e-08 2.5103856677749654 1.4493718950189913 4.099442647680588 2.5103856528481416 2.0250160355922504e-08 -3.962520994250022e-09 5.020771300475636" Properties=species:S:1:pos:R:3:forces:R:3 energy=-52.64568328857422 free_energy=-52.64568328857422 stress="-0.000260053260717541 -1.0126123584086599e-07 4.5751452404374504e-08 -1.0126123584086599e-07 -0.00026007252745330334 5.868565722266794e-08 4.5751452404374504e-08 5.868565722266794e-08 -0.0002599467115942389" pbc="T T T"
Ru       1.44937173       1.02486061       2.51038566      -0.00000456      -0.00000424       0.00000441
Ru       4.34811599       3.07458189       7.53115700       0.00000704       0.00000084       0.00000059
Sb       0.00000010       0.00000007       0.00000004      -0.00000221       0.00000187      -0.00001331
N        1.63429917       1.15562411       5.02077122      -0.00228798      -0.00161594      -0.00000104
N        4.16318818       2.94381883       5.02077118       0.00228488       0.00161880      -0.00000101
N        3.53096604       1.15562415       3.92573053       0.00114802      -0.00162053      -0.00198138
N        2.26652130       2.94381856       6.11581217      -0.00114617       0.00162059       0.00198519
N        2.26652132       2.94381847       3.92573040      -0.00114664       0.00161824      -0.00197923
N        3.53096594       1.15562416       6.11581232       0.00114727      -0.00161970       0.00198573
