9
Lattice="4.408977853656035 1.3111254262506891e-07 2.545524564992315 1.4696593688745254 4.156824281251169 2.54552463304734 1.9537749129747963e-08 9.716530647336985e-08 5.091049096144274" Properties=species:S:1:pos:R:3:forces:R:3 energy=-52.15064239501953 free_energy=-52.15064239501953 stress="-0.00018783578707370907 -9.345659890414026e-08 -1.5018046894965664e-07 -9.345659890414026e-08 -0.000188127436558716 8.134811047000312e-09 -1.5018046894965664e-07 8.134811047000312e-09 -0.00018796675431076437" pbc="T T T"
Ru       1.46966190       1.03920712       2.54552683       0.00003363       0.00001305       0.00002933
Ru       4.40897896       3.11762099       7.63657351       0.00001428       0.00003728      -0.00000607
S       -0.00000022      -0.00000020       0.00000015       0.00000069      -0.00000080      -0.00001154
O        1.33198234       0.94185476       5.09104863       0.00572920       0.00405216      -0.00001043
O        4.54665419       3.21496894       5.09104915      -0.00573659      -0.00407004      -0.00000238
O        3.74298442       0.94185355       3.69905542      -0.00289345       0.00404787       0.00496686
O        2.13565110       3.21496968       6.48304241       0.00286758      -0.00405335      -0.00496149
O        2.13565061       3.21496993       3.69905591       0.00286472      -0.00406635       0.00496686
O        3.74298522       0.94185328       6.48304183      -0.00287938       0.00403881      -0.00497055
