9
Lattice="4.923791696311418 -2.2265116366942476e-07 2.8427523485791597 1.641263868666728 4.642194555757046 2.842752037132571 3.305888366553884e-07 -1.4768096131258684e-07 5.685504124561669" Properties=species:S:1:pos:R:3:forces:R:3 energy=-37.2470588684082 free_energy=-37.2470588684082 stress="-0.0003737978695426136 1.7321598377861847e-08 -3.270563375679103e-09 1.7321598377861847e-08 -0.00037377155967988074 -1.1294200419342815e-07 -3.270563375679103e-09 -1.1294200419342815e-07 -0.0003739045059774071" pbc="T T T"
S        1.64126495       1.16054973       2.84275358       0.00000538       0.00000361       0.00000259
S        4.92379371       3.48164430       8.52825280       0.00000420      -0.00000333      -0.00001071
As      -0.00000052      -0.00000051      -0.00000020      -0.00000692       0.00000422       0.00000047
O        1.49444323       1.05673177       5.68550600       0.00656176       0.00464761       0.00000206
O        5.07061081       3.58546303       5.68550479      -0.00656092      -0.00464004       0.00000254
O        4.17656730       1.05673150       4.13697741      -0.00328565       0.00464028       0.00568295
O        2.38848834       3.58546280       7.23403147       0.00328416      -0.00464714      -0.00568879
O        2.38848495       3.58546334       4.13697918       0.00327516      -0.00464326       0.00568986
O        4.17657080       1.05673058       7.23402876      -0.00327826       0.00463849      -0.00568056
