9
Lattice="4.923879181291155 2.5993705831544837e-08 2.842803127822819 1.6412930270114732 4.642278055960936 2.842803228153587 2.691875324893977e-07 3.1322397401338805e-07 5.685605789399055" Properties=species:S:1:pos:R:3:forces:R:3 energy=-37.247066497802734 free_energy=-37.247066497802734 stress="-0.00012270691513549536 1.0167521224957454e-07 -4.5874486431785044e-07 1.0167521224957454e-07 -0.0001224627048941329 -3.4135436521864904e-07 -4.5874486431785044e-07 -3.4135436521864904e-07 -0.00012244829849805683" pbc="T T T"
S        1.64128056       1.16057524       2.84281109      -0.00003975       0.00001614       0.00002697
S        4.92387701       3.48171170       8.52839999      -0.00001387       0.00000993      -0.00002782
As       0.00000034      -0.00000180       0.00000092      -0.00000587       0.00000693      -0.00000596
O        1.49475895       1.05695166       5.68560090      -0.00305760      -0.00217497       0.00000328
O        5.07041569       3.58532392       5.68560995       0.00307989       0.00216115      -0.00000249
O        4.17650359       1.05695205       4.13730216       0.00154877      -0.00217098      -0.00265002
O        2.38867832       3.58532680       7.23391242      -0.00152755       0.00216311       0.00266063
O        2.38866852       3.58532069       4.13730190      -0.00152928       0.00216502      -0.00265789
O        4.17650622       1.05695335       7.23390999       0.00154525      -0.00217634       0.00265372
