9
Lattice="5.11086536436626 -1.1795859385618362e-06 2.950765094848114 1.703621411906786 4.818571517615522 2.950763820215586 2.3364435255851964e-06 9.101536149424748e-08 5.901526142858769" Properties=species:S:1:pos:R:3:forces:R:3 energy=-40.90205001831055 free_energy=-40.90205001831055 stress="-6.409256457118317e-05 5.339165909390431e-06 -8.269316822406836e-06 5.339165909390431e-06 -4.473973240237683e-05 -6.183235200296622e-06 -8.269316822406836e-06 -6.183235200296622e-06 -5.04976196680218e-05" pbc="T T T"
S        1.70360966       1.20465487       2.95078059       0.00013095      -0.00006163       0.00000395
S        5.11087638       3.61391837       8.85227074      -0.00003927       0.00010250       0.00024176
B        0.00000467       0.00000473       0.00001733      -0.00109380      -0.00088760      -0.00360411
O        1.18482756       0.83780276       5.90151874       0.00075674      -0.00019693      -0.00006950
O        5.62965308       3.98076016       5.90154503       0.00118661       0.00168610      -0.00133868
O        4.51846202       0.83779723       3.97685589      -0.00112665       0.00108099       0.00058365
O        2.29604179       3.98075983       7.82618964      -0.00154531       0.00169063       0.00171518
O        2.29603122       3.98077676       3.97685312       0.00138581      -0.00087476       0.00065708
O        4.51845037       0.83781127       7.82619063       0.00034332      -0.00254083       0.00181055
