9
Lattice="5.232172907769342 -3.2282819414788367e-06 3.020788356209626 1.744053279190632 4.932944589974864 3.020790630530681 -6.1284409388764704e-06 -1.547999696461891e-06 6.041587327200864" Properties=species:S:1:pos:R:3:forces:R:3 energy=-37.815673828125 free_energy=-37.815673828125 stress="5.627644441119628e-06 -3.7533646946030785e-07 -3.931472292606486e-06 -3.7533646946030785e-07 9.464793038205244e-06 -2.879144858525251e-06 -3.931472292606486e-06 -2.879144858525251e-06 4.375914159027161e-06" pbc="T T T"
S        1.74435681       1.23339509       3.02024048      -0.00056410      -0.00030939       0.00101777
S        5.23248686       3.69997521       9.06202954      -0.00060655      -0.00049770       0.00067834
C       -0.00014916      -0.00010048       0.00023017       0.00158908       0.00104399      -0.00258791
O        1.21699064       0.86055619       6.04166105      -0.00035834      -0.00020641       0.00002296
O        5.75902794       4.07223874       6.04168596      -0.00003278      -0.00004083       0.00010996
O        4.62353539       0.86059361       4.07494817      -0.00004059       0.00002033       0.00006789
O        2.35252151       4.07229642       8.00845822      -0.00015408       0.00022173       0.00032574
O        2.35255459       4.07225380       4.07495024      -0.00001889      -0.00004315       0.00005013
O        4.62355771       0.86055075       8.00845674       0.00018626      -0.00018781       0.00031614
