9
Lattice="8.412450124506046 -0.06120557137376586 4.882654273931251 2.790288480110105 7.851486480658017 4.814693749378335 0.05171454350288892 -0.05128425511627695 9.678777073806867" Properties=species:S:1:pos:R:3:forces:R:3 energy=-51.41743087768555 free_energy=-51.41743087768555 stress="1.4219787772162817e-05 -7.780559826642275e-06 -3.7759587030450348e-06 -7.780559826642275e-06 -1.0305846444680355e-05 -8.269386853498872e-06 -3.7759587030450348e-06 -8.269386853498872e-06 -1.6856332649695105e-06" pbc="T T T"
S        1.37545174       0.93313937       1.38614530       0.00093937       0.00194108       0.00116849
S        9.95899124       7.23782275      18.52949918      -0.00012749       0.00059628      -0.00020480
Co       1.06353562      -0.67864307      -0.58079296       0.00019306       0.00210507       0.00241771
O        1.60733874       1.08600938       9.48073688      -0.00192677      -0.00056511       0.00019360
O        9.11310708       6.57223214       9.81168738       0.00140828       0.00185764       0.00014722
O        8.60335741       1.55867025       6.78850686       0.00010943      -0.00292170       0.00009769
O        2.60117296       6.44778254      12.83050953      -0.00036120      -0.00041562      -0.00076032
O        3.97603597       7.19012278       6.15216696      -0.00032228      -0.00125909      -0.00213352
O        6.71910191       0.60903104      13.10529496       0.00008771      -0.00133854      -0.00092554
