9
Lattice="4.919662026959801 1.9232479405775512e-07 2.840367963807676 1.6398874707700473 4.638301965643514 2.8403680553906177 -8.193876192899963e-08 5.4226320516498226e-08 5.680736069537441" Properties=species:S:1:pos:R:3:forces:R:3 energy=-41.492156982421875 free_energy=-41.492156982421875 stress="-7.218691462185234e-05 1.9379843507749683e-08 -5.54872414681995e-09 1.9379843507749683e-08 -7.205370638985187e-05 -1.3575705004598149e-08 -5.54872414681995e-09 -1.3575705004598149e-08 -7.219328108476475e-05" pbc="T T T"
S        1.63988658       1.15957579       2.84036930      -0.00000463       0.00000017       0.00000272
S        4.91966156       3.47872530       8.52110412      -0.00000191      -0.00000652      -0.00000085
Cr      -0.00000029      -0.00000046      -0.00000048      -0.00000020       0.00000264       0.00000178
O        1.49977288       1.06050106       5.68073535       0.00229067       0.00162187      -0.00000218
O        5.05977636       3.57780175       5.68073611      -0.00229156      -0.00162122       0.00000108
O        4.16977585       1.06050047       4.13920991      -0.00114602       0.00162241       0.00198436
O        2.38977430       3.57780209       7.22226228       0.00114965      -0.00162119      -0.00198829
O        2.38977457       3.57780235       4.13920971       0.00114879      -0.00162047       0.00198668
O        4.16977566       1.06050043       7.22226206      -0.00114432       0.00162220      -0.00198501
