9
Lattice="3.717432081174446 3.49796458753e-05 2.1460353402957075 1.2392444418210078 3.5047057042064234 2.1461776393178194 0.00013692967820290536 -6.273654701633811e-05 4.292430278638345" Properties=species:S:1:pos:R:3:forces:R:3 energy=-86.2182388305664 free_energy=-86.2182388305664 stress="-0.00012375351798254997 0.00028968125116080046 -9.853613300947472e-05 0.00028968125116080046 -0.000399141717934981 -0.00011790474673034623 -9.853613300947472e-05 -0.00011790474673034623 0.00017094326904043555" pbc="T T T"
S        1.23923571       0.87619245       2.14611906      -0.00547443       0.00335587       0.00048358
S        3.71758143       2.62848032       6.43852312      -0.00101583       0.00474846      -0.00067152
Fe       0.00000414      -0.00001198       0.00000596      -0.00036080       0.00173620      -0.00122309
O        1.39727372       0.98786019       4.29234541      -0.00419617      -0.00514030       0.00154119
O        3.55953470       2.51682816       4.29229367       0.00823593      -0.00244713      -0.00030537
O        3.01893363       0.98786273       3.35599989       0.00550938      -0.00393963      -0.00117683
O        1.93787474       2.51681624       5.22863968      -0.00271893       0.00516224       0.00532150
O        1.93778396       2.51683280       3.35605229      -0.00109959       0.00417709      -0.00324249
O        3.01902898       0.98785325       5.22859003       0.00111294      -0.00763702      -0.00073242
