9
Lattice="4.492578302335804 2.6725853291179983e-07 2.5937920828237053 1.4975263033090471 4.2356430058414 2.593792168462407 8.269695226723263e-07 6.896411642802905e-07 5.187582733294138" Properties=species:S:1:pos:R:3:forces:R:3 energy=-34.45293426513672 free_energy=-34.45293426513672 stress="0.0001227012398885563 7.8400859138128e-07 -5.226418053894122e-08 7.8400859138128e-07 0.00012362042616587132 3.360877656177763e-07 -5.226418053894122e-08 3.360877656177763e-07 0.00012389528274070472" pbc="T T T"
S        1.49753379       1.05888998       2.59377937      -0.00000540      -0.00007212      -0.00004253
S        4.49264207       3.17670266       7.78138009       0.00026702      -0.00011813       0.00001648
Ga       0.00000173      -0.00000110       0.00000061      -0.00001441       0.00000265      -0.00001935
O        1.50694837       1.06560652       5.18757738       0.00295451       0.00222016       0.00000266
O        4.48313172       3.17006973       5.18758795      -0.00303324      -0.00209823      -0.00000291
O        3.73909387       1.06558691       3.89886033      -0.00149894       0.00215512       0.00261943
O        2.25098068       3.17005742       6.47629392       0.00139639      -0.00213528      -0.00266393
O        2.25099427       3.17007399       3.89887631       0.00146509      -0.00210153       0.00269937
O        3.73909359       1.06559070       6.47631248      -0.00153091       0.00214738      -0.00260901
