9
Lattice="4.492581265450427 7.40706664913948e-07 2.593791549175947 1.497527738589921 4.235646544565534 2.5937916327270245 1.042945366119448e-06 8.398028526505023e-07 5.1875812919173425" Properties=species:S:1:pos:R:3:forces:R:3 energy=-34.45293426513672 free_energy=-34.45293426513672 stress="0.000121868091810029 1.6290094890791806e-06 -6.321306500467472e-07 1.6290094890791806e-06 0.00012352829799056053 -2.8288050657465647e-07 -6.321306500467472e-07 -2.8288050657465647e-07 0.00012546282960101962" pbc="T T T"
S        1.49750252       1.05890690       2.59380118      -0.00018785      -0.00002232       0.00006577
S        4.49267735       3.17672911       7.78135221       0.00044862      -0.00001764      -0.00010349
Ga       0.00000192       0.00000069       0.00000019      -0.00001224      -0.00001022       0.00002362
O        1.50695190       1.06560316       5.18757961       0.00295079       0.00220807      -0.00000143
O        4.48314708       3.17005577       5.18758125      -0.00298933      -0.00214911       0.00001030
O        3.73910025       1.06556862       3.89887771      -0.00149276       0.00206545       0.00266463
O        2.25098557       3.17007882       6.47628090       0.00141859      -0.00209605      -0.00271104
O        2.25096543       3.17006083       3.89888341       0.00134612      -0.00213597       0.00269546
O        3.73910692       1.06558937       6.47630358      -0.00148202       0.00215769      -0.00264353
