9
Lattice="4.9269567477671075 -1.228195748328538e-06 2.8445872304385134 1.642319955534433 4.645185863889036 2.8445834241408217 5.795533112401287e-06 -5.636818529064631e-07 5.689164422718074" Properties=species:S:1:pos:R:3:forces:R:3 energy=-41.05602264404297 free_energy=-41.05602264404297 stress="-1.2214077287353575e-05 6.61396143186721e-07 4.413495346966556e-08 6.61396143186721e-07 -1.7819436834543012e-05 -5.037751407144242e-07 4.413495346966556e-08 -5.037751407144242e-07 -9.238545317202806e-06" pbc="T T T"
S        1.64220198       1.16125785       2.84460593      -0.00052807      -0.00009765       0.00010616
S        4.92691545       3.48398494       8.53377076      -0.00030889       0.00038130       0.00008080
Ir       0.00000558      -0.00000106      -0.00000252       0.00011316      -0.00004583       0.00000628
O        1.53907015       1.08824550       5.68917093      -0.00045118      -0.00047170      -0.00001490
O        5.03024834       3.55690933       5.68915800       0.00071186       0.00040852      -0.00004742
O        4.15745413       1.08825489       4.17744734       0.00041449      -0.00051840      -0.00051445
O        2.41188151       3.55692232       7.20090622      -0.00017804       0.00042723       0.00043714
O        2.41186918       3.55691913       4.17742662      -0.00023253       0.00044668      -0.00050962
O        4.15748178       1.08825568       7.20087228       0.00045913      -0.00052990       0.00045598
