9
Lattice="4.835122313321006 4.423162493405951e-08 2.79155927646468 1.6117076230327212 4.558596561214243 2.791559027816515 1.0715597820019053e-07 -2.2875978634166584e-07 5.583118367329745" Properties=species:S:1:pos:R:3:forces:R:3 energy=-41.745059967041016 free_energy=-41.745059967041016 stress="0.0006744683487340808 -5.304286432306071e-08 -1.583608089106292e-08 -5.304286432306071e-08 0.0006743086851201952 1.6905906674580251e-09 -1.583608089106292e-08 1.6905906674580251e-09 0.0006743813864886761" pbc="T T T"
S        1.61170813       1.13964880       2.79155900       0.00000295      -0.00000201      -0.00000041
S        4.83512251       3.41894816       8.37467746      -0.00000104       0.00000181       0.00000095
Mn       0.00000007      -0.00000024      -0.00000016      -0.00000084       0.00000248      -0.00000051
O        1.49516231       1.05723864       5.58311840      -0.00643101      -0.00454666       0.00000058
O        4.95166745       3.50135784       5.58311803       0.00643304       0.00454687      -0.00000021
O        4.08754127       1.05723890       4.08640751       0.00321685      -0.00454840      -0.00557131
O        2.35928888       3.50135735       7.07982909      -0.00321838       0.00454870       0.00557040
O        2.35928860       3.50135722       4.08640732      -0.00321642       0.00454593      -0.00556853
O        4.08754115       1.05723914       7.07982976       0.00321516      -0.00454850       0.00556880
