9
Lattice="4.876504496386023 -1.1901388049425792e-07 2.8154508135289 1.6255013847695314 4.597613029563635 2.815450816678511 -1.7492701088889316e-07 -1.1983461060746363e-07 5.6309019300402205" Properties=species:S:1:pos:R:3:forces:R:3 energy=-32.391090393066406 free_energy=-32.391090393066406 stress="-5.3086828302184585e-06 -9.576527304488991e-08 2.657662889760104e-07 -9.576527304488991e-08 -5.52610435988754e-06 1.7766784310424555e-07 2.657662889760104e-07 1.7766784310424555e-07 -5.566053459915565e-06" pbc="T T T"
S        1.62550568       1.14939834       2.81544802       0.00002115      -0.00002267      -0.00001745
S        4.87649856       3.44820742       8.44636739      -0.00002770      -0.00000718       0.00006816
Ni      -0.00000008      -0.00000005       0.00000003      -0.00000088      -0.00000234       0.00000082
O        1.48383879       1.04923196       5.63090428       0.00022396       0.00015365       0.00000819
O        5.01816484       3.54838348       5.63089344      -0.00022335      -0.00014241      -0.00002813
O        4.13458600       1.04923674       4.10048958      -0.00010657       0.00016889       0.00017650
O        2.36742019       3.54838079       7.16131040       0.00010746      -0.00015464      -0.00019369
O        2.36742748       3.54838212       4.10049010       0.00013052      -0.00014479       0.00017825
O        4.13458144       1.04923015       7.16131123      -0.00012465       0.00015141      -0.00019239
