9
Lattice="2.8238652712524877 1.4563968592532484 0.42632682272649564 0.38071960195453763 1.8713093368184361 1.4253949475630192 1.2732389263899757 -0.41895569991920956 3.163595105051587" Properties=species:S:1:pos:R:3:forces:R:3 energy=-7410807808.0 free_energy=-7410807808.0 stress="5316767744.0 92033312.0 -80358712.0 92033312.0 5433073152.0 -6254814.0 -80358712.0 -6254814.0 5364515328.0" pbc="T T T"
S        3.42174955      -0.15158807       0.18220496 82526944.00000000 -245243344.00000000 1202516480.00000000
S        2.46665350       0.75726901       1.12816707 1511066624.00000000 -309688960.00000000 -922284288.00000000
N       -1.09844655      -0.49058110      -1.41947674 417963104.00000000 338983264.00000000 679649344.00000000
O        3.97185655       0.60341086       3.47291536 -701874624.00000000 -875405184.00000000 1455898880.00000000
O        2.26197836       3.32855275       2.09403656 -127043200.00000000 264995600.00000000 -1973897728.00000000
O        5.23852147       1.00528456       1.40227596 -231324288.00000000 572600832.00000000 -53847168.00000000
O        1.27320964       3.47000058       1.83198986 -914263040.00000000 -268049152.00000000 -888096000.00000000
O        3.21230669       1.79884008       4.51874841 -67454528.00000000 2664013568.00000000 -118429328.00000000
O        0.50543808       0.08216909       2.73588550 30403664.00000000 -2142205184.00000000 618491008.00000000
