9
Lattice="4.916113209044202 -1.5444116702948881e-07 2.8383191808676926 1.6387042420295705 4.634956066382982 2.838319207500837 -1.7307696982628088e-07 -8.976512126846136e-08 5.676638661513502" Properties=species:S:1:pos:R:3:forces:R:3 energy=-46.7953987121582 free_energy=-46.7953987121582 stress="4.108716166228987e-05 -7.19251103120655e-09 6.376830619103657e-09 -7.19251103120655e-09 4.085831460542977e-05 2.1829242857762665e-09 6.376830619103657e-09 2.1829242857762665e-09 4.0786442696116865e-05" pbc="T T T"
S        1.63870433       1.15873880       2.83831956       0.00000016       0.00000021      -0.00000001
S        4.91611342       3.47621740       8.51495739       0.00000051       0.00000043      -0.00000074
Os      -0.00000016       0.00000002      -0.00000017      -0.00000240       0.00000478       0.00000228
O        1.52474815       1.07815958       5.67663850       0.00042039       0.00030041      -0.00000033
O        5.03006927       3.55679610       5.67663871      -0.00042295      -0.00029886      -0.00000020
O        4.15373892       1.07815962       4.15878987      -0.00020963       0.00029880       0.00036544
O        2.40107810       3.55679610       7.19448728       0.00021291      -0.00030160      -0.00037116
O        2.40107825       3.55679614       4.15878986       0.00021327      -0.00030321       0.00037205
O        4.15373885       1.07815964       7.19448726      -0.00021231       0.00029993      -0.00036693
