9
Lattice="3.152673759205366 0.6642066244637638 1.3848782093154313 1.6150291825744085 3.5975677868349782 2.2784113259420753 -0.7668931729861507 0.627492302003684 3.3536859759829105" Properties=species:S:1:pos:R:3:forces:R:3 energy=-187023264.0 free_energy=-187023264.0 stress="18562230.0 -5037350.0 -195595.0625 -5037350.0 27708398.0 320210.53125 -195595.0625 320210.53125 28604748.0" pbc="T T T"
S       -0.17131480       1.51728984       1.53966536 -310627328.00000000 -163220624.00000000 -35937716.00000000
S        1.85796642       3.66280784       5.51377980 -161576320.00000000 -115817656.00000000 242837312.00000000
Pd      -1.63337604      -0.33919452      -0.13590330 -40841612.00000000 -20129210.00000000 -4204361.00000000
O       -0.41345123       1.47219203       3.43919170 -40217632.00000000 15213800.00000000 16369183.00000000
O        2.94405048       2.16502186       2.97696682 270676608.00000000 80318048.00000000 98063304.00000000
O        3.08799536       0.95286117       1.63838809 51540128.00000000 62771808.00000000 -15320139.00000000
O        1.94570905       4.13948413       3.80880546 26717116.00000000 -35071480.00000000 -16520147.00000000
O        1.07801236       2.13836693       1.51071225 14489628.00000000 14168290.00000000 9975134.00000000
O        2.65152935       3.02044429       2.22008449 189839376.00000000 161766976.00000000 -295262592.00000000
