9
Lattice="4.906755450815557 2.0446619239131488e-07 2.8329165764750925 1.6355852312510397 4.626133773691252 2.8329167701069005 -8.896747627923774e-08 1.742400535140995e-07 5.665833307046363" Properties=species:S:1:pos:R:3:forces:R:3 energy=-42.239990234375 free_energy=-42.239990234375 stress="0.000182317104190588 -1.735837074079427e-08 1.4666970749033226e-08 -1.735837074079427e-08 0.00018218174227513373 3.9374452143192684e-08 1.4666970749033226e-08 3.9374452143192684e-08 0.00018236864707432687" pbc="T T T"
S        1.63558525       1.15653372       2.83291656      -0.00000042      -0.00000031       0.00000015
S        4.90675597       3.46960107       8.49874961      -0.00000103       0.00000041       0.00000001
P       -0.00000013       0.00000007       0.00000018      -0.00000051       0.00000425      -0.00000234
O        1.37893474       0.97505447       5.66583335      -0.00541210      -0.00382698      -0.00000010
O        5.16340579       3.65107926       5.66583334       0.00540996       0.00382733      -0.00000005
O        4.21728762       0.97505414       4.02710952       0.00270641      -0.00382805      -0.00468946
O        2.32505261       3.65107976       7.30455721      -0.00270557       0.00382698       0.00468707
O        2.32505271       3.65107957       4.02710935      -0.00270426       0.00382411      -0.00468349
O        4.21728773       0.97505454       7.30455710       0.00270617      -0.00382793       0.00468683
