9
Lattice="4.182174072152455 -4.600830978831488e-08 2.4145792905007784 1.394057954602704 3.9429915074564925 2.4145793356571894 3.919770142788734e-08 8.302204587432081e-08 4.829158513109148" Properties=species:S:1:pos:R:3:forces:R:3 energy=-46.18087387084961 free_energy=-46.18087387084961 stress="-0.001039130031131208 -1.2795551356248325e-06 9.36368337534077e-07 -1.2795551356248325e-06 -0.001041345065459609 8.212714988076186e-07 9.36368337534077e-07 8.212714988076186e-07 -0.0010427836095914245" pbc="T T T"
S        1.39405642       0.98574890       2.41457936       0.00027108      -0.00014423      -0.00001445
S        4.18217565       2.95724485       7.24373654      -0.00025588      -0.00019579       0.00018637
Rh       0.00000025      -0.00000024       0.00000006      -0.00001512       0.00001570       0.00000155
O        1.51464796       1.07101811       4.82915834      -0.00379041      -0.00269782       0.00003082
O        4.06158470       2.87197293       4.82915943       0.00368761       0.00279643      -0.00011359
O        3.42485050       1.07101677       3.72630395       0.00182977      -0.00250545      -0.00346577
O        2.15138151       2.87197384       5.93201415      -0.00181928       0.00267726       0.00332073
O        2.15138072       2.87197373       3.72630340      -0.00169749       0.00267587      -0.00336150
O        3.42485071       1.07101748       5.93201344       0.00178982      -0.00262575       0.00341694
