9
Lattice="3.357670307438701 0.3560982809643019 1.8696406456140326 2.2239999510217983 2.838045271534071 0.4861904068038154 -1.3385195399146135 0.7022483112649448 2.0878385188279482" Properties=species:S:1:pos:R:3:forces:R:3 energy=-26895522.0 free_energy=-26895522.0 stress="12350969.0 -254104.46875 -1058130.0 -254104.46875 14292144.0 -553125.875 -1058130.0 -553125.875 14626406.0" pbc="T T T"
S        1.43738766       1.31507655       1.81505289 4320200.00000000 3758103.50000000 -19965878.00000000
S        2.51950909       2.30901741       3.19711246 -5928766.50000000 -10620134.00000000 -13370548.00000000
Ru      -0.30117934       0.22118784      -0.88583474 17889868.00000000 3336159.00000000 1147733.00000000
O       -0.69219453       1.75196154       2.40218826 -2658456.25000000 1219335.37500000 -9932231.00000000
O        3.15979948       2.75716052       2.74670377 -15944292.00000000 -2635435.00000000 17044732.00000000
O        1.27537001       1.33780768       1.03985299 19815512.00000000 5864053.00000000 43951972.00000000
O        0.91950632       2.70392520       2.06101555 -9055738.00000000 11438584.00000000 -8080014.50000000
O        3.35493342       2.81726062       1.54083840  -96086.12500000 1381074.75000000 -1549567.50000000
O        1.28546636       1.52232973       2.79801797 -8342244.00000000 -13741754.00000000 -9246182.00000000
