9
Lattice="4.0676293653393785 7.371692358723529e-05 2.3487440490399414 1.3558041215472865 3.835122296590145 2.3485268486259665 -0.0002552418867549177 4.786100847831265e-05 4.6969850269401805" Properties=species:S:1:pos:R:3:forces:R:3 energy=-68.20260620117188 free_energy=-68.20260620117188 stress="0.000713882502168417 0.00010360345186199993 8.270447142422199e-05 0.00010360345186199993 0.0005119052366353571 -8.780848474998493e-06 8.270447142422199e-05 -8.780848474998493e-06 0.0005101819988340139" pbc="T T T"
S        1.35579452       0.95881971       2.34856922       0.00068444      -0.00216528       0.00109418
S        4.06738339       2.87642463       7.04568806       0.00068293       0.00227641      -0.00113013
Se       0.00000000      -0.00000159      -0.00000032      -0.00040745       0.00052163      -0.00065553
O        1.44743000       1.02371828       4.69707035       0.00129795       0.00036430      -0.00254215
O        3.97574682       2.81152421       4.69718560      -0.00081253       0.00057602       0.00243045
O        3.34372491       1.02373403       3.60240347      -0.00234795      -0.00004387       0.00099945
O        2.07945800       2.81150979       5.79185239      -0.00008965      -0.00012255      -0.00152874
O        2.07957783       2.81149074       3.60230533       0.00012398      -0.00120878       0.00052500
O        3.34359783       1.02375545       5.79194855       0.00087070      -0.00019503       0.00080681
