9
Lattice="4.918274452428477 1.4221759617259748e-06 2.8395681976366514 1.6394255163348246 4.636996407275253 2.8395693095814987 1.7966138479448114e-07 1.4888885231016895e-06 5.679136084090597" Properties=species:S:1:pos:R:3:forces:R:3 energy=-41.974456787109375 free_energy=-41.974456787109375 stress="0.00040013360558077693 3.9167595389244525e-08 4.731203659957828e-07 3.9167595389244525e-08 0.00039928595651872456 3.6385503676683584e-07 4.731203659957828e-07 3.6385503676683584e-07 0.0004001468769274652" pbc="T T T"
S        1.63942620       1.15924302       2.83957034       0.00000010      -0.00000002      -0.00000833
S        4.91827569       3.47775044       8.51871676       0.00000021       0.00000528      -0.00000244
Si       0.00000136      -0.00000051       0.00000192      -0.00001396       0.00000539      -0.00000692
O        1.43283628       1.01317110       5.67913860      -0.00532997      -0.00376880      -0.00000604
O        5.12486013       3.62383564       5.67913068       0.00534654       0.00375038       0.00002876
O        4.20185671       1.01317244       4.08043916       0.00266665      -0.00377989      -0.00461495
O        2.35584051       3.62383444       7.27782783      -0.00264621       0.00374764       0.00462639
O        2.35584871       3.62382832       4.08044113      -0.00268942       0.00377035      -0.00462997
O        4.20185522       1.01316374       7.27782877       0.00266618      -0.00373107       0.00461209
