9
Lattice="4.776270508067627 -1.9730604926341687e-07 2.7575812035403944 1.5920900817126638 4.503110837019405 2.7575810331434476 -8.276848484428967e-09 -2.1454541669078003e-07 5.515162421416679" Properties=species:S:1:pos:R:3:forces:R:3 energy=-45.5772705078125 free_energy=-45.5772705078125 stress="0.000136946517159231 -9.232291375838031e-09 -1.735425847471106e-08 -9.232291375838031e-09 0.00013688394392374903 -3.0378391357999135e-08 -1.735425847471106e-08 -3.0378391357999135e-08 0.00013688189210370183" pbc="T T T"
S        1.59208936       1.12577740       2.75758060      -0.00000234      -0.00000138      -0.00000173
S        4.77627113       3.37733279       8.27274283       0.00000308      -0.00000164      -0.00000208
Ti      -0.00000006      -0.00000025      -0.00000015      -0.00000022      -0.00000025       0.00000235
O        1.54946246       1.09563514       5.51516292      -0.00469428      -0.00331929       0.00000157
O        4.81889760       3.40747574       5.51516277       0.00469571       0.00332081      -0.00000019
O        4.00153993       1.09563529       4.09945559       0.00234866      -0.00331956      -0.00406492
O        2.36682080       3.40747544       6.93086911      -0.00234786       0.00331891       0.00406444
O        2.36682096       3.40747495       4.09945505      -0.00234839       0.00331995      -0.00406349
O        4.00153995       1.09563556       6.93086952       0.00234595      -0.00331774       0.00406414
