9
Lattice="4.9308919903317685 3.1168412252567073e-07 2.8468521171769146 1.6436310220814683 4.648889365414676 2.8468520049765442 1.4675537470667916e-07 -3.364511425902076e-08 5.693703980166141" Properties=species:S:1:pos:R:3:forces:R:3 energy=-43.23019027709961 free_energy=-43.23019027709961 stress="-0.00011224056652281433 -2.7137145863775913e-08 -3.0081523050284886e-08 -2.7137145863775913e-08 -0.00011236461432417855 -4.340805759284194e-08 -3.0081523050284886e-08 -4.340805759284194e-08 -0.00011248268856434152" pbc="T T T"
S        1.64362990       1.16222117       2.84684945      -0.00000111      -0.00000203      -0.00000400
S        4.93088882       3.48666623       8.54055384      -0.00000727      -0.00000240      -0.00000529
V        0.00000014       0.00000012      -0.00000005      -0.00000578      -0.00000149       0.00000152
O        1.49880295       1.05981305       5.69370419       0.00304943       0.00215948       0.00000350
O        5.07572140       3.58907622       5.69370506      -0.00304341      -0.00215328       0.00000122
O        4.18149086       1.05981439       4.14485244      -0.00152022       0.00215578       0.00264138
O        2.39303458       3.58907626       7.24255715       0.00152481      -0.00215745      -0.00264168
O        2.39303297       3.58907741       4.14485381       0.00152531      -0.00215310       0.00264347
O        4.18149083       1.05981418       7.24255630      -0.00152189       0.00215477      -0.00263917
