9
Lattice="5.439501228524247 -3.1559327886350675e-08 3.140497419368968 1.8131670085179947 5.1284111804807475 3.1404974850177525 -1.7652746351895121e-07 -4.442075390666905e-08 6.280995144492466" Properties=species:S:1:pos:R:3:forces:R:3 energy=-32.115631103515625 free_energy=-32.115631103515625 stress="-0.00017350645794067532 -3.178980279017196e-08 4.300611422536349e-08 -3.178980279017196e-08 -0.0001735846308292821 3.835192430301504e-08 4.300611422536349e-08 3.835192430301504e-08 -0.0001735425612423569" pbc="T T T"
Sb       1.81316708       1.28210480       3.14049782       0.00000093       0.00001908       0.00000932
Sb       5.43949967       3.84631066       9.42148938      -0.00001316       0.00002512      -0.00003202
Au       0.00000007      -0.00000013       0.00000016      -0.00000029       0.00000107       0.00000099
S        1.93509258       1.36831551       6.28099522       0.00430489       0.00302911      -0.00000353
S        5.31757676       3.76009366       6.28099678      -0.00429434      -0.00304696       0.00001529
S        4.47195446       1.36831579       4.81633688      -0.00215423       0.00302550       0.00372437
S        2.78071367       3.76009381       7.74565423       0.00215679      -0.00304264      -0.00371414
S        2.78071275       3.76009367       4.81633624       0.00214592      -0.00304767       0.00371835
S        4.47195514       1.36831668       7.74565350      -0.00214635       0.00303715      -0.00371853
