9
Lattice="4.592610459805526 -9.365749580678258e-08 2.651544900556952 1.530870099942737 4.329954614202089 2.651544839977842 -1.6363038174558278e-08 -8.576437294456176e-08 5.303089829455504" Properties=species:S:1:pos:R:3:forces:R:3 energy=-49.4758415222168 free_energy=-49.4758415222168 stress="-2.812412458297331e-05 -5.138777225965896e-08 5.5467882731363716e-08 -5.138777225965896e-08 -2.8138041670899838e-05 -5.988188167549424e-09 5.5467882731363716e-08 -5.988188167549424e-09 -2.803301867970731e-05" pbc="T T T"
Sb       1.53087091       1.08248882       2.65154318       0.00000403       0.00000552      -0.00002422
Sb       4.59260943       3.24746615       7.95463503      -0.00000826       0.00000264       0.00000705
As      -0.00000013       0.00000005       0.00000038       0.00000989      -0.00000271      -0.00001299
O        1.48866190       1.05264218       5.30309047       0.00558782       0.00394458       0.00001019
O        4.63481882       3.27731180       5.30308964      -0.00559139      -0.00395066      -0.00000227
O        3.84827991       1.05264265       3.94076373      -0.00279379       0.00395530       0.00484252
O        2.27520092       3.27731140       6.66541618       0.00279111      -0.00395316      -0.00482833
O        2.27520131       3.27731188       3.94076368       0.00279778      -0.00394636       0.00483608
O        3.84827913       1.05264264       6.66541595      -0.00279731       0.00394368      -0.00482821
