9
Lattice="6.1984697620381946 7.699365057970509e-09 3.578688146504141 2.066156552014582 5.843973614391327 3.578688220273177 -4.376704970696622e-08 5.940029791635137e-08 7.157376368814995" Properties=species:S:1:pos:R:3:forces:R:3 energy=-26.910934448242188 free_energy=-26.910934448242188 stress="-0.0003037677670363337 1.1352880413539879e-08 2.2727210335915515e-08 1.1352880413539879e-08 -0.00030377000803127885 -1.2846313346415172e-08 2.2727210335915515e-08 -1.2846313346415172e-08 -0.0003037758287973702" pbc="T T T"
Sb       2.06615669       1.46099433       3.57868830       0.00000028       0.00000378       0.00000082
Sb       6.19846970       4.38297971      10.73606674       0.00000004      -0.00000321       0.00001022
Ag       0.00000005       0.00000015      -0.00000049       0.00000072      -0.00000187       0.00000376
Te       2.23969363       1.58370353       7.15737636      -0.00598277      -0.00422841       0.00000056
Te       6.02493256       4.26027020       7.15737521       0.00598316       0.00422810      -0.00000491
Te       5.07862267       1.58370363       5.51831960       0.00299165      -0.00422685      -0.00518184
Te       3.18600325       4.26027042       8.79643284      -0.00299154       0.00422756       0.00517829
Te       3.18600420       4.26027030       5.51831990      -0.00298999       0.00423035      -0.00518414
Te       5.07862235       1.58370246       8.79643249       0.00298847      -0.00422943       0.00517721
