9
Lattice="5.71465343212002 1.8908204182199962e-08 3.299356643219278 1.9048845059253623 5.38782693351932 3.2993566246427455 -3.4767572577087914e-08 -4.733592142932652e-08 6.598713346657761" Properties=species:S:1:pos:R:3:forces:R:3 energy=-29.634977340698242 free_energy=-29.634977340698242 stress="0.0001928920391947031 5.0363372139372586e-08 -3.6658327928762446e-08 5.0363372139372586e-08 0.00019292767683509737 -1.7688211784161467e-08 -3.6658327928762446e-08 -1.7688211784161467e-08 0.00019290264754090458" pbc="T T T"
Sb       1.90488526       1.34695920       3.29935399       0.00000747       0.00002274      -0.00002891
Sb       5.71465532       4.04087372       9.89807197       0.00001836       0.00003356       0.00002438
Au       0.00000023      -0.00000011       0.00000000      -0.00000118       0.00000028      -0.00000087
Se       2.06597112       1.46086078       6.59871408      -0.00714850      -0.00506418       0.00000794
Se       5.55356767       3.92696447       6.59871220       0.00715453       0.00505023      -0.00001054
Se       4.68166873       1.46086106       5.08854053       0.00357747      -0.00506281      -0.00618555
Se       2.93786800       3.92696354       8.10888734      -0.00359102       0.00504165       0.00619592
Se       2.93786922       3.92696512       5.08853964      -0.00357812       0.00505191      -0.00619123
Se       4.68166605       1.46085980       8.10888666       0.00356085      -0.00507331       0.00618868
