9
Lattice="4.577350767061745 -5.6659773550698076e-08 2.642734695648959 1.5257835799759178 4.315567418232116 2.642734618789707 8.273525734444289e-08 -3.563027957459365e-08 5.285469247996235" Properties=species:S:1:pos:R:3:forces:R:3 energy=-47.27832794189453 free_energy=-47.27832794189453 stress="-0.00018505043408367783 5.680031733845681e-08 -1.570386665150636e-08 5.680031733845681e-08 -0.00018476333934813738 2.2248599407248548e-08 -1.570386665150636e-08 2.2248599407248548e-08 -0.0001848410174716264" pbc="T T T"
Sb       1.52578396       1.07889067       2.64273463       0.00000322      -0.00000917       0.00000111
Sb       4.57734997       3.23667615       7.92820348      -0.00000458       0.00000568      -0.00000255
As       0.00000020      -0.00000000       0.00000005      -0.00000142      -0.00000094       0.00000165
N        1.55772085       1.10147409       5.28546918      -0.00010335      -0.00008106      -0.00000056
N        4.54541328       3.21409342       5.28546975       0.00010324       0.00008357       0.00000135
N        3.79849048       1.10147444       3.99176027       0.00005388      -0.00007868      -0.00009215
N        2.30464479       3.21409361       6.57917831      -0.00004709       0.00008166       0.00009298
N        2.30464419       3.21409283       3.99176015      -0.00005412       0.00007904      -0.00009441
N        3.79849012       1.10147402       6.57917843       0.00004977      -0.00008035       0.00009429
