9
Lattice="5.512212840152509 -1.4062828939002722e-07 3.1824774529452786 1.8374041803912773 5.196964697678396 3.182477395915657 -1.319442834737739e-07 -1.6314544068183858e-07 6.364955134424702" Properties=species:S:1:pos:R:3:forces:R:3 energy=-34.30933380126953 free_energy=-34.30933380126953 stress="-0.0002989759959746152 4.5374882517990045e-08 5.005210823583184e-08 4.5374882517990045e-08 -0.0002990853681694716 5.2645066084267e-09 5.005210823583184e-08 5.2645066084267e-09 -0.00029893656028434634" pbc="T T T"
Sb       1.83740138       1.29923728       3.18247562      -0.00003651      -0.00005200      -0.00003350
Sb       5.51221494       3.89772750       9.54743480       0.00003106       0.00005816       0.00003314
As       0.00000014      -0.00000032       0.00000015      -0.00000289       0.00000309       0.00000015
S        1.89876958       1.34263129       6.36495618      -0.00042015      -0.00031412       0.00001505
S        5.45084720       3.85433290       6.36495409       0.00042152       0.00031173      -0.00001433
S        4.56282901       1.34263156       4.82686041       0.00022689      -0.00031570      -0.00035232
S        2.78678748       3.85433261       7.90304943      -0.00022510       0.00031123       0.00034964
S        2.78678904       3.85433397       4.82686072      -0.00021121       0.00032771      -0.00034803
S        4.56282876       1.34263079       7.90304840       0.00021654      -0.00032991       0.00035039
