9
Lattice="5.67026516808312 5.365031611724451e-08 3.2737291206156525 1.890088378937619 5.345977167639997 3.273729226280164 -1.0008943014355959e-07 5.863815371286272e-08 6.547458414591266" Properties=species:S:1:pos:R:3:forces:R:3 energy=-31.884899139404297 free_energy=-31.884899139404297 stress="3.5616922104964033e-06 -3.7112344308809497e-09 5.927211432776858e-08 -3.7112344308809497e-09 3.444334879532107e-06 5.193996699404124e-08 5.927211432776858e-08 5.193996699404124e-08 3.4795373267115792e-06" pbc="T T T"
Sb       1.89008871       1.33649180       3.27373028       0.00000486      -0.00002229       0.00000994
Sb       5.67026992       4.00948125       9.82118652       0.00004303      -0.00001266      -0.00001378
As      -0.00000000       0.00000043       0.00000018      -0.00000372      -0.00000008      -0.00000155
Se       2.01565683       1.42528676       6.54745861      -0.00210015      -0.00146379      -0.00000366
Se       5.54469509       3.92069277       6.54745896       0.00208752       0.00148661       0.00000874
Se       4.66243566       1.42528501       5.01933955       0.00104021      -0.00148238      -0.00180999
Se       2.89791548       3.92069315       8.07557599      -0.00105654       0.00148801       0.00179663
Se       2.89791592       3.92069276       5.01934064      -0.00106104       0.00148330      -0.00179721
Se       4.66243611       1.42528526       8.07557633       0.00104564      -0.00147691       0.00181069
