9
Lattice="5.433730357226817 -1.0869956616691913e-07 3.1371655253842095 1.8112433945126913 5.1229698306866975 3.1371654481577567 -6.248422832719927e-09 -9.900098332858084e-08 6.2743310615910115" Properties=species:S:1:pos:R:3:forces:R:3 energy=-31.151580810546875 free_energy=-31.151580810546875 stress="-1.3508570191334002e-05 -1.9931812644813363e-08 6.476090419482716e-08 -1.9931812644813363e-08 -1.3437836059893016e-05 -1.3405213605821586e-09 6.476090419482716e-08 -1.3405213605821586e-09 -1.3511998076864984e-05" pbc="T T T"
Sb       1.81124288       1.28074165       3.13716646      -0.00000719      -0.00000945       0.00000722
Sb       5.43373095       3.84222961       9.41149641       0.00000688       0.00002476      -0.00000192
Ag       0.00000005       0.00000010       0.00000035      -0.00000041       0.00000126      -0.00000988
S        1.94986375       1.37876027       6.27433033      -0.00011283      -0.00008856      -0.00000571
S        5.29511019       3.74420893       6.27433052       0.00011432       0.00008626       0.00000059
S        4.45879885       1.37876055       4.82579690       0.00005668      -0.00008960      -0.00009535
S        2.78617477       3.74420828       7.72286538      -0.00006051       0.00008602       0.00009809
S        2.78617447       3.74420846       4.82579668      -0.00006029       0.00008115      -0.00009382
S        4.45879905       1.37876065       7.72286517       0.00006346      -0.00009155       0.00010061
