9
Lattice="4.467440333253432 -5.8440022948395064e-08 2.579277903904575 1.489146771527454 4.211942988736254 2.5792778192521544 -3.6263808423838548e-09 -1.0624184260067291e-07 5.1585558140902235" Properties=species:S:1:pos:R:3:forces:R:3 energy=-46.310699462890625 free_energy=-46.310699462890625 stress="-0.0004896371974609792 -4.4883751826318985e-08 4.705522194115019e-09 -4.4883751826318985e-08 -0.0004897806793451309 2.386522268693625e-08 4.705522194115019e-09 2.386522268693625e-08 -0.0004898784682154655" pbc="T T T"
Sb       1.48914736       1.05298392       2.57927885       0.00000655      -0.00001850       0.00002015
Sb       4.46744111       3.15895600       7.73783652       0.00000960      -0.00001727       0.00002850
Be       0.00000002       0.00000008      -0.00000037       0.00000010      -0.00000096       0.00000104
O        1.38853348       0.98184218       5.15855506       0.00590283       0.00418186      -0.00000780
O        4.56805287       3.23010194       5.15855466      -0.00591218      -0.00416774      -0.00001325
O        3.77317336       0.98184213       3.78178259      -0.00295597       0.00418609       0.00510782
O        2.18341319       3.23010188       6.53532748       0.00294843      -0.00417012      -0.00512660
O        2.18341355       3.23010156       3.78178296       0.00295547      -0.00417328       0.00511312
O        3.77317337       0.98184164       6.53532811      -0.00295499       0.00417972      -0.00512224
