9
Lattice="5.657415435843175 1.634959071989662e-07 3.266310332363313 1.8858052301365114 5.3338621557642485 3.2663104523770614 3.440621413365948e-08 1.7131507165918427e-07 6.5326206051333395" Properties=species:S:1:pos:R:3:forces:R:3 energy=-31.80133628845215 free_energy=-31.80133628845215 stress="-2.184304321417585e-05 -3.4655720071441465e-08 -2.2460595605622302e-09 -3.4655720071441465e-08 -2.1899162675254047e-05 2.2860884296704853e-09 -2.2460595605622302e-09 2.2860884296704853e-09 -2.1965497580822557e-05" pbc="T T T"
Sb       1.88580424       1.33346509       3.26631155      -0.00000995      -0.00000247       0.00000812
Sb       5.65741363       4.00039327       9.79893747      -0.00002682      -0.00004263       0.00008571
Bi      -0.00000027      -0.00000001      -0.00000013       0.00000328       0.00000016       0.00000134
S        2.05613743       1.45390965       6.53261982      -0.00000717       0.00000693      -0.00000970
S        5.48708275       3.87995288       6.53261909       0.00000316      -0.00000260      -0.00002903
S        4.62934795       1.45391248       5.04697576       0.00001419       0.00003683      -0.00002212
S        2.91387302       3.87995421       8.01826272      -0.00000822       0.00000311      -0.00000978
S        2.91387677       3.87995388       5.04697645       0.00002954       0.00000289      -0.00001486
S        4.62934728       1.45390848       8.01826283       0.00000204      -0.00000180      -0.00000957
