9
Lattice="5.482718547297258 -1.0601261210487119e-08 3.165448978542632 1.8275728252610983 5.169156990384504 3.165449002519381 -1.7386102681432084e-08 1.707162592097473e-08 6.33089798719887" Properties=species:S:1:pos:R:3:forces:R:3 energy=-32.552005767822266 free_energy=-32.552005767822266 stress="-0.0001330165978288278 1.1302152103098706e-08 -1.1499210472720733e-09 1.1302152103098706e-08 -0.00013301636499818414 -1.4258264791067177e-08 -1.1499210472720733e-09 -1.4258264791067177e-08 -0.0001330130035057664" pbc="T T T"
Sb       1.82757370       1.29228624       3.16544766       0.00000447      -0.00001596      -0.00000836
Sb       5.48271830       3.87686689       9.49634938      -0.00000036      -0.00000415       0.00001175
Be      -0.00000001      -0.00000008      -0.00000007       0.00000067      -0.00000060       0.00000321
Se       1.80965994       1.27962315       6.33089822       0.00058845       0.00041676       0.00000448
Se       5.50063071       3.88953523       6.33089662      -0.00059378      -0.00040945      -0.00000702
Se       4.57788885       1.27962368       4.73266038      -0.00029226       0.00041935       0.00050730
Se       2.73240236       3.88953464       7.92913509       0.00029348      -0.00041501      -0.00051489
Se       2.73240357       3.88953528       4.73266085       0.00029981      -0.00040758       0.00051224
Se       4.57788798       1.27962297       7.92913574      -0.00030065       0.00041659      -0.00050852
