9
Lattice="4.836235141705456 1.195050933701515e-10 2.7922016675055272 1.6120783800979541 4.5596462365107655 2.792201668515662 -9.999189491995171e-09 -5.833339467566829e-09 5.584403352330159" Properties=species:S:1:pos:R:3:forces:R:3 energy=-42.37459945678711 free_energy=-42.37459945678711 stress="-0.0002482807030901313 1.7737766810910216e-09 4.694160793405899e-08 1.7737766810910216e-09 -0.0002481427218299359 5.6882214494180516e-08 4.694160793405899e-08 5.6882214494180516e-08 -0.00024832168128341436" pbc="T T T"
Sb       1.61207823       1.13991143       2.79220173      -0.00000285      -0.00000408       0.00000087
Sb       4.83623511       3.41973484       8.37660481      -0.00000040       0.00000454      -0.00000094
Bi      -0.00000018      -0.00000003       0.00000032       0.00000127      -0.00000267      -0.00003347
N        1.70927944       1.20864295       5.58440336      -0.00297523      -0.00210667      -0.00000174
N        4.73903419       3.35100330       5.58440349       0.00297582       0.00210541       0.00000092
N        3.98159557       1.20864283       4.27248101       0.00148189      -0.00209552      -0.00256419
N        2.46671817       3.35100321       6.89632552      -0.00149232       0.00211298       0.00258374
N        2.46671800       3.35100331       4.27248102      -0.00148195       0.00209773      -0.00256693
N        3.98159552       1.20864307       6.89632552       0.00149375      -0.00211203       0.00258148
