9
Lattice="4.383311533903025 -7.994753296613751e-08 2.530706264356141 1.4611037260995252 4.132626284579674 2.530706339110666 -1.406164605567304e-07 -7.875620096468836e-09 5.061412772267137" Properties=species:S:1:pos:R:3:forces:R:3 energy=-49.91419219970703 free_energy=-49.91419219970703 stress="-0.0005451252800412476 -2.5446935225659217e-08 3.3916030872660485e-08 -2.5446935225659217e-08 -0.0005456038634292781 1.1736093341596643e-07 3.3916030872660485e-08 1.1736093341596643e-07 -0.0005453696358017623" pbc="T T T"
Sb       1.46110387       1.03315537       2.53070685      -0.00000283      -0.00001214       0.00000790
Sb       4.38331042       3.09946951       7.59212030      -0.00000682      -0.00000631       0.00000901
B        0.00000051       0.00000028      -0.00000084       0.00000175      -0.00000205       0.00000135
O        1.32286683       0.93540782       5.06141197       0.00635648       0.00449377      -0.00000691
O        4.52154821       3.19721838       5.06141231      -0.00635433      -0.00448692       0.00000028
O        3.72187868       0.93540850       3.67634260      -0.00317490       0.00449646       0.00549936
O        2.12253670       3.19721815       6.44648278       0.00317776      -0.00448972      -0.00550604
O        2.12253775       3.19721832       3.67634264       0.00317943      -0.00448781       0.00549662
O        3.72187775       0.93540832       6.44648284      -0.00317609       0.00449473      -0.00550282
