9
Lattice="6.057447111793604 3.02120321623346e-08 3.497268667622475 2.0191491001235007 5.711016146171977 3.497268608083584 1.1474196496912471e-07 8.214852737738071e-09 6.994537136505981" Properties=species:S:1:pos:R:3:forces:R:3 energy=-28.57541847229004 free_energy=-28.57541847229004 stress="-0.00011997306137345731 -8.609876367415836e-09 -9.019003321952823e-09 -8.609876367415836e-09 -0.00012002217408735305 4.806518516531355e-10 -9.019003321952823e-09 4.806518516531355e-10 -0.00011998671834589913" pbc="T T T"
Sb       2.01915028       1.42775828       3.49726759       0.00000550       0.00002418      -0.00000587
Sb       6.05744726       4.28325988      10.49180712       0.00000167      -0.00001449       0.00000751
Be      -0.00000018       0.00000046      -0.00000021       0.00000130      -0.00000376       0.00000146
Te       1.99857484       1.41320725       6.99453743      -0.00132464      -0.00093035       0.00000233
Te       6.07802133       4.29780863       6.99453607       0.00132556       0.00092834      -0.00000437
Te       5.05815984       1.41320747       5.22808509       0.00066210      -0.00092912      -0.00114645
Te       3.01843602       4.29780768       8.76098983      -0.00066528       0.00092504       0.00114989
Te       3.01843661       4.29780823       5.22808507      -0.00066372       0.00092921      -0.00114991
Te       5.05815935       1.41320681       8.76098967       0.00065753      -0.00092895       0.00114553
