9
Lattice="5.2442246163721205 -4.477147630175777e-08 3.027754532227342 1.7480748232961185 4.944302180167791 3.0277545436882134 2.9232600233956528e-08 3.4707243623127374e-08 6.055509013822296" Properties=species:S:1:pos:R:3:forces:R:3 energy=-34.99501037597656 free_energy=-34.99501037597656 stress="-1.7301590560236946e-05 1.5558127230974605e-08 2.773490770380249e-08 1.5558127230974605e-08 -1.7309777831542306e-05 1.7863827750375094e-08 2.773490770380249e-08 1.7863827750375094e-08 -1.7329177353531122e-05" pbc="T T T"
Sb       1.74807452       1.23607583       3.02775369      -0.00000164       0.00000097      -0.00000207
Sb       5.24422321       3.70822676       9.08326505      -0.00000440       0.00000045       0.00000277
Be      -0.00000015       0.00000010       0.00000010      -0.00000175       0.00000049       0.00000149
S        1.77837343       1.25749950       6.05550898       0.00000262       0.00000287       0.00000069
S        5.21392654       3.68680225       6.05550833       0.00000253      -0.00000046       0.00000202
S        4.35503845       1.25749981       4.56787039      -0.00000038      -0.00000156      -0.00000055
S        2.63726164       3.68680247       7.54314785       0.00000343      -0.00000577      -0.00000343
S        2.63726221       3.68680295       4.56787046       0.00000052       0.00000001       0.00000113
S        4.35503802       1.25749904       7.54314748      -0.00000108       0.00000311      -0.00000224
