9
Lattice="5.526011539951898 1.0017042830228576e-07 3.1904442342223254 1.8420039100258916 5.209973792189171 3.190444288030786 2.9055914792270452e-08 8.64472468435041e-08 6.380888418118354" Properties=species:S:1:pos:R:3:forces:R:3 energy=-34.214717864990234 free_energy=-34.214717864990234 stress="0.00020750658586621284 -2.580016200681712e-10 1.2170943419764768e-10 -2.580016200681712e-10 0.00020756285812240094 1.7810478425417386e-08 1.2170943419764768e-10 1.7810478425417386e-08 0.00020753976423293352" pbc="T T T"
Sb       1.84200435       1.30249331       3.19044475       0.00000424      -0.00000083       0.00000341
Sb       5.52601207       3.90748111       9.57133299       0.00000159       0.00000408       0.00000098
B       -0.00000004      -0.00000003      -0.00000002      -0.00000037       0.00000086       0.00000059
Se       1.78913028       1.26510638       6.38088824       0.00072440       0.00051014      -0.00000155
Se       5.57888505       3.94486754       6.38088843      -0.00072644      -0.00051347      -0.00000079
Se       4.63144594       1.26510627       4.73987627      -0.00036459       0.00051099       0.00062855
Se       2.73656924       3.94486782       8.02190020       0.00036324      -0.00051125      -0.00062751
Se       2.73656889       3.94486748       4.73987654       0.00036129      -0.00051130       0.00062648
Se       4.63144610       1.26510596       8.02190033      -0.00036313       0.00051074      -0.00063026
