9
Lattice="6.539683630498748 -7.419413467489058e-08 3.77568822035862 2.1798944716995536 6.165672892742553 3.77568822356144 -4.539086098580991e-09 7.12944952222968e-10 7.551376448579205" Properties=species:S:1:pos:R:3:forces:R:3 energy=-26.987672805786133 free_energy=-26.987672805786133 stress="1.036083631333895e-05 -8.14233835910727e-09 -4.6135578690709167e-10 -8.14233835910727e-09 1.0382866094005294e-05 3.3071021476871465e-09 -4.6135578690709167e-10 3.3071021476871465e-09 1.0370590644015465e-05" pbc="T T T"
Sb       2.17989520       1.54141913       3.77568804       0.00000387       0.00000328      -0.00000131
Sb       6.53968321       4.62425420      11.32706358      -0.00000234      -0.00000130      -0.00000522
Bi      -0.00000010      -0.00000008      -0.00000006      -0.00000041       0.00000072       0.00000109
Te       2.47607403       1.75084905       7.55137639      -0.00002997      -0.00002120      -0.00000061
Te       6.24350390       4.41482378       7.55137693       0.00003040       0.00002049       0.00000224
Te       5.30164638       1.75084890       5.92003135       0.00001368      -0.00002143      -0.00002667
Te       3.41793187       4.41482351       9.18272184      -0.00001367       0.00001949       0.00002891
Te       3.41793158       4.41482364       5.92003143      -0.00001583       0.00001930      -0.00002719
Te       5.30164634       1.75084910       9.18272210       0.00001431      -0.00001933       0.00002880
