9
Lattice="6.083304993463049 -7.005173035558944e-09 3.51219773382359 2.0277683191650793 5.735395050297328 3.512197743150215 -7.181563761009655e-09 6.34461264015119e-09 7.024395480086014" Properties=species:S:1:pos:R:3:forces:R:3 energy=-29.862733840942383 free_energy=-29.862733840942383 stress="-1.017194335872773e-05 3.1366369501739655e-09 -1.4491124744608896e-08 3.1366369501739655e-09 -1.0137602657778189e-05 -1.7375235472627537e-08 -1.4491124744608896e-08 -1.7375235472627537e-08 -1.015572252072161e-05" pbc="T T T"
Sb       2.02776805       1.43384729       3.51219724      -0.00000245      -0.00000613      -0.00000052
Sb       6.08330449       4.30154728      10.53659397      -0.00000125       0.00000379       0.00000438
B       -0.00000004      -0.00000023       0.00000046      -0.00000036       0.00000048      -0.00000129
Te       1.92998326       1.36470379       7.02439547       0.00065774       0.00046314       0.00000044
Te       6.18108997       4.37069152       7.02439502      -0.00065735      -0.00046126      -0.00000305
Te       5.11831382       1.36470398       5.18361253      -0.00032721       0.00046458       0.00056855
Te       2.99276015       4.37069112       8.86517857       0.00032809      -0.00046251      -0.00056945
Te       2.99276033       4.37069133       5.18361217       0.00033048      -0.00046290       0.00056849
Te       5.11831316       1.36470413       8.86517837      -0.00032769       0.00046080      -0.00056763
