9
Lattice="5.343454359149832 6.97842885064058e-08 3.0850449852326545 1.7811514953615972 5.037856917766142 3.0850450259039874 1.5437498160481873e-07 1.5897159519727325e-07 6.170089703080013" Properties=species:S:1:pos:R:3:forces:R:3 energy=-36.62169647216797 free_energy=-36.62169647216797 stress="-0.00035126623697578907 1.136069727181166e-08 -5.9686833253636e-08 1.136069727181166e-08 -0.00035119804670102894 -3.204059240147217e-08 -5.9686833253636e-08 -3.204059240147217e-08 -0.0003512365510687232" pbc="T T T"
Sb       1.78115240       1.25946458       3.08504639       0.00000616       0.00000463       0.00001226
Sb       5.34345458       3.77839245       9.25513241       0.00000151      -0.00000478      -0.00001574
B        0.00000001       0.00000004       0.00000152      -0.00000047       0.00000239       0.00000922
S        1.67876998       1.18707016       6.17008907       0.00451797       0.00319575      -0.00000516
S        5.44583589       3.85078709       6.17009031      -0.00452134      -0.00319868       0.00000396
S        4.50406884       1.18706954       4.53890192      -0.00226417       0.00319460       0.00391111
S        2.62053714       3.85078741       7.80127736       0.00226554      -0.00319611      -0.00391355
S        2.62053597       3.85078711       4.53890265       0.00225489      -0.00319755       0.00391230
S        4.50406932       1.18707025       7.80127723      -0.00226013       0.00319962      -0.00391430
