9
Lattice="4.524126598228319 1.4922036710625045e-07 2.6120058453630373 1.5080422692078952 4.265387789422201 2.612005968144377 -1.891559605414776e-08 1.370005089580572e-07 5.224011723488849" Properties=species:S:1:pos:R:3:forces:R:3 energy=-48.10249710083008 free_energy=-48.10249710083008 stress="-0.00012684766261372715 -4.9269900159742974e-08 -3.6715551487986886e-08 -4.9269900159742974e-08 -0.00012687029084190726 3.69193764448994e-09 -3.6715551487986886e-08 3.69193764448994e-09 -0.00012669980060309172" pbc="T T T"
Sb       1.50804396       1.06634581       2.61200571       0.00002123      -0.00001658      -0.00000427
Sb       4.52412566       3.19904162       7.83601724      -0.00001353       0.00000881      -0.00000485
Co      -0.00000006      -0.00000002       0.00000011       0.00000052       0.00000051       0.00000026
O        1.47018718       1.03957868       5.22401173      -0.00587296      -0.00415844       0.00000180
O        4.56198152       3.22580959       5.22401193       0.00586921       0.00416243       0.00000282
O        3.78903242       1.03957892       3.88522503       0.00293091      -0.00415701      -0.00509161
O        2.24313613       3.22580922       6.56279860      -0.00293195       0.00415826       0.00509155
O        2.24313617       3.22580932       3.88522516      -0.00293261       0.00415707      -0.00508994
O        3.78903230       1.03957923       6.56279888       0.00292972      -0.00415492       0.00509375
