9
Lattice="5.575268112581538 2.0283072313462204e-07 3.2188831002654563 1.8584229985360032 5.256413324939698 3.218882921671028 1.5491775521095008e-07 -1.0918919699289599e-07 6.437765932205483" Properties=species:S:1:pos:R:3:forces:R:3 energy=-31.527816772460938 free_energy=-31.527816772460938 stress="0.00015428120968863368 -5.742560915678041e-08 1.0447063658602929e-08 -5.742560915678041e-08 0.00015431898646056652 -1.0168497510676389e-07 1.0447063658602929e-08 -1.0168497510676389e-07 0.00015411904314532876" pbc="T T T"
Sb       1.85842161       1.31409990       3.21888188      -0.00001907      -0.00003774      -0.00001406
Sb       5.57527333       3.94231203       9.65665107       0.00005489       0.00002315       0.00002403
Ca       0.00000035       0.00000062      -0.00000262      -0.00000365      -0.00001203       0.00004740
S        2.03956703       1.44219401       6.43776517       0.00205317       0.00146309      -0.00000024
S        5.39412147       3.81422236       6.43776305      -0.00205988      -0.00144126      -0.00001714
S        4.55548506       1.44219020       4.98520396      -0.00101583       0.00142848       0.00178994
S        2.87820469       3.81422087       7.89033063       0.00101832      -0.00146590      -0.00179941
S        2.87820693       3.81422312       4.98520483       0.00101097      -0.00141399       0.00177637
S        4.55548456       1.44219061       7.89032986      -0.00103904       0.00145603      -0.00180645
