9
Lattice="6.064727945105195 -2.612913371620504e-07 3.501472235588585 2.0215757834695536 5.717880220360944 3.50147215224984 -4.047621410112683e-08 -1.3068973900622892e-07 7.002944541283988" Properties=species:S:1:pos:R:3:forces:R:3 energy=-33.277957916259766 free_energy=-33.277957916259766 stress="4.877304490946699e-06 -3.8758482645562253e-08 -4.482282878193189e-10 -3.8758482645562253e-08 4.910326879326021e-06 8.352873948069828e-09 -4.482282878193189e-10 8.352873948069828e-09 4.932023330184165e-06" pbc="T T T"
Sb       2.02157643       1.42946927       3.50147270       0.00000166      -0.00000232       0.00000250
Sb       6.06472791       4.28840908      10.50441558       0.00000084      -0.00000223      -0.00000398
Co      -0.00000009      -0.00000007       0.00000050      -0.00000023       0.00000024      -0.00000885
Te       2.00083767       1.41480615       7.00294429       0.00027448       0.00019613       0.00000005
Te       6.08546574       4.30307451       7.00294495      -0.00027642      -0.00019405       0.00000190
Te       5.06430828       1.41480594       5.23424859      -0.00013781       0.00019325       0.00023611
Te       3.02199527       4.30307421       8.77164016       0.00013541      -0.00018898      -0.00023331
Te       3.02199468       4.30307394       5.23424870       0.00013584      -0.00019401       0.00023744
Te       5.06430880       1.41480629       8.77164023      -0.00013373       0.00019196      -0.00023192
