9
Lattice="4.549303112227992 1.3122522377345175e-07 2.62654139000607 1.516434425966541 4.289124502378811 2.626541508645394 -3.325286654020215e-08 1.2178958677175534e-07 5.253082837607797" Properties=species:S:1:pos:R:3:forces:R:3 energy=-44.33146667480469 free_energy=-44.33146667480469 stress="-0.00017745276272762567 1.9094768433092213e-08 -2.3083186917460807e-08 1.9094768433092213e-08 -0.00017735800065565854 1.0925346849433026e-08 -2.3083186917460807e-08 1.0925346849433026e-08 -0.00017741874034982175" pbc="T T T"
Sb       1.51643376       1.07227986       2.62654331      -0.00000993      -0.00002027       0.00002825
Sb       4.54930244       3.21684371       7.87962709      -0.00000692       0.00000068       0.00004353
Cu      -0.00000002      -0.00000001       0.00000007       0.00000113       0.00000164      -0.00000763
O        1.52055716       1.07519600       5.25308182      -0.00036448      -0.00026172      -0.00001374
O        4.54518032       3.21392909       5.25308185       0.00036293       0.00026387      -0.00001692
O        3.78902505       1.07519683       3.94338207       0.00018716      -0.00025022      -0.00032288
O        2.27671273       3.21392898       6.56278251      -0.00018758       0.00027227       0.00030607
O        2.27671363       3.21392861       3.94338188      -0.00017047       0.00026041      -0.00032330
O        3.78902491       1.07519594       6.56278258       0.00018820      -0.00026616       0.00030708
