9
Lattice="5.570302966033709 -4.514148083457424e-08 3.216015833083932 1.8567676426821922 5.251731918508381 3.216015781300035 8.241562193536054e-08 -5.145331561011431e-09 6.432031523419753" Properties=species:S:1:pos:R:3:forces:R:3 energy=-36.084571838378906 free_energy=-36.084571838378906 stress="-6.87689462210983e-05 1.0720403231800901e-08 2.106730079276531e-08 1.0720403231800901e-08 -6.878226122353226e-05 1.1899116358904394e-08 2.106730079276531e-08 1.1899116358904394e-08 -6.874749669805169e-05" pbc="T T T"
Sb       1.85676791       1.31293350       3.21601549       0.00000039       0.00000244      -0.00000126
Sb       5.57030199       3.93879803       9.64804791      -0.00000802      -0.00000776      -0.00000115
Co      -0.00000007      -0.00000000       0.00000013       0.00000037      -0.00000079      -0.00000202
Se       1.88056367       1.32975927       6.43203175       0.00211135       0.00149298       0.00000029
Se       5.54650713       3.92197220       6.43203147      -0.00210727      -0.00149294       0.00000031
Se       4.63002140       1.32975957       4.84463125      -0.00105604       0.00149536       0.00182775
Se       2.79704989       3.92197229       8.01943154       0.00105506      -0.00148981      -0.00182464
Se       2.79704989       3.92197259       4.84463137       0.00105771      -0.00149375       0.00182444
Se       4.63002093       1.32976002       8.01943165      -0.00105380       0.00149417      -0.00182364
