9
Lattice="5.358248971095393 -1.021021266338821e-07 3.0935866238416687 1.7860829901563493 5.051804928127916 3.093586457471222 -6.551484114454853e-09 -2.0839392635397706e-07 6.18717325903082" Properties=species:S:1:pos:R:3:forces:R:3 energy=-42.24907684326172 free_energy=-42.24907684326172 stress="-0.0001337442809017375 -7.269262969344936e-09 -1.1098688190713801e-08 -7.269262969344936e-09 -0.0001337255962425843 -1.8777630561572778e-09 -1.1098688190713801e-08 -1.8777630561572778e-09 -0.00013374671107158065" pbc="T T T"
Sb       1.78608251       1.26295418       3.09358626      -0.00000088       0.00003169      -0.00000381
Sb       5.35825056       3.78885056       9.28076206       0.00001029      -0.00003047       0.00001960
Cr       0.00000008       0.00000007      -0.00000002       0.00000114      -0.00000051      -0.00000083
S        1.84860663       1.30716319       6.18717308       0.00119600       0.00086212      -0.00000057
S        5.29572521       3.74464168       6.18717218      -0.00119960      -0.00086118      -0.00000669
S        4.43394587       1.30716332       4.69452683      -0.00059531       0.00086166       0.00103925
S        2.71038533       3.74464117       7.67981916       0.00059033      -0.00086021      -0.00104347
S        2.71038652       3.74464161       4.69452640       0.00059969      -0.00085828       0.00103979
S        4.43394515       1.30716266       7.67981935      -0.00060169       0.00085506      -0.00104339
