9
Lattice="5.331300802805818 -4.8633810895720435e-09 3.078027866607191 1.777100264063009 5.0263986057157615 3.0780278647949713 7.051555257605217e-09 2.7667015531235577e-09 6.156055721000714" Properties=species:S:1:pos:R:3:forces:R:3 energy=-39.318477630615234 free_energy=-39.318477630615234 stress="-9.852707444224507e-05 -5.553662418833483e-09 1.410619537844937e-10 -5.553662418833483e-09 -9.852708171820268e-05 -2.087542583240065e-08 1.410619537844937e-10 -2.087542583240065e-08 -9.85169826890342e-05" pbc="T T T"
Sb       1.77710066       1.25660081       3.07802877       0.00000284       0.00001083       0.00001122
Sb       5.33130167       3.76979717       9.23408089       0.00000698      -0.00002107      -0.00002386
Co      -0.00000006      -0.00000006      -0.00000047      -0.00000053       0.00000007       0.00000192
S        1.78914415       1.26511739       6.15605557      -0.00022200      -0.00014486      -0.00000339
S        5.31925626       3.76128167       6.15605709       0.00022040       0.00015111       0.00000987
S        4.43672793       1.26511636       4.62747279       0.00010640      -0.00015488      -0.00018963
S        2.67167279       3.76128216       7.68463916      -0.00010877       0.00015339       0.00018920
S        2.67167224       3.76128114       4.62747249      -0.00011744       0.00015051      -0.00019068
S        4.43672859       1.26511787       7.68463958       0.00011203      -0.00014515       0.00019529
