9
Lattice="4.606363071632792 2.3164112179337995e-08 2.659484926901144 1.535454359715677 4.3429208035033575 2.6594849603896167 -4.865477218929714e-08 6.6107313725248725e-09 5.3189699380748205" Properties=species:S:1:pos:R:3:forces:R:3 energy=-52.354515075683594 free_energy=-52.354515075683594 stress="-0.00019538369087968022 -2.5974685513574514e-08 1.1749538231242695e-07 -2.5974685513574514e-08 -0.000195261076441966 1.338670507777806e-08 1.1749538231242695e-07 1.338670507777806e-08 -0.00019553289166651666" pbc="T T T"
Sb       1.53545433       1.08573131       2.65948441       0.00000277       0.00001276      -0.00000997
Sb       4.60636291       3.25718875       7.97845612      -0.00000316      -0.00002684       0.00001914
Cr       0.00000002       0.00000001      -0.00000008      -0.00000410       0.00000014       0.00000343
O        1.50464530       1.06394562       5.31897019       0.00211737       0.00150500       0.00000188
O        4.63717197       3.27897554       5.31896942      -0.00211675      -0.00150104      -0.00000734
O        3.85404068       1.06394597       3.96254588      -0.00105586       0.00151046       0.00183047
O        2.28777679       3.27897504       6.67539372       0.00105698      -0.00150447      -0.00183451
O        2.28777728       3.27897559       3.96254611       0.00106303      -0.00150077       0.00183244
O        3.85404017       1.06394552       6.67539357      -0.00105992       0.00150484      -0.00183532
