9
Lattice="4.425959322337433 4.6843848566039386e-08 2.5553289560301558 1.4753197926523878 4.172834542306977 2.555329000413783 1.4525890640146629e-08 6.46299795654004e-08 5.110657886900747" Properties=species:S:1:pos:R:3:forces:R:3 energy=-50.416221618652344 free_energy=-50.416221618652344 stress="6.51443485821801e-07 6.300845001305788e-08 5.268132952096494e-08 6.300845001305788e-08 6.315614768936939e-07 -3.479636134784414e-08 5.268132952096494e-08 -3.479636134784414e-08 3.6906496347910434e-07" pbc="T T T"
Sb       1.47531990       1.04320925       2.55532901       0.00000126       0.00000340      -0.00000076
Sb       4.42595948       3.12962580       7.66598668       0.00000093       0.00000018      -0.00000180
C        0.00000019      -0.00000057      -0.00000075       0.00000230      -0.00001129      -0.00001424
N        1.35368576       0.95720077       5.11065772       0.00113767       0.00080419      -0.00000200
N        4.54759381       3.21563405       5.11065819      -0.00113106      -0.00080067      -0.00000122
N        3.74911590       0.95720112       3.72765578      -0.00057372       0.00080836       0.00099361
N        2.15216230       3.21563459       6.49366139       0.00055948      -0.00079554      -0.00097346
N        2.15216278       3.21563375       3.72765504       0.00056860      -0.00080591       0.00098163
N        3.74911631       0.95720007       6.49366035      -0.00056550       0.00079608      -0.00098145
