9
Lattice="5.684310120951762 9.202880989810868e-08 3.2818380277497177 1.8947701006921354 5.359219046338185 3.2818380734597605 -7.530571629552695e-08 2.7339335751807445e-09 6.56367618593279" Properties=species:S:1:pos:R:3:forces:R:3 energy=-27.373607635498047 free_energy=-27.373607635498047 stress="0.00020719993335660547 -7.364688858757518e-09 4.712320844646456e-08 -7.364688858757518e-09 0.00020714248239528388 5.097737698633864e-08 4.712320844646456e-08 5.097737698633864e-08 0.0002071445487672463" pbc="T T T"
Sb       1.89476497       1.33980266       3.28184011      -0.00005542      -0.00002361       0.00002191
Sb       5.68430973       4.01941587       9.84551173      -0.00000190       0.00001296      -0.00002689
Cd      -0.00000009      -0.00000003       0.00000020       0.00000083       0.00000086      -0.00000163
Se       2.12983080       1.50601692       6.56367530      -0.00048001      -0.00034792      -0.00000674
Se       5.44925004       3.85320146       6.56367698       0.00049340       0.00034157       0.00000949
Se       4.61939628       1.50601693       5.12632659       0.00025486      -0.00035112      -0.00040892
Se       2.95968668       3.85320350       8.00102659      -0.00023269       0.00036291       0.00041647
Se       2.95968440       3.85320185       5.12632610      -0.00024693       0.00035000      -0.00041469
Se       4.61939775       1.50601744       8.00102552       0.00026787      -0.00034565       0.00041090
