9
Lattice="6.323035712536267 -5.225753323272213e-08 3.650606432928523 2.1076785340002777 5.961415153086816 3.650606411409945 1.9259342481378003e-08 -1.2736311167090273e-08 7.301212832498855" Properties=species:S:1:pos:R:3:forces:R:3 energy=-24.460468292236328 free_energy=-24.460468292236328 stress="-5.182453242014162e-05 -5.235155087213172e-10 -8.002603912871109e-09 -5.235155087213172e-10 -5.181700907996856e-05 8.50954950948335e-09 -8.002603912871109e-09 8.50954950948335e-09 -5.184681504033506e-05" pbc="T T T"
Sb       2.10767893       1.49035575       3.65060647       0.00000229       0.00001069      -0.00000034
Sb       6.32303516       4.47106066      10.95181919      -0.00000204      -0.00000393       0.00000075
Cd      -0.00000002       0.00000027      -0.00000007      -0.00000041      -0.00000338      -0.00000093
Te       2.33620291       1.65194517       7.30121282       0.00179417       0.00127015      -0.00000012
Te       6.09451188       4.30946906       7.30121292      -0.00179017      -0.00127291      -0.00000012
Te       5.15493395       1.65194529       5.67381700      -0.00089819       0.00127101       0.00155255
Te       3.27578013       4.30946961       8.92860839       0.00089604      -0.00127103      -0.00155072
Te       3.27578014       4.30946947       5.67381714       0.00089706      -0.00127219       0.00155117
Te       5.15493399       1.65194508       8.92860888      -0.00089865       0.00127158      -0.00155221
