9
Lattice="5.843351277971605 1.8735778875548933e-07 3.373660214648626 1.9477838789145179 5.509164572374703 3.373660313465512 -1.8803039077170632e-07 -1.193206234470275e-08 6.747320754975407" Properties=species:S:1:pos:R:3:forces:R:3 energy=-29.288095474243164 free_energy=-29.288095474243164 stress="7.048492989270017e-05 4.4981579350178436e-08 1.0387760873697971e-08 4.4981579350178436e-08 7.045559323159978e-05 3.007690096978877e-08 1.0387760873697971e-08 3.007690096978877e-08 7.03939949744381e-05" pbc="T T T"
Sb       1.94778521       1.37729277       3.37365922       0.00001799       0.00001599      -0.00000964
Sb       5.84335004       4.13187127      10.12098026      -0.00001235      -0.00002771      -0.00000459
Ca       0.00000078       0.00000046      -0.00000088      -0.00000626      -0.00000960       0.00001327
Se       2.18494852       1.54499345       6.74732023      -0.00451745      -0.00318421       0.00000103
Se       5.60618571       3.96417098       6.74732019       0.00452630       0.00319096      -0.00000008
Se       4.75087636       1.54499372       5.26588129       0.00225822      -0.00318371      -0.00392261
Se       3.04025882       3.96417188       8.22876087      -0.00224901       0.00318164       0.00391869
Se       3.04025857       3.96417195       5.26588205      -0.00225931       0.00319339      -0.00391680
Se       4.75087565       1.54499250       8.22876197       0.00224198      -0.00317685       0.00392061
