9
Lattice="5.4555431986795355 2.7920028874897797e-08 3.149759181225297 1.8185143616014152 5.143535471394834 3.1497592925644553 -1.1901979077580469e-07 5.220234277371342e-08 6.299518568598929" Properties=species:S:1:pos:R:3:forces:R:3 energy=-29.491878509521484 free_energy=-29.491878509521484 stress="-8.633277320768684e-05 1.0437555886255723e-07 -4.8412857722723857e-08 1.0437555886255723e-07 -8.630676165921614e-05 -1.0200401412419069e-08 -4.8412857722723857e-08 -1.0200401412419069e-08 -8.592788071837276e-05" pbc="T T T"
Sb       1.81851974       1.28588493       3.14975892       0.00004936       0.00000804      -0.00000272
Sb       5.45554012       3.85764964       9.44927691      -0.00002838      -0.00001992      -0.00001035
Cd      -0.00000018      -0.00000035      -0.00000002       0.00000327       0.00000245      -0.00000042
S        1.99191699       1.40849845       6.29951853      -0.00287995      -0.00203444       0.00000150
S        5.28213966       3.73503818       6.29951891       0.00286904       0.00203925       0.00000443
S        4.45958285       1.40849907       4.87480873       0.00142257      -0.00202627      -0.00250390
S        2.81447412       3.73503670       7.72422857      -0.00142714       0.00202602       0.00250551
S        2.81447342       3.73503674       4.87480936      -0.00143315       0.00202850      -0.00249869
S        4.45958318       1.40849889       7.72422829       0.00142443      -0.00202334       0.00250471
