9
Lattice="6.531409114890042 6.23044581128624e-08 3.7709107490105223 2.1771365362780304 6.157871273018981 3.7709105655744835 1.0498233852269559e-07 -1.504285675351754e-07 7.541821316186273" Properties=species:S:1:pos:R:3:forces:R:3 energy=-26.943777084350586 free_energy=-26.943777084350586 stress="-1.4605284377466887e-05 1.8487112285470175e-08 8.182861499506089e-09 1.8487112285470175e-08 -1.4573585758625995e-05 -2.1982152986765868e-08 8.182861499506089e-09 -2.1982152986765868e-08 -1.4571774954674765e-05" pbc="T T T"
Sb       2.17713507       1.53946818       3.77091149      -0.00000994       0.00000113       0.00000517
Sb       6.53141185       4.61840433      11.31273252       0.00001357       0.00000505       0.00000241
Ca      -0.00000000       0.00000017       0.00000033       0.00000005      -0.00000113      -0.00000242
Te       2.48064874       1.75408358       7.54182113       0.00321664       0.00227623      -0.00000082
Te       6.22789675       4.40378722       7.54182151      -0.00321489      -0.00227757       0.00000052
Te       5.29108503       1.75408289       5.91921574      -0.00160784       0.00227411       0.00279132
Te       3.41745946       4.40378799       9.16442556       0.00160238      -0.00227457      -0.00279216
Te       3.41746016       4.40378751       5.91921612       0.00160402      -0.00227447       0.00278814
Te       5.29108598       1.75408289       9.16442612      -0.00160403       0.00227127      -0.00279216
