9
Lattice="5.562739323524189 4.281090201710697e-09 3.211649105925256 1.8542464080255159 5.244601247036203 3.2116491703322665 -4.9599638599898457e-08 4.380998669437452e-08 6.42329829775954" Properties=species:S:1:pos:R:3:forces:R:3 energy=-31.69628143310547 free_energy=-31.69628143310547 stress="9.216413309331983e-05 -1.0599333855054738e-08 -1.43972265220782e-08 -1.0599333855054738e-08 9.21596001717262e-05 9.043388815577202e-10 -1.43972265220782e-08 9.043388815577202e-10 9.221693471772596e-05" pbc="T T T"
Sb       1.85424704       1.31115293       3.21164846       0.00000437       0.00001950      -0.00000608
Sb       5.56273863       3.93344896       9.63494767      -0.00000530      -0.00001464       0.00000391
Cu      -0.00000016      -0.00000032      -0.00000032       0.00000014       0.00000196       0.00000283
Se       1.97529722       1.39674729       6.42329869      -0.00241259      -0.00169930       0.00000295
Se       5.44168886       3.84785358       6.42329801       0.00241271       0.00169498      -0.00000289
Se       4.57509014       1.39674727       4.92230649       0.00120410      -0.00169979      -0.00209200
Se       2.84189548       3.84785433       7.92429035      -0.00120293       0.00169757       0.00209141
Se       2.84189549       3.84785449       4.92230716      -0.00120333       0.00170046      -0.00209051
Se       4.57508997       1.39674658       7.92428988       0.00120284      -0.00170076       0.00209016
