9
Lattice="4.7471711089824735 2.62999752579618e-08 2.740780470823081 1.5823904184563533 4.475675697597991 2.7407804292544156 1.4771266514764872e-08 -4.046614451733256e-08 5.481560916061562" Properties=species:S:1:pos:R:3:forces:R:3 energy=-37.85188293457031 free_energy=-37.85188293457031 stress="8.577367407269776e-05 -4.0681577218038e-08 1.5795553309772004e-08 -4.0681577218038e-08 8.584418537793681e-05 -1.1219235540593786e-09 1.5795553309772004e-08 -1.1219235540593786e-09 8.584078022977337e-05" pbc="T T T"
Sb       1.58239070       1.11891921       2.74078080       0.00000278       0.00000237       0.00000498
Sb       4.74717132       3.35675783       8.22234145       0.00000222       0.00001127       0.00000359
Cd       0.00000010      -0.00000020       0.00000006       0.00000421       0.00000812      -0.00000067
O        1.73812458       1.22903955       5.48156086       0.00097454       0.00068393      -0.00000177
O        4.59143717       3.24663582       5.48156085      -0.00097662      -0.00069347      -0.00000209
O        3.87810852       1.22903916       4.24604057      -0.00049064       0.00068322       0.00084281
O        2.45145262       3.24663625       6.71708129       0.00048557      -0.00068620      -0.00084507
O        2.45145269       3.24663585       4.24604018       0.00048691      -0.00069085       0.00084120
O        3.87810857       1.22903926       6.71708123      -0.00048894       0.00068134      -0.00084352
