9
Lattice="4.7776512804441476 5.700948079684449e-08 2.7583783108222133 1.5925504862212714 4.504412998315436 2.7583783010231175 -8.663063299550062e-08 -7.325849213531872e-08 5.516756771693094" Properties=species:S:1:pos:R:3:forces:R:3 energy=-41.20274353027344 free_energy=-41.20274353027344 stress="7.557559001725167e-05 -7.072085850268195e-08 4.817047738470137e-08 -7.072085850268195e-08 7.533279131166637e-05 2.287555389557383e-08 4.817047738470137e-08 2.287555389557383e-08 7.496505713788792e-05" pbc="T T T"
Sb       1.59254772       1.12610259       2.75837841      -0.00003161      -0.00000497       0.00000123
Sb       4.77765163       3.37830991       8.27513451       0.00000393       0.00000034      -0.00001049
Ca      -0.00000008      -0.00000006      -0.00000021      -0.00000107      -0.00000367      -0.00000155
O        1.76037403       1.24477305       5.51675700       0.00077569       0.00055496       0.00000224
O        4.60982813       3.25963956       5.51675706      -0.00076962      -0.00055544       0.00000443
O        3.89746445       1.24477224       4.28290754      -0.00038211       0.00054653       0.00068334
O        2.47273817       3.25964127       6.75060590       0.00039458      -0.00054240      -0.00067839
O        2.47273748       3.25964087       4.28290769       0.00038736      -0.00054495       0.00068176
O        3.89746511       1.24477243       6.75060561      -0.00037730       0.00054960      -0.00068235
