9
Lattice="4.584677408946338 2.2217668500362705e-08 2.646964599765989 1.5282258189416955 4.322475329421382 2.6469646084045295 -7.270895575874115e-08 -4.083301209324246e-08 5.293929325467573" Properties=species:S:1:pos:R:3:forces:R:3 energy=-48.925315856933594 free_energy=-48.925315856933594 stress="-4.600924876285717e-05 1.4544747273248504e-07 4.1263856331852367e-08 1.4544747273248504e-07 -4.5876109652454033e-05 5.0435168930107466e-08 4.1263856331852367e-08 5.0435168930107466e-08 -4.6091186959529296e-05" pbc="T T T"
Sb       1.52822481       1.08061258       2.64696485      -0.00001273      -0.00006986       0.00000432
Sb       4.58467745       3.24185856       7.94088767       0.00000199       0.00002238      -0.00007079
Co      -0.00000006      -0.00000036      -0.00000083      -0.00000079      -0.00000221      -0.00000004
N        1.51935000       1.07434126       5.29392866      -0.00561327      -0.00399008      -0.00000890
N        4.59355167       3.24813564       5.29393345       0.00559437       0.00400448       0.00004962
N        3.82500221       1.07433895       3.96276167       0.00280172      -0.00401255      -0.00484556
N        2.28790279       3.24813585       6.62509774      -0.00277293       0.00400442       0.00484699
N        2.28789984       3.24813578       3.96276210      -0.00281924       0.00400668      -0.00483382
N        3.82500390       1.07434301       6.62509861       0.00282046      -0.00396338       0.00485790
