9
Lattice="4.598277641531901 -2.815092505249183e-09 2.6548169421898575 1.5327591968424272 4.3352977985224745 2.6548169670403663 -1.9475350677168152e-08 1.666435941115916e-08 5.309633918112012" Properties=species:S:1:pos:R:3:forces:R:3 energy=-53.758087158203125 free_energy=-53.758087158203125 stress="-1.706105649645906e-05 -8.99727403691486e-09 1.169145420476525e-07 -8.99727403691486e-09 -1.7258185835089535e-05 -8.095306469613206e-08 1.169145420476525e-07 -8.095306469613206e-08 -1.7025144188664854e-05" pbc="T T T"
Sb       1.53275896       1.08382679       2.65481584      -0.00000701       0.00003216      -0.00001421
Sb       4.59827935       3.25147164       7.96445020       0.00002782      -0.00002571      -0.00001127
Cr      -0.00000011       0.00000004       0.00000046       0.00000393       0.00000355      -0.00000932
N        1.51792512       1.07333722       5.30963394       0.00046587       0.00035930       0.00000359
N        4.61311190       3.26196064       5.30963350      -0.00047314      -0.00036168      -0.00000085
N        3.83931579       1.07333583       3.96937994      -0.00022948       0.00034893       0.00042391
N        2.29172139       3.26196065       6.64988847       0.00022483      -0.00035602      -0.00041121
N        2.29172067       3.26196145       3.96938022       0.00022292      -0.00035071       0.00042337
N        3.83931443       1.07333701       6.64988912      -0.00023729       0.00035065      -0.00040436
