9
Lattice="5.296820935585123 -3.741444032002415e-08 3.0581207078679844 1.7656068026279457 4.993890709165616 3.0581209514389305 -8.723063753654798e-08 2.3663092094764974e-07 6.116241566823863" Properties=species:S:1:pos:R:3:forces:R:3 energy=-35.35086441040039 free_energy=-35.35086441040039 stress="1.0917778126895428e-05 1.7355953341180452e-09 7.492787545970714e-08 1.7355953341180452e-09 1.0938265404547565e-05 -1.260303417183195e-08 7.492787545970714e-08 -1.260303417183195e-08 1.0976815246976912e-05" pbc="T T T"
Sb       1.76561226       1.24847037       3.05812047       0.00004937      -0.00002050      -0.00000661
Sb       5.29682475       3.74541830       9.17436875       0.00003647       0.00000233       0.00006132
C        0.00000734      -0.00000215       0.00000259       0.00015144      -0.00004778       0.00005249
S        1.65997947       1.17378515       6.11624132       0.00032166       0.00024422       0.00000045
S        5.40244237       3.82010571       6.11623918      -0.00042048      -0.00027131      -0.00002887
S        4.46682713       1.17378626       4.49570734      -0.00021338       0.00028342       0.00032219
S        2.59559509       3.82010622       7.73677465       0.00014928      -0.00024697      -0.00031960
S        2.59559638       3.82010841       4.49570557       0.00015993      -0.00022148       0.00027892
S        4.46682587       1.17378538       7.73677298      -0.00023392       0.00027806      -0.00036055
