9
Lattice="5.599195714558054 5.584692113029312e-08 3.2326972136438843 1.8663985987696001 5.278972523912586 3.232697257642696 -3.224324467032338e-08 3.1087912837106e-08 6.465394483134697" Properties=species:S:1:pos:R:3:forces:R:3 energy=-38.93657684326172 free_energy=-38.93657684326172 stress="1.0747478881967254e-05 3.4647754887373594e-08 2.6615333936774732e-08 3.4647754887373594e-08 1.0819901945069432e-05 -1.548804107187607e-08 2.6615333936774732e-08 -1.548804107187607e-08 1.076728312909836e-05" pbc="T T T"
Sb       1.86639872       1.31974600       3.23269686       0.00000225       0.00001947      -0.00000516
Sb       5.59919571       3.95922967       9.69809446       0.00000156       0.00000116       0.00002140
Cr      -0.00000006       0.00000002       0.00000029       0.00000270      -0.00000188      -0.00000419
Se       1.92525187       1.36135882       6.46539465      -0.00052550      -0.00037370      -0.00000101
Se       5.54034291       3.91761284       6.46539351       0.00052975       0.00036463      -0.00000759
Se       4.63656981       1.36135905       4.90001368       0.00025838      -0.00036461      -0.00045169
Se       2.82902387       3.91761292       8.03077456      -0.00026922       0.00036628       0.00045718
Se       2.82902509       3.91761322       4.90001353      -0.00025872       0.00036528      -0.00046032
Se       4.63656920       1.36135789       8.03077430       0.00025889      -0.00037657       0.00045146
