9
Lattice="6.0737042289613585 4.8481772201470006e-08 3.5066548500603782 2.02456813727737 5.726343143992647 3.506654823650258 2.0941081953642934e-08 -1.7538066303536893e-08 7.013309663849709" Properties=species:S:1:pos:R:3:forces:R:3 energy=-28.79616355895996 free_energy=-28.79616355895996 stress="-5.310263077262789e-05 1.7515507266807617e-08 5.750438347718045e-09 1.7515507266807617e-08 -5.311837958288379e-05 -1.8071681928688577e-09 5.750438347718045e-09 -1.8071681928688577e-09 -5.311980567057617e-05" pbc="T T T"
Sb       2.02456774       1.43158555       3.50665513      -0.00000118      -0.00000115       0.00000061
Sb       6.07370422       4.29475802      10.51996446      -0.00000017       0.00000276      -0.00000049
Cu      -0.00000000       0.00000012      -0.00000023       0.00000039      -0.00000174       0.00000400
Te       2.12020980       1.49921449       7.01330946       0.00129319       0.00091372      -0.00000064
Te       5.97806265       4.22712838       7.01330961      -0.00129203      -0.00091381      -0.00000003
Te       5.01359925       1.49921418       5.34281060      -0.00064626       0.00091216       0.00112067
Te       3.08467311       4.22712909       8.68380894       0.00064788      -0.00091454      -0.00112060
Te       3.08467317       4.22712873       5.34281050       0.00064559      -0.00091213       0.00111830
Te       5.01359962       1.49921414       8.68380890      -0.00064748       0.00091477      -0.00112188
