9
Lattice="5.333117659095235 1.4980757359849195e-08 3.0790768999893814 1.7777058984434673 5.028111370540943 3.079076903532428 5.203784921482587e-08 4.113564478969193e-08 6.15815370984659" Properties=species:S:1:pos:R:3:forces:R:3 energy=-34.034202575683594 free_energy=-34.034202575683594 stress="-1.5376439478131942e-05 -1.3472086557442253e-08 -1.071706012822915e-08 -1.3472086557442253e-08 -1.5366451407317072e-05 -1.029838769817104e-09 -1.071706012822915e-08 -1.029838769817104e-09 -1.5365802028100006e-05" pbc="T T T"
Sb       1.77770596       1.25702989       3.07907690      -0.00000073       0.00001492       0.00000135
Sb       5.33311668       3.77108209       9.23723029      -0.00000929      -0.00001123      -0.00000143
Cu       0.00000024       0.00000005      -0.00000015      -0.00000246      -0.00000049       0.00000218
S        1.86820496       1.32102078       6.15815352      -0.00051540      -0.00036091       0.00000173
S        5.24261832       3.70708995       6.15815390       0.00052172       0.00036258       0.00000083
S        4.39901517       1.32102108       4.69699011       0.00025958      -0.00036556      -0.00044972
S        2.71180889       3.70709069       7.61931796      -0.00025499       0.00036025       0.00044787
S        2.71180890       3.70709001       4.69698973      -0.00025678       0.00036138      -0.00045109
S        4.39901534       1.32102116       7.61931780       0.00025836      -0.00036040       0.00044847
