9
Lattice="5.335225609572293 -3.01184909260564e-08 3.0802939365985766 1.7784085424420304 5.030098955303467 3.080293877165097 -9.898441008882121e-08 -1.4278335392608275e-07 6.160588044643163" Properties=species:S:1:pos:R:3:forces:R:3 energy=-40.41231918334961 free_energy=-40.41231918334961 stress="-0.000158074835781008 4.369207573517997e-08 -4.382346041609253e-09 4.369207573517997e-08 -0.0001580567768542096 2.8014900621542438e-08 -4.382346041609253e-09 2.8014900621542438e-08 -0.00015810686454642564" pbc="T T T"
Sb       1.77840840       1.25752421       3.08029278      -0.00000084      -0.00000518      -0.00001455
Sb       5.33522488       3.77257584       9.24088072      -0.00000725       0.00001628      -0.00000956
Fe       0.00000018       0.00000017       0.00000013      -0.00000068      -0.00000175      -0.00000005
S        1.79257923       1.26754354       6.16058864      -0.00078180      -0.00056508       0.00000397
S        5.32105496       3.76255436       6.16058895       0.00078911       0.00056115       0.00000718
S        4.43893669       1.26754435       4.63271260       0.00039464      -0.00056127      -0.00067499
S        2.67469789       3.76255365       7.68846374      -0.00039235       0.00055584       0.00068745
S        2.67469796       3.76255515       4.63271239      -0.00039183       0.00055876      -0.00067785
S        4.43893605       1.26754380       7.68846361       0.00039105      -0.00055879       0.00067872
