9
Lattice="4.581188151612418 -1.894607397707248e-08 2.6449502504212723 1.527062676509997 4.319185731017368 2.6449502899667885 -1.1856519433228367e-07 -3.540510114102273e-08 5.289900706203483" Properties=species:S:1:pos:R:3:forces:R:3 energy=-48.241607666015625 free_energy=-48.241607666015625 stress="-0.00025198067305609584 3.4097975998292895e-08 1.6229354571350996e-07 3.4097975998292895e-08 -0.00025184042169712484 1.5957670029820292e-07 1.6229354571350996e-07 1.5957670029820292e-07 -0.00025197959621436894" pbc="T T T"
Sb       1.52706367       1.07979726       2.64495241       0.00001841       0.00001152       0.00003438
Sb       4.58118931       3.23938826       7.93485831       0.00001769      -0.00001332       0.00011277
Fe       0.00000007       0.00000015       0.00000003      -0.00000789      -0.00000371      -0.00001680
O        1.50138298       1.06163890       5.28989992      -0.00027362      -0.00018026      -0.00001284
O        4.60686706       3.25754698       5.28989703       0.00027233       0.00019459      -0.00004739
O        3.83049615       1.06163953       3.94518509       0.00013129      -0.00017166      -0.00025576
O        2.27775264       3.25754714       6.63461331      -0.00015928       0.00018968       0.00021367
O        2.27775509       3.25754670       3.94518520      -0.00012429       0.00017801      -0.00024953
O        3.83049590       1.06163774       6.63461369       0.00012526      -0.00020473       0.00022130
