9
Lattice="5.606865373222651 1.7420528483601883e-08 3.237125334598409 1.8689551862728693 5.286203447109424 3.237125255892186 -8.164476623500165e-08 -1.5412663596012126e-07 6.47425081060977" Properties=species:S:1:pos:R:3:forces:R:3 energy=-37.355445861816406 free_energy=-37.355445861816406 stress="-7.309439297387144e-06 3.0065443468174635e-08 4.2961609381109156e-08 3.0065443468174635e-08 -7.390837254206417e-06 -2.085428185694127e-08 4.2961609381109156e-08 -2.085428185694127e-08 -7.339836884057149e-06" pbc="T T T"
Sb       1.86895468       1.32155420       3.23712547      -0.00000623       0.00002529       0.00000107
Sb       5.60686476       3.96465010       9.71137611      -0.00000469      -0.00002128      -0.00000133
Fe      -0.00000010      -0.00000015      -0.00000062       0.00000190       0.00000021       0.00000920
Se       1.86934225       1.32182508       6.47425098       0.00033921       0.00024430       0.00000124
Se       5.60647878       3.96437749       6.47425045      -0.00033426      -0.00024806      -0.00000152
Se       4.67219460       1.32182497       4.85602309      -0.00016788       0.00024549       0.00029400
Se       2.80362618       3.96437840       8.09247828       0.00017336      -0.00025155      -0.00029504
Se       2.80362603       3.96437771       4.85602323       0.00016727      -0.00024568       0.00028841
Se       4.67219472       1.32182546       8.09247854      -0.00016889       0.00025143      -0.00029609
