9
Lattice="6.104410328178369 -4.0737656643236566e-07 3.5243826749516125 2.0348031651735083 5.755292831502993 3.5243824904436476 -3.185029493823581e-08 -2.4849674659817883e-07 7.048765405069554" Properties=species:S:1:pos:R:3:forces:R:3 energy=-34.38715744018555 free_energy=-34.38715744018555 stress="7.624119461979717e-06 -2.3081923927747994e-08 2.4263448139549837e-08 -2.3081923927747994e-08 7.638034730916843e-06 -4.890758731335154e-08 2.4263448139549837e-08 -4.890758731335154e-08 7.668075340916403e-06" pbc="T T T"
Sb       2.03480335       1.43882183       3.52438271       0.00000027      -0.00000495       0.00000052
Sb       6.10441021       4.31646919      10.57314797       0.00000003       0.00000061       0.00000080
Fe      -0.00000009      -0.00000024       0.00000042      -0.00000105       0.00000404      -0.00000630
Te       1.97847600       1.39899367       7.04876525      -0.00539402      -0.00381424      -0.00000013
Te       6.16073679       4.35629962       7.04876508       0.00539264       0.00381582      -0.00000030
Te       5.11517217       1.39899342       5.23779365       0.00269712      -0.00381324      -0.00467040
Te       3.02404145       4.35629878       8.85973686      -0.00269776       0.00381500       0.00467140
Te       3.02404192       4.35629860       5.23779362      -0.00269760       0.00381567      -0.00467341
Te       5.11517201       1.39899373       8.85973682       0.00270030      -0.00381877       0.00467786
