9
Lattice="4.643405383467097 2.6589626273870907e-08 2.6808712838078512 1.5478018170116297 4.377844711026913 2.6808712882182686 -2.387497577546917e-09 3.7134184818965804e-09 5.36174257175097" Properties=species:S:1:pos:R:3:forces:R:3 energy=-50.973541259765625 free_energy=-50.973541259765625 stress="-8.844384137773886e-05 6.949643083231649e-09 2.5863487351784897e-08 6.949643083231649e-09 -8.850118319969624e-05 -7.661433443217902e-08 2.5863487351784897e-08 -7.661433443217902e-08 -8.84958280948922e-05" pbc="T T T"
Sb       1.54780134       1.09446175       2.68087040      -0.00000576       0.00000728      -0.00001085
Sb       4.64340659       3.28338526       8.04261084       0.00001283       0.00001996      -0.00003444
Fe      -0.00000094      -0.00000026      -0.00000040      -0.00000706      -0.00000238      -0.00000373
N        1.51807210       1.07343851       5.36174269      -0.00555831      -0.00393742       0.00000128
N        4.67313625       3.30440557       5.36174458       0.00556993       0.00393042       0.00002165
N        3.88436978       1.07343764       3.99556067       0.00278121      -0.00394788      -0.00480366
N        2.30683752       3.30440557       6.72792567      -0.00277981       0.00392932       0.00482130
N        2.30683656       3.30440643       3.99556080      -0.00279385       0.00393742      -0.00480694
N        3.88436957       1.07343845       6.72792518       0.00278106      -0.00393635       0.00481552
