9
Lattice="4.602844232426137 6.777732344667007e-08 2.657453417663542 1.5342814669311835 4.339603166930024 2.6574534311364864 -1.1408823992704355e-08 8.433663051622089e-09 5.314906855087728" Properties=species:S:1:pos:R:3:forces:R:3 energy=-45.796913146972656 free_energy=-45.796913146972656 stress="-4.96938155265525e-05 8.392541417379107e-08 -9.51966256934611e-08 8.392541417379107e-08 -4.9343016144121066e-05 9.86163612992641e-08 -9.51966256934611e-08 9.86163612992641e-08 -4.982754398952238e-05" pbc="T T T"
Sb       1.53427977       1.08490030       2.65745449      -0.00001613      -0.00000627       0.00001204
Sb       4.60284348       3.25470454       7.97236191      -0.00000870       0.00002324       0.00001831
Ge      -0.00000008       0.00000017      -0.00000009      -0.00000333       0.00000202       0.00000320
N        1.60114361       1.13217798       5.31490711      -0.00325668      -0.00232005      -0.00000157
N        4.53598301       3.20742381       5.31490621       0.00326538       0.00230563      -0.00000820
N        3.80227264       1.13217860       4.04408392       0.00163192      -0.00231308      -0.00282383
N        2.33485265       3.20742545       6.58572922      -0.00163096       0.00231820       0.00281918
N        2.33485393       3.20742460       4.04408326      -0.00161898       0.00230891      -0.00282955
N        3.80227371       1.13217753       6.58572852       0.00163728      -0.00231844       0.00281084
