9
Lattice="6.241293500869489 1.8500231725258976e-09 3.603412332471054 2.080431171155771 5.884348031927259 3.6034123282188135 1.5507818703584934e-08 5.757683697028331e-09 7.206824638081893" Properties=species:S:1:pos:R:3:forces:R:3 energy=-28.464839935302734 free_energy=-28.464839935302734 stress="-4.367147539596772e-06 1.2444094643626613e-08 -6.435727062381602e-09 1.2444094643626613e-08 -4.367335805000039e-06 2.3393535997229264e-09 -6.435727062381602e-09 2.3393535997229264e-09 -4.390727099234937e-06" pbc="T T T"
Sb       2.08043074       1.47108640       3.60341226      -0.00000262      -0.00000247      -0.00000038
Sb       6.24129430       4.41326097      10.81023692       0.00000417      -0.00000258      -0.00000103
Ge      -0.00000008      -0.00000012       0.00000024      -0.00000084       0.00000026      -0.00000171
Te       2.23988843       1.58384082       7.20682484       0.00007638       0.00005623       0.00000039
Te       6.08183552       4.30050770       7.20682463      -0.00007678      -0.00005300      -0.00000015
Te       5.12134937       1.58384062       5.54321286      -0.00003807       0.00005495       0.00006865
Te       3.20037554       4.30050740       8.87043624       0.00003736      -0.00005390      -0.00006814
Te       3.20037526       4.30050757       5.54321295       0.00003751      -0.00005455       0.00006967
Te       5.12134965       1.58384082       8.87043623      -0.00003713       0.00005510      -0.00006717
