9
Lattice="5.634810830938691 1.634045919773421e-08 3.2532595436582876 1.878270327902231 5.312550576726779 3.2532594821415035 1.4056154704346574e-07 2.4049673079673784e-08 6.5065188438568375" Properties=species:S:1:pos:R:3:forces:R:3 energy=-30.889951705932617 free_energy=-30.889951705932617 stress="0.000441043172031641 -2.6232484628962993e-08 5.971585181896444e-08 -2.6232484628962993e-08 0.00044111558236181736 4.4099877527514764e-08 5.971585181896444e-08 4.4099877527514764e-08 0.0004410058609209955" pbc="T T T"
Sb       1.87827137       1.32813691       3.25325936       0.00001185      -0.00000620       0.00000025
Sb       5.63480881       3.98441348       9.75977657      -0.00002102       0.00000361      -0.00001747
Ga      -0.00000002      -0.00000004       0.00000009      -0.00000380       0.00000419      -0.00000101
Se       2.01543882       1.42512931       6.50651886      -0.00673759      -0.00477144      -0.00000011
Se       5.49764318       3.88742091       6.50651890       0.00673907       0.00476982       0.00000451
Se       4.62709105       1.42512931       4.99868046       0.00336395      -0.00477307      -0.00583647
Se       2.88599077       3.88742119       8.01435890      -0.00335626       0.00476932       0.00583941
Se       2.88598968       3.88742038       4.99867965      -0.00336649       0.00476560      -0.00583587
Se       4.62709152       1.42513097       8.01435868       0.00337017      -0.00476171       0.00584673
