9
Lattice="6.232280931834773 -3.849632589885206e-08 3.5982091341772207 2.077426923211791 5.875850938390106 3.598209164958823 3.051814602757606e-08 5.927921624250669e-08 7.196418215495398" Properties=species:S:1:pos:R:3:forces:R:3 energy=-27.364269256591797 free_energy=-27.364269256591797 stress="-3.6579611332854256e-05 -3.3880571681521587e-09 7.26072091339347e-10 -3.3880571681521587e-09 -3.6596025893231854e-05 -6.274771369163545e-09 7.26072091339347e-10 -6.274771369163545e-09 -3.658987407106906e-05" pbc="T T T"
Sb       2.07742728       1.46896344       3.59820896       0.00000195       0.00000564      -0.00000129
Sb       6.23228023       4.40688753      10.79462717      -0.00000351      -0.00000521      -0.00000156
Ga      -0.00000005       0.00000003       0.00000020      -0.00000116       0.00000034       0.00000183
Te       2.22656832       1.57442227       7.19641814      -0.00439883      -0.00310737       0.00000057
Te       6.08313951       4.30142884       7.19641814       0.00439811       0.00310818       0.00000006
Te       5.11899640       1.57442202       5.52647376       0.00219929      -0.00310877      -0.00380984
Te       3.19071177       4.30142870       8.86636312      -0.00219621       0.00310632       0.00381037
Te       3.19071140       4.30142898       5.52647396      -0.00219807       0.00310905      -0.00380927
Te       5.11899666       1.57442199       8.86636260       0.00219842      -0.00310827       0.00380915
