9
Lattice="4.593720343122597 -2.3786155473460908e-07 2.6521855843636177 1.5312399719621534 4.3310007907335955 2.652185442602209 5.130677618027968e-08 -1.3734217609582014e-07 5.304371079861259" Properties=species:S:1:pos:R:3:forces:R:3 energy=-48.58489990234375 free_energy=-48.58489990234375 stress="-1.6864418284967542e-05 4.5921606073306975e-08 1.721914166807892e-08 4.5921606073306975e-08 -1.7216500054928474e-05 -3.552932525963115e-08 1.721914166807892e-08 -3.552932525963115e-08 -1.707447154331021e-05" pbc="T T T"
Sb       1.53124189       1.08274991       2.65218634       0.00002990      -0.00000527       0.00001673
Sb       4.59372074       3.24824897       7.95655964       0.00000651      -0.00001471       0.00004377
Ge       0.00000015      -0.00000031       0.00000020      -0.00000519       0.00000631       0.00000442
O        1.53231355       1.08350922       5.30437087      -0.00523853      -0.00369197      -0.00000526
O        4.59264631       3.24749166       5.30436954       0.00523007       0.00370526      -0.00002156
O        3.82756291       1.08351011       3.97920657       0.00260657      -0.00368708      -0.00454879
O        2.29739641       3.24749201       6.62953355      -0.00262243       0.00369608       0.00451863
O        2.29739677       3.24749161       3.97920752      -0.00261492       0.00369352      -0.00453389
O        3.82756289       1.08350865       6.62953426       0.00260758      -0.00370193       0.00452685
