9
Lattice="4.668981466083884 0.2887187833431108 3.038022533768426 1.598449956358407 3.4606939480451304 3.716153143093302 -2.379622322376462 -0.17168512567958827 10.283373133638976" Properties=species:S:1:pos:R:3:forces:R:3 energy=-56.82251739501953 free_energy=-56.82251739501953 stress="2.8265671062399633e-05 0.0001649022160563618 0.001317458227276802 0.0001649022160563618 -0.003891254775226116 -0.001058167894370854 0.001317458227276802 -0.001058167894370854 -0.0032923452090471983" pbc="T T T"
Sb       0.32828034       0.91329963       5.83296377      -0.00307366      -0.20309731       0.06524685
Sb       3.64558553       2.51926962      11.03008139       0.08383077       0.25806510      -0.01368421
Ga      -0.26496654       0.65504676       0.37647437       0.01112590      -0.03802821      -0.00314362
N       -0.11619515       0.50326137      10.27755118       0.11940050      -0.09503122       0.05556077
N        4.07973736       2.79415581       6.70497198      -0.05879384       0.12530434      -0.06112193
N        3.06307681       2.67480779       6.14342494       0.03124511      -0.23386922       0.01010332
N        0.88290584       0.74138631      10.83640041      -0.32253885       0.24377471      -0.17000800
N        2.02340457       2.45197396       5.57546622       0.04679060       0.08292416       0.05060685
N        1.90943286       1.05781449      11.37276182       0.09201324      -0.14004235       0.06643987
