9
Lattice="5.471493474892693 -1.3571024269335663e-07 3.1589684012014656 1.8238310985603343 5.158573656574915 3.158968283055462 8.397358676021009e-08 -8.532040532032536e-08 6.317936656956439" Properties=species:S:1:pos:R:3:forces:R:3 energy=-34.94138717651367 free_energy=-34.94138717651367 stress="-9.047843923326582e-05 -3.581265417551549e-08 2.5988100560425664e-08 -3.581265417551549e-08 -9.055760892806575e-05 -1.340631161639294e-08 2.5988100560425664e-08 -1.340631161639294e-08 -9.043219324667007e-05" pbc="T T T"
Sb       1.82382943       1.28964143       3.15896700      -0.00002190      -0.00002273      -0.00001766
Sb       5.47149083       3.86892943       9.47690778      -0.00002970      -0.00000522       0.00003183
Ge      -0.00000009       0.00000001       0.00000026      -0.00000068       0.00000101      -0.00000405
S        1.87744850       1.32755553       6.31793647       0.00118473       0.00083017       0.00000299
S        5.41787677       3.83101819       6.31793478      -0.00118217      -0.00083110      -0.00001665
S        4.53277160       1.32755674       4.78488654      -0.00057212       0.00084858       0.00102648
S        2.76255576       3.83101792       7.85098743       0.00059706      -0.00082955      -0.00102398
S        2.76255661       3.83101830       4.78488564       0.00061129      -0.00082542       0.00102130
S        4.53276931       1.32755621       7.85098747      -0.00058654       0.00083442      -0.00102067
