9
Lattice="4.6354302736988435 -3.24059440866695e-08 2.6762669459898647 1.5451433950275226 4.370325598173271 2.6762669442337823 -1.381380788154177e-07 -9.982914665867082e-08 5.352534131241892" Properties=species:S:1:pos:R:3:forces:R:3 energy=-44.725868225097656 free_energy=-44.725868225097656 stress="0.00010147225839318708 9.526669941806176e-08 5.0543068397246316e-08 9.526669941806176e-08 0.00010148539877263829 -3.773665468997933e-08 5.0543068397246316e-08 -3.773665468997933e-08 0.0001017181493807584" pbc="T T T"
Sb       1.54514694       1.09258117       2.67626682       0.00004941      -0.00000401       0.00000014
Sb       4.63543046       3.27774178       8.02879833       0.00000554      -0.00003147      -0.00003997
Ga       0.00000060       0.00000002      -0.00000034      -0.00000287      -0.00000237       0.00000129
O        1.58541505       1.12105881       5.35253366      -0.00055218      -0.00037038      -0.00000090
O        4.59515757       3.24926718       5.35253581       0.00054085       0.00039244       0.00002209
O        3.84272036       1.12105861       4.04927604       0.00025019      -0.00038040      -0.00048560
O        2.33785175       3.24926751       6.65579162      -0.00026345       0.00038052       0.00047731
O        2.33785053       3.24926746       4.04927758      -0.00028345       0.00038344      -0.00046664
O        3.84272082       1.12105951       6.65579258       0.00025633      -0.00036746       0.00049269
