9
Lattice="5.735675722063174 -9.297497450084546e-08 3.3114937702373104 1.9118918295486174 5.407646883581964 3.3114937531733664 -1.093675966436951e-07 -9.823357387003033e-08 6.6229877299047795" Properties=species:S:1:pos:R:3:forces:R:3 energy=-26.2508544921875 free_energy=-26.2508544921875 stress="0.00012312634498812258 -3.9083509761894675e-08 -6.464065904765448e-08 -3.9083509761894675e-08 0.000123161036754027 2.5264812464342867e-08 -6.464065904765448e-08 2.5264812464342867e-08 0.00012312510807532817" pbc="T T T"
Sb       1.91189261       1.35191300       3.31149408       0.00000909       0.00001255       0.00000338
Sb       5.73567593       4.05573592       9.93448301      -0.00000028       0.00000956       0.00001222
Hg       0.00000011       0.00000023       0.00000008       0.00000014       0.00000184       0.00000137
Se       2.16717374       1.53242350       6.62298786      -0.00080664      -0.00057117      -0.00000111
Se       5.48039439       3.87522284       6.62298674       0.00081015       0.00056717      -0.00000587
Se       4.65208839       1.53242318       5.18832112       0.00039979      -0.00057343      -0.00070261
Se       2.99547774       3.87522328       8.05765392      -0.00040632       0.00056484       0.00069787
Se       2.99547907       3.87522286       5.18832063      -0.00040318       0.00056666      -0.00070237
Se       4.65208777       1.53242199       8.05765361       0.00039724      -0.00057798       0.00069699
