9
Lattice="4.554422350399848 2.2741390137851376e-08 2.629496948680812 1.5181407284104524 4.293950878079419 2.629497081177442 -1.6145998721297655e-09 1.6113288265722667e-07 5.258993900158187" Properties=species:S:1:pos:R:3:forces:R:3 energy=-53.0079460144043 free_energy=-53.0079460144043 stress="-1.802910446713213e-05 5.899010346865907e-08 -3.883380088609556e-07 5.899010346865907e-08 -1.8806365915224887e-05 -3.68131338746025e-07 -3.883380088609556e-07 -3.68131338746025e-07 -1.7720678442856297e-05" pbc="T T T"
Sb       1.51813915       1.07348666       2.62949791      -0.00001218      -0.00001170       0.00001375
Sb       4.55442268       3.22046493       7.88848858       0.00000431       0.00001499      -0.00002055
Hf      -0.00000018       0.00000005       0.00000004      -0.00000304      -0.00000219      -0.00000718
N        1.73599758       1.22753393       5.25899258       0.00283559       0.00196444      -0.00003712
N        4.33656612       3.06641537       5.25899631      -0.00283419      -0.00199729       0.00005561
N        3.68642256       1.22753279       4.13291620      -0.00143216       0.00194085       0.00247973
N        2.38614063       3.06641830       6.38507244       0.00143718      -0.00193807      -0.00247394
N        2.38613798       3.06641662       4.13291590       0.00137891      -0.00196806       0.00247391
N        3.68642574       1.22753555       6.38507170      -0.00137431       0.00199692      -0.00248438
