9
Lattice="4.710756613781077 -1.089881711386751e-08 2.7197565688455745 1.5702521993948302 4.441343945021317 2.719756560052567 -5.7565447472866825e-09 -1.4839672828853232e-08 5.439513147661759" Properties=species:S:1:pos:R:3:forces:R:3 energy=-37.192359924316406 free_energy=-37.192359924316406 stress="-0.0006398856639862061 -3.8840135552220545e-09 -3.492694844453581e-08 -3.8840135552220545e-09 -0.0006400126148946583 -2.6395849062055277e-08 -3.492694844453581e-08 -2.6395849062055277e-08 -0.000639961683191359" pbc="T T T"
Sb       1.57025178       1.11033584       2.71975663      -0.00000112      -0.00000277      -0.00000065
Sb       4.71075672       3.33100755       8.15927024       0.00000160      -0.00000544       0.00000509
Hg       0.00000032       0.00000012      -0.00000033      -0.00001155       0.00000144       0.00002147
O        1.69487670       1.19845894       5.43951319       0.00567809       0.00401881       0.00000097
O        4.58613185       3.24288490       5.43951289      -0.00567442      -0.00401253      -0.00000360
O        3.86331832       1.19845902       4.18756297      -0.00283276       0.00401339       0.00490975
O        2.41769053       3.24288527       6.69146328       0.00284235      -0.00402039      -0.00492743
O        2.41769062       3.24288503       4.18756282       0.00283767      -0.00401238       0.00491616
O        3.86331834       1.19845903       6.69146334      -0.00284007       0.00402004      -0.00492167
