9
Lattice="6.323710699118014 6.6554286733548e-08 3.6509963016627442 2.1079036331687617 5.962051714744504 3.650996294651177 1.3460288982328095e-07 8.659130972166285e-08 7.301992370186449" Properties=species:S:1:pos:R:3:forces:R:3 energy=-23.666427612304688 free_energy=-23.666427612304688 stress="-0.00029944858397357166 2.961635825471376e-09 -1.8124343137415622e-09 2.961635825471376e-09 -0.0002994644164573401 1.596144216797768e-09 -1.8124343137415622e-09 1.596144216797768e-09 -0.0002994536189362407" pbc="T T T"
Sb       2.10790415       1.49051409       3.65099658       0.00000478       0.00000510       0.00000097
Sb       6.32370991       4.47153827      10.95299063      -0.00000518      -0.00000376       0.00000858
Hg       0.00000013       0.00000024       0.00000004      -0.00000081      -0.00000328      -0.00000130
Te       2.34299688       1.65674895       7.30199260       0.00738330       0.00522026       0.00000020
Te       6.08861784       4.30530305       7.30199167      -0.00738128      -0.00522090      -0.00000421
Te       5.15221228       1.65674943       5.68008964      -0.00369296       0.00522549       0.00639096
Te       3.27940198       4.30530223       8.92389429       0.00369031      -0.00522241      -0.00639026
Te       3.27940264       4.30530243       5.68009034       0.00369435      -0.00522195       0.00638919
Te       5.15221211       1.65674878       8.92389413      -0.00369251       0.00522141      -0.00639422
