9
Lattice="6.39239170331072 -4.0715599312775327e-08 3.6906492095621344 2.1307972221035008 6.02680467969977 3.6906491644359316 4.5987306569754004e-08 -2.2750140085009524e-08 7.381298339471898" Properties=species:S:1:pos:R:3:forces:R:3 energy=-26.568763732910156 free_energy=-26.568763732910156 stress="-5.903779310756363e-05 -3.128466730117907e-08 6.14813977506401e-09 -3.128466730117907e-08 -5.902570046600886e-05 -1.9217640812030368e-08 6.14813977506401e-09 -1.9217640812030368e-08 -5.900741234654561e-05" pbc="T T T"
Sb       2.13079810       1.50670186       3.69064958       0.00000446       0.00000378       0.00000366
Sb       6.39239018       4.52010303      11.07194675      -0.00000847      -0.00000250      -0.00000461
In       0.00000009      -0.00000018      -0.00000004       0.00000105       0.00000266      -0.00000128
Te       2.34555465       1.65855715       7.38129809       0.00639248       0.00451918      -0.00000132
Te       6.17763470       4.36824702       7.38129883      -0.00639312      -0.00452252       0.00000291
Te       5.21961399       1.65855766       5.72195862      -0.00319759       0.00452077       0.00553334
Te       3.30357504       4.36824734       9.04063818       0.00319953      -0.00452034      -0.00553371
Te       3.30357485       4.36824669       5.72195840       0.00319761      -0.00452194       0.00553297
Te       5.21961425       1.65855789       9.04063842      -0.00319604       0.00452100      -0.00553197
