9
Lattice="4.738206210928507 -4.970758686420421e-08 2.7356046082977232 1.5794020030661091 4.467223728654343 2.7356046435945496 -8.226563008517082e-08 -1.494095673728128e-08 5.471209359083657" Properties=species:S:1:pos:R:3:forces:R:3 energy=-42.57688903808594 free_energy=-42.57688903808594 stress="0.0001880675263237208 9.2000407292403e-09 -1.9006568763302312e-08 9.2000407292403e-09 0.00018806102161761373 1.1418222811698797e-08 -1.9006568763302312e-08 1.1418222811698797e-08 0.000188173507922329" pbc="T T T"
Sb       1.57940232       1.11680676       2.73560434       0.00000465       0.00001031      -0.00000333
Sb       4.73820562       3.35041868       8.20681371      -0.00000779       0.00001290      -0.00000271
In       0.00000013       0.00000001       0.00000013      -0.00000300       0.00000564      -0.00000010
O        1.71837934       1.21507730       5.47120936      -0.00314587      -0.00223202       0.00000175
O        4.59922910       3.25214573       5.47120946       0.00314939       0.00222284       0.00000164
O        3.87901615       1.21507727       4.22376482       0.00157288      -0.00223190      -0.00272912
O        2.43859181       3.25214561       6.71865423      -0.00157180       0.00222063       0.00273126
O        2.43859162       3.25214604       4.22376459      -0.00156990       0.00222313      -0.00272828
O        3.87901627       1.21507717       6.71865367       0.00157174      -0.00223172       0.00272918
