9
Lattice="5.481539368304904 2.826413716750629e-07 3.164768908017551 1.8271801746754748 5.168044989340137 3.1647687023128235 3.22223826267085e-07 -2.4089120338866383e-08 6.3295372579270905" Properties=species:S:1:pos:R:3:forces:R:3 energy=-32.33918762207031 free_energy=-32.33918762207031 stress="-1.0368824405304622e-05 -5.676348635574868e-08 -1.409578658240207e-07 -5.676348635574868e-08 -1.0315879990230314e-05 -4.105898554485066e-08 -1.409578658240207e-07 -4.105898554485066e-08 -1.0555642802501097e-05" pbc="T T T"
Sb       1.82717649       1.29200907       3.16476703      -0.00003652      -0.00002446      -0.00001585
Sb       5.48154392       3.87603635       9.49431051       0.00004561       0.00002653       0.00004372
In       0.00000032      -0.00000014      -0.00000018      -0.00000635      -0.00000040      -0.00000458
S        1.99767265       1.41256786       6.32953760       0.00001621       0.00001442       0.00000381
S        5.31104760       3.75547670       6.32953488      -0.00001219      -0.00001580      -0.00002246
S        4.48270400       1.41256706       4.89480555       0.00000249       0.00000156       0.00002718
S        2.82601489       3.75547823       7.76426885      -0.00000900       0.00000025      -0.00003195
S        2.82601671       3.75547920       4.89480511       0.00001046       0.00000420       0.00002503
S        4.48270288       1.41256662       7.76427012      -0.00001079      -0.00000647      -0.00002499
