9
Lattice="4.700549674179151 3.092823099375294e-08 2.7138636852109017 1.5668499378042884 4.431720695956334 2.713863655329856 4.406780555605933e-08 -5.435994402045075e-09 5.427727294094129" Properties=species:S:1:pos:R:3:forces:R:3 energy=-50.928001403808594 free_energy=-50.928001403808594 stress="0.00020694172417279333 1.6226248789052988e-08 9.896983677037952e-09 1.6226248789052988e-08 0.00020698914886452258 -1.4175553175732603e-08 9.896983677037952e-09 -1.4175553175732603e-08 0.00020695604325737804" pbc="T T T"
Sb       1.56685125       1.10793034       2.71386291       0.00001627       0.00000290      -0.00001095
Sb       4.70055058       3.32378937       8.14159175       0.00001397      -0.00001440       0.00001463
Ir       0.00000007       0.00000007       0.00000001       0.00000252      -0.00000498       0.00000254
O        1.55896929       1.10235909       5.42772773      -0.00003693      -0.00001285       0.00000558
O        4.70842973       3.32936246       5.42772689       0.00002977       0.00002372      -0.00000769
O        3.92106452       1.10235838       4.06397084       0.00001139      -0.00001579      -0.00003128
O        2.34633442       3.32936234       6.79148323      -0.00002358       0.00001876       0.00002711
O        2.34633486       3.32936254       4.06397132      -0.00001833       0.00002513      -0.00003123
O        3.92106393       1.10235826       6.79148383       0.00000503      -0.00002223       0.00003153
