9
Lattice="5.761530353010906 1.3277989643431905e-07 3.326420788419699 1.9205102866351051 5.432023267354665 3.326420712592774 -1.1556394568266395e-07 -1.7458469852329252e-07 6.652841777001997" Properties=species:S:1:pos:R:3:forces:R:3 energy=-29.337635040283203 free_energy=-29.337635040283203 stress="8.4387902461458e-06 2.4186975977613656e-08 8.896881098507947e-08 2.4186975977613656e-08 8.296614396385849e-06 4.807948883467361e-08 8.896881098507947e-08 4.807948883467361e-08 8.477552910335362e-06" pbc="T T T"
Sb       1.92050569       1.35801248       3.32642315      -0.00004682       0.00006779       0.00001986
Sb       5.76152799       4.07401465       9.97925857      -0.00002290      -0.00002596      -0.00003529
In       0.00000154      -0.00000054       0.00000051      -0.00001079       0.00000670      -0.00000895
Se       2.14129368       1.51412334       6.65284153       0.00024197       0.00017343      -0.00000862
Se       5.54074863       3.91789774       6.65284343      -0.00021777      -0.00019702       0.00001817
Se       4.69088453       1.51412352       5.18083561      -0.00010932       0.00017456       0.00021105
Se       2.99115772       3.91789860       8.12484973       0.00013533      -0.00018552      -0.00019692
Se       2.99115567       3.91789761       5.18083362       0.00011660      -0.00020059       0.00020386
Se       4.69088664       1.51412540       8.12484696      -0.00008612       0.00018663      -0.00020303
