9
Lattice="5.460211519467074 9.311071084892433e-08 3.1524546315266395 1.820070628934989 5.14793639066845 3.152454571493125 1.5409829753505764e-07 3.543824177440074e-08 6.3049089961471925" Properties=species:S:1:pos:R:3:forces:R:3 energy=-40.61280059814453 free_energy=-40.61280059814453 stress="-0.0004633531207218766 -3.9935862616857776e-08 -3.1542334966161434e-08 -3.9935862616857776e-08 -0.0004632861237041652 -1.7216287284682608e-09 -3.1542334966161434e-08 -1.7216287284682608e-09 -0.00046332378406077623" pbc="T T T"
Sb       1.82007093       1.28698235       3.15245436       0.00000120      -0.00002004      -0.00000223
Sb       5.46021149       3.86095333       9.45736409      -0.00000680       0.00001315       0.00000188
Ir      -0.00000001       0.00000011       0.00000015      -0.00000058       0.00000013      -0.00000125
S        1.89134484       1.33738211       6.30490920      -0.00523877      -0.00371045       0.00000113
S        5.38893724       3.81055474       6.30490904       0.00523996       0.00371444      -0.00000021
S        4.51453897       1.33738227       4.79040712       0.00261986      -0.00371262      -0.00454301
S        2.76574326       3.81055431       7.81941076      -0.00261965       0.00371408       0.00454119
S        2.76574322       3.81055458       4.79040727      -0.00261712       0.00371501      -0.00453976
S        4.51453928       1.33738222       7.81941082       0.00262207      -0.00371361       0.00454193
