9
Lattice="4.610868588476994 3.2890749016179516e-08 2.662086388331956 1.5369561905992983 4.347168731466211 2.6620864516720353 -5.981546355356721e-08 3.527948650321762e-08 5.324172880267329" Properties=species:S:1:pos:R:3:forces:R:3 energy=-51.40703201293945 free_energy=-51.40703201293945 stress="-3.12443298753351e-05 1.481392253310787e-08 -1.1305286484741828e-08 1.481392253310787e-08 -3.130044206045568e-05 4.872417491696979e-08 -1.1305286484741828e-08 4.872417491696979e-08 -3.127970558125526e-05" pbc="T T T"
Sb       1.53695570       1.08679322       2.66208770      -0.00000737       0.00001256       0.00001979
Sb       4.61086875       3.26037652       7.98625629       0.00000650      -0.00000225      -0.00003809
Ir      -0.00000010       0.00000013       0.00000089      -0.00000007      -0.00000469      -0.00001635
N        1.63016143       1.15269834       5.32417208       0.00048834       0.00035137      -0.00001427
N        4.51766362       3.19446975       5.32417482      -0.00048256      -0.00035113       0.00002540
N        3.79578745       1.15269785       4.07384809      -0.00025499       0.00034010       0.00042993
N        2.35203772       3.19447056       6.57449758       0.00024757      -0.00033760      -0.00041538
N        2.35203576       3.19446974       4.07384778       0.00023147      -0.00036001       0.00042796
N        3.79578842       1.15269910       6.57449770      -0.00022900       0.00035226      -0.00041872
