9
Lattice="5.719081561364468 -1.4218635143556915e-08 3.3019133734626074 1.9063604920502064 5.392001650785609 3.3019133994418457 6.80699644285556e-09 3.663124350856455e-08 6.603826735135102" Properties=species:S:1:pos:R:3:forces:R:3 energy=-37.67155456542969 free_energy=-37.67155456542969 stress="-0.00011696480942191556 -2.95860900223488e-08 -1.8933841161583587e-08 -2.95860900223488e-08 -0.00011700025788741186 6.0307456806185655e-09 -1.8933841161583587e-08 6.0307456806185655e-09 -0.00011699290917022154" pbc="T T T"
Sb       1.90635990       1.34800144       3.30191425      -0.00000594       0.00000727       0.00000430
Sb       5.71908261       4.04400152       9.90574014       0.00000966       0.00000270      -0.00000098
Ir       0.00000010      -0.00000019       0.00000037      -0.00000007       0.00000090      -0.00000541
Se       1.98943970       1.40674672       6.60382642       0.00354542       0.00250858      -0.00000323
Se       5.63600229       3.98525499       6.60382663      -0.00354429      -0.00250895      -0.00000002
Se       4.72436175       1.40674617       5.02481935      -0.00177345       0.00250486       0.00307468
Se       2.90108028       3.98525487       8.18283411       0.00176884      -0.00250546      -0.00307022
Se       2.90107986       3.98525464       5.02481878       0.00176877      -0.00251347       0.00307199
Se       4.72436177       1.40674650       8.18283396      -0.00176883       0.00250367      -0.00307113
