9
Lattice="5.374511994428011 -1.463188756926688e-07 3.102975910925665 1.7915038886064383 5.067138418544113 3.102975861710218 1.6896131520288912e-08 -4.832896018609603e-08 6.205951792586361" Properties=species:S:1:pos:R:3:forces:R:3 energy=-32.834110260009766 free_energy=-32.834110260009766 stress="1.347280885966029e-06 -1.5158384547575565e-09 5.064987096403684e-09 -1.5158384547575565e-09 1.3232800029072678e-06 -8.303469023474008e-09 5.064987096403684e-09 -8.303469023474008e-09 1.3598571513284696e-06" pbc="T T T"
Sb       1.79150304       1.26678515       3.10297630      -0.00000323       0.00000403       0.00000331
Sb       5.37451238       3.80035282       9.30892708       0.00000080      -0.00000331      -0.00000111
Mg       0.00000009       0.00000001       0.00000008      -0.00000186       0.00000106       0.00000227
S        1.91662977       1.35526193       6.20595151      -0.00059175      -0.00041723       0.00000139
S        5.24938640       3.71187603       6.20595173       0.00059394       0.00041989      -0.00000123
S        4.41619717       1.35526211       4.76282584       0.00029666      -0.00042047      -0.00051346
S        2.74981924       3.71187638       7.64907781      -0.00029497       0.00041765       0.00050931
S        2.74981827       3.71187585       4.76282592      -0.00029717       0.00041726      -0.00051223
S        4.41619729       1.35526253       7.64907797       0.00029778      -0.00041881       0.00051194
