9
Lattice="6.274601440192212 -7.647475014392231e-08 3.622643015515648 2.09153375890324 5.915751094386244 3.6226429850195 2.0652584249252582e-07 1.0868590986325204e-07 7.2452856733181035" Properties=species:S:1:pos:R:3:forces:R:3 energy=-26.092466354370117 free_energy=-26.092466354370117 stress="-0.00014283382915891707 -1.2783196723376022e-08 -3.4665522008481275e-08 -1.2783196723376022e-08 -0.00014281152107287198 -1.7452780554094716e-08 -3.4665522008481275e-08 -1.7452780554094716e-08 -0.00014280382310971618" pbc="T T T"
Sb       2.09153425       1.47893716       3.62264363       0.00000193      -0.00000225       0.00000464
Sb       6.27460133       4.43681327      10.86792654      -0.00000032      -0.00000020      -0.00001292
Mg       0.00000029      -0.00000071       0.00000275      -0.00000328       0.00000680      -0.00002161
Te       2.30015499       1.62645509       7.24528500      -0.00070192      -0.00049665      -0.00000454
Te       6.06598064       4.28929584       7.24528783       0.00070058       0.00049610       0.00000791
Te       5.12452375       1.62645489       5.61463549       0.00034542      -0.00049551      -0.00060493
Te       3.24161184       4.28929576       8.87593522      -0.00035131       0.00050245       0.00061188
Te       3.24161062       4.28929659       5.61463505      -0.00034828       0.00049016      -0.00059893
Te       5.12452383       1.62645662       8.87593522       0.00035723      -0.00050087       0.00061850
