9
Lattice="5.394130518480364 -9.991133489807954e-08 3.11430254795534 1.798043313229329 5.085635128025663 3.1143027189667527 -2.057951175760181e-07 6.392619612744095e-08 6.228605452358264" Properties=species:S:1:pos:R:3:forces:R:3 energy=-41.56312561035156 free_energy=-41.56312561035156 stress="0.00024352280888706446 -4.546272336369839e-08 3.233585132988992e-08 -4.546272336369839e-08 0.00024352740729227662 -2.1902776481397268e-08 3.233585132988992e-08 -2.1902776481397268e-08 0.0002434931811876595" pbc="T T T"
Sb       1.79804332       1.27140621       3.11430188       0.00000025      -0.00002167      -0.00001088
Sb       5.39412894       3.81422667       9.34290740      -0.00001551       0.00000072      -0.00000539
Mn       0.00000041       0.00000012       0.00000100      -0.00000550       0.00000035      -0.00000724
S        1.82590858       1.29111257       6.22860601      -0.00575396      -0.00407374       0.00000510
S        5.36626466       3.79452231       6.22860542       0.00575858       0.00407979       0.00000410
S        4.48117600       1.29111282       4.69558617       0.00287797      -0.00407264      -0.00498614
S        2.71099832       3.79452323       7.76162411      -0.00287060       0.00408024       0.00498757
S        2.71099872       3.79452334       4.69558638      -0.00287129       0.00408047      -0.00498325
S        4.48117562       1.29111312       7.76162441       0.00288032      -0.00407359       0.00499612
