9
Lattice="4.5820356243633285 -1.0066283755237701e-07 2.645439606129283 1.5273451673168896 4.319984505790679 2.645439512422559 3.9880167724462086e-08 -8.656728322023758e-08 5.2908791431840925" Properties=species:S:1:pos:R:3:forces:R:3 energy=-53.49751663208008 free_energy=-53.49751663208008 stress="-0.00018983520567417145 2.2295376211900475e-08 -1.8491876474513447e-08 2.2295376211900475e-08 -0.0001897570473374799 2.4489143157779836e-08 -1.8491876474513447e-08 2.4489143157779836e-08 -0.00018982340407092124" pbc="T T T"
Sb       1.52734487       1.07999657       2.64544021      -0.00000567       0.00000545       0.00000518
Sb       4.58203497       3.23998846       7.93632119      -0.00000543       0.00000262       0.00002556
Mn      -0.00000015      -0.00000012       0.00000014      -0.00000104      -0.00000140      -0.00000125
N        1.51747347       1.07301537       5.29087934       0.00043106       0.00030199      -0.00000028
N        4.59190758       3.24696859       5.29087791      -0.00042677      -0.00030574      -0.00001323
N        3.82329943       1.07301637       3.95960999      -0.00021052       0.00030938       0.00036979
N        2.28608113       3.24696885       6.62214757       0.00020602      -0.00030100      -0.00037271
N        2.28608325       3.24696821       3.95960900       0.00022522      -0.00030708       0.00036252
N        3.82329899       1.07301492       6.62214766      -0.00021309       0.00029576      -0.00037551
