9
Lattice="4.579261272600755 2.690771635309704e-08 2.6438376960614693 1.526420479577259 4.317369084860677 2.643837644085846 6.866468787915838e-08 -1.5103632322045817e-08 5.287675273192241" Properties=species:S:1:pos:R:3:forces:R:3 energy=-42.74994659423828 free_energy=-42.74994659423828 stress="-0.00011997497495030984 -8.895598924141268e-09 -5.7037297551687516e-08 -8.895598924141268e-09 -0.00012017858534818515 -1.2453099884623953e-07 -5.7037297551687516e-08 -1.2453099884623953e-07 -0.00012033205712214112" pbc="T T T"
Sb       1.52641676       1.07934081       2.64383526      -0.00004994      -0.00002064      -0.00003148
Sb       4.57925965       3.23802499       7.93151300      -0.00002370      -0.00002704      -0.00000317
Mg       0.00000031      -0.00000031      -0.00000051      -0.00001431       0.00000276       0.00001230
O        1.60437227       1.13446320       5.28767594      -0.00328064      -0.00231189       0.00001274
O        4.50130942       3.18290669       5.28767529       0.00328952       0.00232208       0.00000525
O        3.77707751       1.13446390       4.03326547       0.00167447      -0.00230956      -0.00284001
O        2.32860714       3.18290664       6.54208699      -0.00162455       0.00231346       0.00283861
O        2.32860772       3.18290792       4.03326570      -0.00162816       0.00234169      -0.00283208
O        3.77707656       1.13446253       6.54208536       0.00165740      -0.00231045       0.00283751
