9
Lattice="4.648192523017467 9.291404537413563e-09 2.6836353136231885 1.5493975302482657 4.382358127770095 2.6836352896935938 3.13419928783511e-08 -7.1455111137914695e-09 5.367270572960448" Properties=species:S:1:pos:R:3:forces:R:3 energy=-53.28873062133789 free_energy=-53.28873062133789 stress="-4.219243419356644e-05 -3.137144588549745e-08 2.618839367585224e-08 -3.137144588549745e-08 -4.222940333420411e-05 1.0475767808770797e-08 2.618839367585224e-08 1.0475767808770797e-08 -4.2341998778283596e-05" pbc="T T T"
Sb       1.54939764       1.09558936       2.68363550       0.00000167      -0.00000409       0.00000171
Sb       4.64819233       3.28676868       8.05090591      -0.00000463      -0.00000094       0.00000059
Mn       0.00000008      -0.00000006      -0.00000007       0.00000452       0.00000641      -0.00000027
O        1.51704494       1.07271266       5.36727051       0.00617278       0.00436077      -0.00000233
O        4.68054506       3.30964552       5.36727043      -0.00615889      -0.00435591      -0.00000362
O        3.88967004       1.07271280       3.99743473      -0.00308982       0.00436139       0.00534618
O        2.30792012       3.30964539       6.73710639       0.00307634      -0.00435901      -0.00534046
O        2.30792002       3.30964533       3.99743473       0.00308356      -0.00436208       0.00534099
O        3.88967008       1.07271288       6.73710652      -0.00308567       0.00435367      -0.00534266
