9
Lattice="4.615557904175351 -1.1711141187346105e-08 2.664793603701305 1.5385192575244817 4.3515899619183065 2.664793660557476 -5.719030391821156e-09 6.559033070282633e-08 5.329587217308257" Properties=species:S:1:pos:R:3:forces:R:3 energy=-55.394752502441406 free_energy=-55.394752502441406 stress="5.163108198757982e-06 -5.269758673875913e-08 -5.388800872196953e-08 -5.269758673875913e-08 4.935664946970064e-06 -1.3858355574214443e-09 -5.388800872196953e-08 -1.3858355574214443e-09 5.039981260779314e-06" pbc="T T T"
Sb       1.53851855       1.08789779       2.66479270      -0.00000955       0.00000364      -0.00000966
Sb       4.61555795       3.26369229       7.99438148       0.00000278      -0.00000183       0.00000584
Mo       0.00000007      -0.00000008      -0.00000045      -0.00000062      -0.00000029       0.00001155
N        1.63315261       1.15481334       5.32958720      -0.00046098      -0.00032550       0.00000087
N        4.52092483       3.19677655       5.32958661       0.00046229       0.00032419      -0.00000464
N        3.79898242       1.15481335       4.07914581       0.00024140      -0.00033039      -0.00040257
N        2.35509496       3.19677640       6.58002962      -0.00023508       0.00032401       0.00039887
N        2.35509560       3.19677731       4.07914548      -0.00022978       0.00032943      -0.00039756
N        3.79898160       1.15481322       6.58002961       0.00022906      -0.00032288       0.00039756
