9
Lattice="5.608493304789611 -1.1469496327772415e-08 3.2380650148814043 1.8694977458458093 5.287738272539696 3.238065034979937 -7.566199906911318e-08 -2.888556956242853e-08 6.476130160813247" Properties=species:S:1:pos:R:3:forces:R:3 energy=-29.63275146484375 free_energy=-29.63275146484375 stress="4.009591430076398e-05 5.3450374792873845e-08 -4.307287859717235e-09 5.3450374792873845e-08 4.007641109637916e-05 -1.524320758505837e-08 -4.307287859717235e-09 -1.524320758505837e-08 4.0052564145298675e-05" pbc="T T T"
Sb       1.86949621       1.32193522       3.23806434      -0.00001238       0.00000314      -0.00000927
Sb       5.60849134       3.96580256       9.71419621      -0.00001695      -0.00000912       0.00001084
Mg       0.00000039       0.00000067      -0.00000020      -0.00000358      -0.00001246      -0.00000096
Se       2.04321924       1.44477415       6.47613025      -0.00079172      -0.00056168       0.00000246
Se       5.43477101       3.84296338       6.47612935       0.00080682       0.00056643      -0.00000494
Se       4.58688552       1.44477442       5.00754497       0.00040662      -0.00055653      -0.00068696
Se       2.89110780       3.84296361       7.94471538      -0.00039761       0.00056402       0.00069527
Se       2.89110847       3.84296417       5.00754471      -0.00039173       0.00056463      -0.00069668
Se       4.58688393       1.44477478       7.94471585       0.00040026      -0.00055839       0.00069023
