9
Lattice="5.637778776495743 4.4297225134196944e-08 3.254973015791998 1.8792595949502238 5.315348788717428 3.2549730833053574 -3.0903979347009685e-08 6.083423769151506e-08 6.509946085111282" Properties=species:S:1:pos:R:3:forces:R:3 energy=-38.272483825683594 free_energy=-38.272483825683594 stress="-4.415431249071844e-05 1.9766037695490013e-08 3.592644048922011e-08 1.9766037695490013e-08 -4.416438969201408e-05 6.550526876480944e-08 3.592644048922011e-08 6.550526876480944e-08 -4.407977030496113e-05" pbc="T T T"
Sb       1.87926004       1.32883765       3.25497285       0.00000415       0.00000377      -0.00000159
Sb       5.63777947       3.98651115       9.76491896       0.00000263      -0.00000161       0.00000370
Mn       0.00000016       0.00000015       0.00000024      -0.00000355       0.00000075       0.00000137
Se       1.90578933       1.34759682       6.50994669      -0.00109795      -0.00077447       0.00000199
Se       5.61124863       3.96775224       6.50994633       0.00109847       0.00077786      -0.00000089
Se       4.68488380       1.34759694       4.90543510       0.00054865      -0.00077783      -0.00095347
Se       2.83215426       3.96775233       8.11445675      -0.00054944       0.00077571       0.00094831
Se       2.83215389       3.96775153       4.90543478      -0.00055082       0.00077133      -0.00095050
Se       4.68488381       1.34759684       8.11445700       0.00054779      -0.00077555       0.00095090
