9
Lattice="6.083307579971164 -7.334861536811995e-08 3.5121991962101506 2.027769199176949 5.735396867123763 3.512199066294233 -1.4801881054346515e-08 -1.695803366738216e-07 7.0243984180579275" Properties=species:S:1:pos:R:3:forces:R:3 energy=-34.691917419433594 free_energy=-34.691917419433594 stress="2.4751567252678797e-05 -7.036491389555977e-09 4.495601668708105e-09 -7.036491389555977e-09 2.476707231835462e-05 8.38524094604054e-09 4.495601668708105e-09 8.38524094604054e-09 2.4788900191197172e-05" pbc="T T T"
Sb       2.02776913       1.43384920       3.51219910      -0.00000029       0.00000025       0.00000004
Sb       6.08330789       4.30154813      10.53659583       0.00000076       0.00000336      -0.00000748
Mn       0.00000008       0.00000026      -0.00000029       0.00000066      -0.00000332       0.00000671
Te       2.04101558       1.44321527       7.02439840      -0.00416011      -0.00294246       0.00000048
Te       6.07006131       4.29218088       7.02439953       0.00416082       0.00294159       0.00000304
Te       5.06279954       1.44321525       5.27977063       0.00208223      -0.00294468      -0.00360350
Te       3.04827709       4.29218113       8.76902635      -0.00207996       0.00294220       0.00360411
Te       3.04827666       4.29218114       5.27977065      -0.00208308       0.00294471      -0.00360522
Te       5.06279979       1.44321524       8.76902647       0.00207897      -0.00294158       0.00360183
