9
Lattice="5.510239776880397 -1.435875561941504e-07 3.181338454063154 1.8367464162834224 5.195103730772402 3.18133852444399 -7.734645424900678e-08 3.1506353565514044e-08 6.36267704209431" Properties=species:S:1:pos:R:3:forces:R:3 energy=-42.83957290649414 free_energy=-42.83957290649414 stress="-0.00017443612159695476 -5.262753077772686e-08 -3.951569382820708e-08 -5.262753077772686e-08 -0.0001742671156534925 4.049774737779899e-09 -3.951569382820708e-08 4.049774737779899e-09 -0.0001742763415677473" pbc="T T T"
Sb       1.83674446       1.29877801       3.18133930      -0.00002956       0.00002814       0.00000950
Sb       5.51024086       3.89632635       9.54401441       0.00002141      -0.00001660      -0.00001865
Mo       0.00000018       0.00000017       0.00000028      -0.00000066       0.00000277      -0.00000437
S        1.90872280       1.34967127       6.36267643      -0.00234331      -0.00164744      -0.00000468
S        5.43826383       3.84543137       6.36267713       0.00234586       0.00163867       0.00000585
S        4.55587893       1.34967124       4.83434199       0.00117754      -0.00165415      -0.00202277
S        2.79110811       3.84543240       7.89101287      -0.00117327       0.00165308       0.00202817
S        2.79110658       3.84543216       4.83434136      -0.00118253       0.00164457      -0.00202052
S        4.55587874       1.34967153       7.89101230       0.00118472      -0.00164907       0.00202729
