9
Lattice="4.4850650873484526 -1.079080320643722e-08 2.5894536452024486 1.4950216968625984 4.228559709666575 2.5894536257109113 2.375027710523495e-08 -7.078173693975102e-09 5.178907249268217" Properties=species:S:1:pos:R:3:forces:R:3 energy=-44.34236526489258 free_energy=-44.34236526489258 stress="-0.00029424132662825286 7.30172970975218e-08 -4.6938584574718334e-08 7.30172970975218e-08 -0.00029433739837259054 -4.475853643270966e-08 -4.6938584574718334e-08 -4.475853643270966e-08 -0.0002942197897937149" pbc="T T T"
Sb       1.49502302       1.05714028       2.58945382       0.00001587       0.00000121       0.00000277
Sb       4.48506740       3.17141917       7.76835831       0.00002985      -0.00000857      -0.00003456
Ni      -0.00000024      -0.00000012      -0.00000006      -0.00000433       0.00000137       0.00000300
O        1.46534055       1.03615304       5.17890699      -0.00472835      -0.00333272       0.00000063
O        4.51474543       3.19240706       5.17890842       0.00472416       0.00334200       0.00001476
O        3.75239385       1.03615207       3.85847645       0.00235105      -0.00334393      -0.00408748
O        2.22769201       3.19240730       6.49933821      -0.00236567       0.00333698       0.00408953
O        2.22769087       3.19240698       3.85847687      -0.00237782       0.00333495      -0.00408357
O        3.75239437       1.03615305       6.49933890       0.00235541      -0.00333115       0.00409421
