9
Lattice="5.584126801690186 -3.7539988411137895e-08 3.223997255787237 1.861375572834848 5.264765163873937 3.223997242511933 3.914413570098567e-08 1.142021525532391e-08 6.447994443774815" Properties=species:S:1:pos:R:3:forces:R:3 energy=-34.56696319580078 free_energy=-34.56696319580078 stress="-0.00023387842520605773 -2.053493730613809e-08 7.450586814172766e-09 -2.053493730613809e-08 -0.00023392726143356413 -7.290241188506741e-10 7.450586814172766e-09 -7.290241188506741e-10 -0.00023389339912682772" pbc="T T T"
Sb       1.86137603       1.31619156       3.22399736       0.00000383       0.00000099      -0.00000060
Sb       5.58412716       3.94857509       9.67199098       0.00000176       0.00000820      -0.00000114
Ni      -0.00000013      -0.00000014       0.00000005       0.00000279       0.00000247       0.00000168
Se       1.89965727       1.34326017       6.44799454       0.00713018       0.00503822       0.00000057
Se       5.54584557       3.92150474       6.44799475      -0.00713229      -0.00504395       0.00000092
Se       4.63429796       1.34325969       4.86914895      -0.00356764       0.00503847       0.00617580
Se       2.81120387       3.92150483       8.02684024       0.00356576      -0.00504233      -0.00617498
Se       2.81120397       3.92150451       4.86914861       0.00356281      -0.00504220       0.00617278
Se       4.63429792       1.34326002       8.02684026      -0.00356716       0.00504022      -0.00617526
