9
Lattice="4.636449048257521 2.035208642928038e-08 2.6768549960774823 1.545483046778313 4.371286006526211 2.6768549761513727 -1.0280115530344183e-08 -3.1673536731507474e-08 5.35371000996065" Properties=species:S:1:pos:R:3:forces:R:3 energy=-46.34550857543945 free_energy=-46.34550857543945 stress="-0.00011257458390900865 -2.0753928353656192e-08 2.7234591470914893e-08 -2.0753928353656192e-08 -0.00011254677519900724 5.991327434173854e-10 2.7234591470914893e-08 5.991327434173854e-10 -0.00011252747935941443" pbc="T T T"
Sb       1.54548267       1.09282082       2.67685508      -0.00000153      -0.00000717       0.00000263
Sb       4.63644961       3.27846554       8.03056432       0.00000739       0.00001434      -0.00000862
Ni       0.00000006       0.00000022      -0.00000029       0.00000153      -0.00000267       0.00000302
N        1.52069905       1.07529575       5.35370998       0.00501129       0.00353682      -0.00000163
N        4.66123320       3.29598987       5.35371052      -0.00501060      -0.00353810       0.00000625
N        3.87609945       1.07529596       3.99381906      -0.00250654       0.00353101       0.00434127
N        2.30583246       3.29598991       6.71360098       0.00250319      -0.00353411      -0.00434119
N        2.30583225       3.29598971       3.99381903       0.00249669      -0.00353691       0.00433999
N        3.87609964       1.07529628       6.71360103      -0.00250193       0.00353652      -0.00434235
