9
Lattice="5.333394343706582 -6.091733443339073e-08 3.0792364195481285 1.7777980843304888 5.028372052259303 3.07923637244495 -1.3613111792372299e-09 -5.865198441005014e-08 6.158472841454108" Properties=species:S:1:pos:R:3:forces:R:3 energy=-37.36233901977539 free_energy=-37.36233901977539 stress="1.1050789225919289e-06 4.875758108369155e-08 -1.628109203011263e-08 4.875758108369155e-08 9.741545454744482e-07 -2.6824688248439088e-08 -1.628109203011263e-08 -2.6824688248439088e-08 9.84865664577228e-07" pbc="T T T"
Sb       1.77779650       1.25709625       3.07923638      -0.00001584       0.00003179      -0.00000201
Sb       5.33339361       3.77127766       9.23771141      -0.00000760      -0.00001493       0.00001811
Ni       0.00000016       0.00000028      -0.00000007      -0.00000203      -0.00000892       0.00000166
S        1.79463805       1.26900111       6.15847283       0.00066924       0.00047782       0.00000186
S        5.31655479       3.75936956       6.15847157      -0.00065494      -0.00048280      -0.00000847
S        4.43607599       1.26900125       4.63343821      -0.00032669       0.00048281       0.00058061
S        2.67511673       3.75937048       7.68350757       0.00033252      -0.00048298      -0.00057596
S        2.67511784       3.75937062       4.63343753       0.00033715      -0.00048091       0.00056979
S        4.43607598       1.26900049       7.68350713      -0.00033192       0.00047831      -0.00058562
