9
Lattice="4.633065879367208 6.17069558711288e-08 2.6749019096620255 1.54435532875079 4.36809657470284 2.6749019487188836 4.76885099368888e-08 8.155556407171721e-08 5.3498037367251365" Properties=species:S:1:pos:R:3:forces:R:3 energy=-54.3195686340332 free_energy=-54.3195686340332 stress="3.707229916471988e-05 -9.509238729776825e-09 4.204479431280106e-09 -9.509238729776825e-09 3.700104934978299e-05 1.8473789609174673e-08 4.204479431280106e-09 1.8473789609174673e-08 3.698942964547314e-05" pbc="T T T"
Sb       1.54435523       1.09202231       2.67490129      -0.00000394      -0.00002036      -0.00000453
Sb       4.63306707       3.27607278       8.02470529       0.00001315       0.00000468      -0.00000825
Nb      -0.00000011      -0.00000003      -0.00000020       0.00000298       0.00000254      -0.00000105
N        1.69581937       1.19912559       5.34980435      -0.00121683      -0.00086099       0.00000586
N        4.48160116       3.16897201       5.34980465       0.00121033       0.00087154       0.00001025
N        3.78515625       1.19912537       4.14352518       0.00060967      -0.00086731      -0.00104964
N        2.39226463       3.16897198       6.55608207      -0.00061241       0.00087041       0.00104445
N        2.39226492       3.16897165       4.14352527      -0.00061384       0.00086892      -0.00104487
N        3.78515638       1.19912517       6.55608249       0.00061104      -0.00086862       0.00104743
