9
Lattice="4.4082841198099345 -9.722846188449513e-08 2.5451239689540266 1.4694279913143136 4.156169671364953 2.545123894396906 1.2934024176769881e-08 -8.216769067760604e-08 5.0902479155056595" Properties=species:S:1:pos:R:3:forces:R:3 energy=-45.189170837402344 free_energy=-45.189170837402344 stress="3.0093235636741156e-06 4.43945857853123e-08 3.839164719465771e-08 4.43945857853123e-08 3.0048211101529887e-06 4.179246815283477e-08 3.839164719465771e-08 4.179246815283477e-08 3.412791556911543e-06" pbc="T T T"
Sb       1.46942718       1.03904215       2.54512383      -0.00000950      -0.00000360      -0.00000533
Sb       4.40828415       3.11712735       7.63537125      -0.00000428       0.00000266      -0.00001224
N       -0.00000020       0.00000041       0.00000178      -0.00000045       0.00001235       0.00002621
O        1.41474820       1.00037786       5.09024801       0.00010598       0.00007510       0.00000508
O        4.46296411       3.15579164       5.09024822      -0.00010741      -0.00008208       0.00000614
O        3.70091047       1.00037688       3.77033133      -0.00004607       0.00006706       0.00008756
O        2.17680282       3.15579135       6.41016338       0.00006285      -0.00008315      -0.00010091
O        2.17680196       3.15579225       3.77033154       0.00005421      -0.00007224       0.00009209
O        3.70090988       1.00037798       6.41016385      -0.00005439       0.00008333      -0.00009829
