9
Lattice="5.80471908981168 1.7945326540578828e-07 3.351356130999009 1.934906488363468 5.472741806114096 3.351356207377723 -2.1631622985196432e-08 7.824851886852246e-08 6.702712299465137" Properties=species:S:1:pos:R:3:forces:R:3 energy=-39.598026275634766 free_energy=-39.598026275634766 stress="-0.000383103295462206 5.2281873053061645e-08 1.5255066543318208e-08 5.2281873053061645e-08 -0.0003832574002444744 5.792529478299002e-08 1.5255066543318208e-08 5.792529478299002e-08 -0.0003833569644484669" pbc="T T T"
Sb       1.93490641       1.36818551       3.35135651      -0.00000062      -0.00000227       0.00000345
Sb       5.80471942       4.10455608      10.05406669       0.00000111      -0.00000090      -0.00001976
Nb       0.00000061       0.00000021      -0.00000043      -0.00001168       0.00000248       0.00000593
Se       2.02370345       1.43097468       6.70271237      -0.00078589      -0.00055346       0.00000195
Se       5.71592137       4.04176720       6.70271301       0.00079325       0.00056320       0.00000815
Se       4.79286722       1.43097440       5.10393513       0.00039301      -0.00056122      -0.00068045
Se       2.94675821       4.04176786       8.30149034      -0.00038461       0.00055005       0.00067481
Se       2.94675755       4.04176752       5.10393438      -0.00039709       0.00054891      -0.00067309
Se       4.79286798       1.43097480       8.30149053       0.00039270      -0.00054683       0.00067888
