9
Lattice="5.552205051739396 3.5630606663174894e-08 3.2055670833171566 1.8507350911315787 5.234668974020678 3.2055670135288716 4.809216826477346e-08 -5.146653452708411e-08 6.411134083336247" Properties=species:S:1:pos:R:3:forces:R:3 energy=-43.41509246826172 free_energy=-43.41509246826172 stress="-9.418834088137373e-05 5.2818705853496795e-08 3.077879284774099e-08 5.2818705853496795e-08 -9.424760355614126e-05 4.6898563255126646e-08 3.077879284774099e-08 4.6898563255126646e-08 -9.416274406248704e-05" pbc="T T T"
Sb       1.85073433       1.30866925       3.20557083      -0.00001382       0.00002234       0.00004303
Sb       5.55220558       3.92599908       9.61669990       0.00000690      -0.00002642      -0.00001070
Nb      -0.00000004       0.00000014      -0.00000015       0.00000005      -0.00000364       0.00000001
S        1.94257576       1.37361000       6.41113316      -0.00040822      -0.00027122      -0.00001625
S        5.46036433       3.86105919       6.41113493       0.00040783       0.00027521       0.00000670
S        4.58091628       1.37360926       4.88788685       0.00019591      -0.00027798      -0.00035434
S        2.82202361       3.86106079       7.93438021      -0.00019620       0.00028461       0.00034394
S        2.82202263       3.86105875       4.88788684      -0.00020882       0.00026740      -0.00035531
S        4.58091830       1.37360937       7.93438010       0.00021647      -0.00027040       0.00034292
