9
Lattice="6.058647439688803 -1.12694685347082e-08 3.4979618294465684 2.0195490964904446 5.712147910638422 3.4979618977716096 -6.98673459214195e-08 3.42771202591566e-08 6.995923779906934" Properties=species:S:1:pos:R:3:forces:R:3 energy=-31.4762020111084 free_energy=-31.4762020111084 stress="0.0001324645709246397 -2.04454622121375e-08 -1.6440925287852792e-09 -2.04454622121375e-08 0.0001324569311691448 9.708597814572784e-11 -1.6440925287852792e-09 9.708597814572784e-11 0.0001324773475062102" pbc="T T T"
Sb       2.01954828       1.42803776       3.49796142      -0.00000339       0.00000222      -0.00000152
Sb       6.05864764       4.28410921      10.49388505       0.00000078      -0.00000783      -0.00000311
Ni       0.00000007      -0.00000019       0.00000042       0.00000020       0.00000258      -0.00000617
Te       2.05645917       1.45413761       6.99592379       0.00655241       0.00463689       0.00000050
Te       6.02173695       4.25801074       6.99592390      -0.00655492      -0.00463691       0.00000097
Te       5.03041813       1.45413724       5.27890841      -0.00327510       0.00463670       0.00567590
Te       3.04777911       4.25801056       8.71293931       0.00327601      -0.00463341      -0.00567258
Te       3.04777865       4.25801116       5.27890851       0.00327723      -0.00463552       0.00567871
Te       5.03041784       1.45413766       8.71293924      -0.00327314       0.00463527      -0.00567272
