9
Lattice="4.681568825310326 1.7922878345949613e-09 2.7029050343813217 1.5605229416459576 4.413825277992918 2.7029050375231036 1.04511804863582e-07 7.774893642680494e-08 5.4058098877428415" Properties=species:S:1:pos:R:3:forces:R:3 energy=-57.09285354614258 free_energy=-57.09285354614258 stress="0.0001274092064704746 4.4175934021950525e-08 1.2410818150954128e-08 4.4175934021950525e-08 0.00012745053390972316 -2.8860208445280477e-08 1.2410818150954128e-08 -2.8860208445280477e-08 0.00012770408648066223" pbc="T T T"
Sb       1.56052415       1.10345515       2.70290493       0.00001274      -0.00001866      -0.00000206
Sb       4.68156531       3.31036853       8.10871514      -0.00005944      -0.00001166       0.00000463
Nb      -0.00000031      -0.00000027       0.00000013       0.00000427       0.00000436      -0.00000127
O        1.60726171       1.13650492       5.40581006      -0.00186038      -0.00132829      -0.00000020
O        4.63483033       3.27732058       5.40580950       0.00185728       0.00132698      -0.00000361
O        3.87793786       1.13650580       4.09483341       0.00092930      -0.00130975      -0.00162709
O        2.36415515       3.27732006       6.71678684      -0.00090849       0.00132263       0.00162548
O        2.36415512       3.27732075       4.09483355      -0.00090736       0.00132412      -0.00161964
O        3.87793824       1.13650588       6.71678660       0.00093114      -0.00130963       0.00162327
