9
Lattice="4.595720971276759 4.5081698904234254e-10 2.6533407947825216 1.5319070062171611 4.332887173181553 2.653340768166898 2.762575388255454e-08 -1.306299795761914e-08 5.306681541715829" Properties=species:S:1:pos:R:3:forces:R:3 energy=-54.81790542602539 free_energy=-54.81790542602539 stress="-0.00020345022494439036 -1.4424814764879557e-07 3.030125128589134e-08 -1.4424814764879557e-07 -0.00020365339878480881 -3.024882389013328e-08 3.030125128589134e-08 -3.024882389013328e-08 -0.00020364150987006724" pbc="T T T"
Sb       1.53190637       1.08322428       2.65334094      -0.00000984       0.00003073       0.00000442
Sb       4.59571960       3.24966591       7.96001871      -0.00001395       0.00000676      -0.00004527
Os       0.00000029       0.00000022       0.00000030      -0.00000759      -0.00000852      -0.00001949
N        1.58398449       1.12004571       5.30668135       0.00667953       0.00471878      -0.00000753
N        4.54364403       3.21284044       5.30668363      -0.00665879      -0.00472426       0.00002700
N        3.80372847       1.12004528       4.02511228      -0.00334179       0.00470972       0.00578749
N        2.32390070       3.21283985       6.58825264       0.00334519      -0.00472128      -0.00575256
N        2.32389858       3.21283980       4.02511131       0.00332516      -0.00473416       0.00577343
N        3.80372965       1.12004732       6.58825126      -0.00331753       0.00472140      -0.00576639
