9
Lattice="5.424043143069782 -4.302736766017521e-08 3.1315728124972906 1.8080143382832723 5.113837114638434 3.1315728162616847 -1.0143944947567472e-07 -6.711807623927269e-08 6.263145800692846" Properties=species:S:1:pos:R:3:forces:R:3 energy=-35.89570999145508 free_energy=-35.89570999145508 stress="3.472854950814508e-05 -3.3073987992793263e-08 3.994166419829526e-08 -3.3073987992793263e-08 3.473904507700354e-05 2.7470486330116728e-08 3.994166419829526e-08 2.7470486330116728e-08 3.4705826692515984e-05" pbc="T T T"
Sb       1.80801189       1.27845766       3.13157174      -0.00002781      -0.00001757      -0.00001140
Sb       5.42404419       3.83537969       9.39471667       0.00001506       0.00002114      -0.00002283
Pd      -0.00000010      -0.00000023      -0.00000012      -0.00000013       0.00000335       0.00000375
S        1.91727572       1.35571801       6.26314653      -0.00088352      -0.00063008       0.00000530
S        5.31478228       3.75811858       6.26314681       0.00088358       0.00062516       0.00001194
S        4.46540580       1.35571770       4.79198350       0.00045055      -0.00063735      -0.00075591
S        2.76665205       3.75811907       7.73430878      -0.00043899       0.00063092       0.00076026
S        2.76665174       3.75811936       4.79198308      -0.00044674       0.00063372      -0.00075442
S        4.46540603       1.35571822       7.73430875       0.00044811      -0.00062901       0.00076330
