9
Lattice="4.512529901851151 1.9306288276697066e-07 2.6053103519829874 1.504176755026903 4.254454328681846 2.6053104575426596 6.705526909188723e-08 1.7669891091809343e-07 5.210620587822847" Properties=species:S:1:pos:R:3:forces:R:3 energy=-53.81399154663086 free_energy=-53.81399154663086 stress="-0.00027323022368364036 -7.732748485977936e-08 -5.231293731533526e-10 -7.732748485977936e-08 -0.00027323668473400176 -3.403486914521636e-08 -5.231293731533526e-10 -3.403486914521636e-08 -0.00027346942806616426" pbc="T T T"
Sb       1.50417689       1.06361353       2.60531074       0.00000240      -0.00000055       0.00000214
Sb       4.51252977       3.19084151       7.81593080      -0.00000104       0.00000226      -0.00000042
P        0.00000002       0.00000030      -0.00000014       0.00000241      -0.00000289       0.00000338
O        1.39575272       0.98694627       5.21062055       0.00739419       0.00522649      -0.00000020
O        4.62095403       3.26750848       5.21062086      -0.00739992      -0.00522840       0.00000138
O        3.81465369       0.98694635       3.81406714      -0.00369722       0.00522768       0.00640833
O        2.20205304       3.26750824       6.60717447       0.00370014      -0.00522983      -0.00641143
O        2.20205289       3.26750796       3.81406721       0.00369650      -0.00522459       0.00640821
O        3.81465391       0.98694618       6.60717410      -0.00369757       0.00522995      -0.00641084
