9
Lattice="5.720662510088713 -1.6550936538267977e-08 3.3028260248479633 1.9068874570312924 5.39349228925224 3.3028260780691068 -1.7458836279540965e-08 5.28370739636713e-08 6.605652079935475" Properties=species:S:1:pos:R:3:forces:R:3 energy=-33.400909423828125 free_energy=-33.400909423828125 stress="1.3008767382416409e-05 8.418854058334091e-09 -2.315760472271222e-09 8.418854058334091e-09 1.3065019629721064e-05 2.4376177520935016e-08 -2.315760472271222e-09 2.4376177520935016e-08 1.3034590665483847e-05" pbc="T T T"
Sb       1.90688742       1.34837113       3.30282566      -0.00000108      -0.00001799      -0.00000482
Sb       5.72066256       4.04512022       9.90847644       0.00000210       0.00001196      -0.00001351
Pd       0.00000004       0.00000007       0.00000030      -0.00000056      -0.00000119      -0.00000210
Se       2.01628002       1.42572465       6.60565239       0.00076091       0.00053164       0.00000250
Se       5.61126976       3.96776764       6.60565259      -0.00076051      -0.00053166       0.00000459
Se       4.71252238       1.42572453       5.04897615      -0.00037982       0.00053173       0.00066191
Se       2.91502793       3.96776769       8.16232820       0.00038082      -0.00052863      -0.00065710
Se       2.91502702       3.96776793       5.04897626       0.00037898      -0.00053217       0.00066349
Se       4.71252264       1.42572540       8.16232873      -0.00038068       0.00053617      -0.00065467
