9
Lattice="4.552023577805896 -2.198751740949983e-07 2.628111893492764 1.5173410430315655 4.291688793531327 2.6281117935016662 -1.3308524241648897e-07 -2.165690731317265e-07 5.256224017495932" Properties=species:S:1:pos:R:3:forces:R:3 energy=-52.15894317626953 free_energy=-52.15894317626953 stress="-7.501140498789027e-05 -1.8753925701275875e-07 -8.182426824987488e-08 -1.8753925701275875e-07 -7.501579966628924e-05 -2.5965862349153213e-08 -8.182426824987488e-08 -2.5965862349153213e-08 -7.475288293790072e-05" pbc="T T T"
Sb       1.51734121       1.07292264       2.62811191      -0.00000248       0.00000169       0.00000039
Sb       4.55202265       3.21876593       7.88433576       0.00000022      -0.00000183      -0.00000044
P       -0.00000003       0.00000046       0.00000003       0.00000359      -0.00000659      -0.00000046
N        1.46528407       1.03611195       5.25622379      -0.00629711      -0.00445604      -0.00000017
N        4.60408054       3.25557619       5.25622364       0.00629783       0.00445378      -0.00000024
N        3.81938154       1.03611241       3.89708538       0.00315368      -0.00445807      -0.00546348
N        2.24998312       3.25557561       6.61536232      -0.00315547       0.00446177       0.00546694
N        2.24998323       3.25557593       3.89708514      -0.00315118       0.00445926      -0.00546205
N        3.81938140       1.03611235       6.61536246       0.00315011      -0.00445437       0.00545883
