9
Lattice="5.471359886025215 -1.035142003056859e-07 3.1588909650168526 1.823786528169842 5.1584473023059445 3.1588909700590326 1.0030646722200106e-07 7.71027695061046e-08 6.317781756297824" Properties=species:S:1:pos:R:3:forces:R:3 energy=-37.884910583496094 free_energy=-37.884910583496094 stress="-3.800248305196874e-05 -6.640725302986539e-08 -2.996993231363376e-08 -6.640725302986539e-08 -3.790840492001735e-05 3.0914449666852306e-08 -2.996993231363376e-08 3.0914449666852306e-08 -3.809050394920632e-05" pbc="T T T"
Sb       1.82378369       1.28960810       3.15888830      -0.00003039      -0.00003493      -0.00002180
Sb       5.47136156       3.86883796       9.47667158       0.00002157       0.00002732      -0.00001409
Pt       0.00000001       0.00000025       0.00000003       0.00000497      -0.00000204       0.00000062
S        1.89189632       1.33777218       6.31778341       0.00065207       0.00045285       0.00001487
S        5.40325034       3.82067575       6.31778242      -0.00065637      -0.00045326       0.00000606
S        4.52541311       1.33777147       4.79732205      -0.00031355       0.00044668       0.00057825
S        2.76973453       3.82067613       7.83824258       0.00032467      -0.00044930      -0.00056908
S        2.76973370       3.82067607       4.79732180       0.00031883      -0.00044188       0.00057951
S        4.52541280       1.33777121       7.83824261      -0.00032200       0.00045457      -0.00057408
