9
Lattice="4.579612695565302 2.4225902846612045e-08 2.6440407354265854 1.5265375744800855 4.317700287427323 2.6440407588936954 -4.084586878845679e-09 2.585299248053762e-08 5.288081477927918" Properties=species:S:1:pos:R:3:forces:R:3 energy=-46.96678924560547 free_energy=-46.96678924560547 stress="4.92642393510323e-05 -1.3430616263576667e-07 1.1996188220564363e-07 -1.3430616263576667e-07 4.9147252866532654e-05 1.7889556502836967e-08 1.1996188220564363e-07 1.7889556502836967e-08 4.910510324407369e-05" pbc="T T T"
Sb       1.52653645       1.07942479       2.64404130      -0.00001492      -0.00000585       0.00000705
Sb       4.57961507       3.23827671       7.93211923       0.00002926       0.00001807      -0.00003628
Pt      -0.00000006      -0.00000018      -0.00000012       0.00000082       0.00000967       0.00000232
N        1.63219767       1.15413781       5.28808097       0.00075465       0.00053433      -0.00000999
N        4.47395282       3.16356230       5.28808332      -0.00075674      -0.00053930       0.00002533
N        3.76351379       1.15413663       4.05756676      -0.00037819       0.00051078       0.00066769
N        2.34263618       3.16356275       6.51859691       0.00037611      -0.00052539      -0.00066507
N        2.34263482       3.16356258       4.05756663       0.00035435      -0.00053099       0.00066960
N        3.76351430       1.15413793       6.51859706      -0.00036535       0.00052828      -0.00066072
