9
Lattice="4.608925894931716 -1.90926673416266e-08 2.6609645996223734 1.5363086014309775 4.345336917122997 2.6609646207744784 -2.8266793215543804e-08 5.918330894747258e-09 5.3219292482042535" Properties=species:S:1:pos:R:3:forces:R:3 energy=-45.550209045410156 free_energy=-45.550209045410156 stress="-9.940304153133184e-05 -9.950175439144004e-08 -1.913366354244772e-08 -9.950175439144004e-08 -9.943448094418272e-05 1.2188816356228926e-07 -1.913366354244772e-08 1.2188816356228926e-07 -9.926625352818519e-05" pbc="T T T"
Sb       1.53630760       1.08633278       2.66096467      -0.00001577      -0.00002487       0.00000152
Sb       4.60892578       3.25900082       7.98289168      -0.00000382      -0.00002898      -0.00003725
Pd      -0.00000022      -0.00000017       0.00000061       0.00000417       0.00000589      -0.00002435
O        1.59466155       1.12759607       5.32192922      -0.00271997      -0.00191522      -0.00000179
O        4.55057278       3.21774128       5.32193014       0.00271291       0.00192377       0.00001799
O        3.81159531       1.12759650       4.04198240       0.00136240      -0.00191739      -0.00234953
O        2.33364018       3.21774132       6.60187582      -0.00135633       0.00194290       0.00236309
O        2.33363929       3.21774137       4.04198267      -0.00136155       0.00192311      -0.00233930
O        3.81159557       1.12759759       6.60187661       0.00137810      -0.00190911       0.00236923
