9
Lattice="5.440069170335891 5.160314013643065e-08 3.140825518514812 1.8133564076123307 5.128946581337265 3.1408255724709027 1.4720517840734827e-07 1.701721741461648e-07 6.281650782062794" Properties=species:S:1:pos:R:3:forces:R:3 energy=-36.57858657836914 free_energy=-36.57858657836914 stress="-5.9685040469048545e-05 -6.953250419883261e-08 -1.0778728665172821e-07 -6.953250419883261e-08 -5.958391193416901e-05 -1.0166331776417792e-07 -1.0778728665172821e-07 -1.0166331776417792e-07 -5.943501309957355e-05" pbc="T T T"
Sb       1.81335534       1.28223480       3.14082665      -0.00001158      -0.00002061       0.00002145
Sb       5.44007266       3.84671101       9.42246778       0.00003396       0.00001085      -0.00009655
P       -0.00000016      -0.00000023      -0.00000000      -0.00000114       0.00000399       0.00000578
S        1.78160555       1.25978567       6.28165056      -0.00049347      -0.00034261      -0.00000729
S        5.47181981       3.86916175       6.28165497       0.00048548       0.00034896       0.00004326
S        4.54926550       1.25978348       4.68374288       0.00023898      -0.00037208      -0.00041312
S        2.70415998       3.86916206       7.87956048      -0.00023529       0.00035587       0.00041988
S        2.70415680       3.86916146       4.68374331      -0.00027591       0.00035292      -0.00040749
S        4.54926746       1.25978726       7.87956093       0.00025934      -0.00033814       0.00043371
