9
Lattice="4.553067511887885 5.554512551528995e-08 2.6287148691684457 1.5176891748069337 4.2926734405028455 2.6287149526373903 -3.275429270778687e-08 7.906737720587692e-08 5.257429795069007" Properties=species:S:1:pos:R:3:forces:R:3 energy=-45.637733459472656 free_energy=-45.637733459472656 stress="-5.202923603064846e-06 2.0064911510075945e-08 1.086480025946912e-07 2.0064911510075945e-08 -5.233136562310392e-06 2.1664801508336495e-08 1.086480025946912e-07 2.1664801508336495e-08 -5.242216047918191e-06" pbc="T T T"
Sb       1.51769145       1.07316849       2.62871446       0.00002407      -0.00000038      -0.00000624
Sb       4.55306737       3.21950469       7.88614983      -0.00000444      -0.00000615       0.00005667
Pd      -0.00000008       0.00000003       0.00000030      -0.00000631       0.00000055      -0.00001504
N        1.62959560       1.15229825       5.25743031       0.00094259       0.00066426       0.00001070
N        4.44116072       3.14037570       5.25742614      -0.00094217      -0.00065583      -0.00004243
N        3.73826948       1.15229962       4.03998506      -0.00047016       0.00068551       0.00080091
N        2.33248601       3.14037457       6.47487288       0.00045422      -0.00067198      -0.00081062
N        2.33248828       3.14037527       4.03998589       0.00049353      -0.00066721       0.00080919
N        3.73826772       1.15229767       6.47487359      -0.00049099       0.00065103      -0.00080293
