9
Lattice="4.654508105902713 -1.2635484524256485e-08 2.6872814753223726 1.551502700467808 4.388312253733066 2.687281457286386 3.986484387765697e-08 6.099219674893143e-09 5.374562881596811" Properties=species:S:1:pos:R:3:forces:R:3 energy=-47.04501724243164 free_energy=-47.04501724243164 stress="-6.588837277377024e-05 -5.283685311496811e-08 -2.9587261529684383e-09 -5.283685311496811e-08 -6.58582357573323e-05 -2.2334653237976454e-07 -2.9587261529684383e-09 -2.2334653237976454e-07 -6.590773409698159e-05" pbc="T T T"
Sb       1.55150121       1.09707624       2.68728142      -0.00002596      -0.00002763      -0.00000532
Sb       4.65450694       3.29123175       8.06185124      -0.00001783      -0.00003855       0.00011520
Pt      -0.00000009       0.00000002       0.00000019       0.00000899       0.00000406       0.00000832
O        1.60015296       1.13147939       5.37456320      -0.00176880      -0.00123821       0.00000619
O        4.60585762       3.25683357       5.37455934       0.00175822       0.00124659      -0.00005760
O        3.85443275       1.13148128       4.07305344       0.00090457      -0.00120886      -0.00154266
O        2.35157875       3.25683396       6.67607002      -0.00089331       0.00125054       0.00150391
O        2.35158126       3.25683384       4.07305411      -0.00085303       0.00126646      -0.00154349
O        3.85443202       1.13147896       6.67607027       0.00088696      -0.00125425       0.00151551
