9
Lattice="5.424074451555046 -5.749946946483453e-08 3.13159068121289 1.8080247552193967 5.11386609181498 3.131590694644229 -6.927916561136842e-08 -3.2537792412679034e-08 6.263181482420847" Properties=species:S:1:pos:R:3:forces:R:3 energy=-39.47197723388672 free_energy=-39.47197723388672 stress="-4.487773185246624e-05 1.1186181758660041e-08 -3.2873078481543416e-08 1.1186181758660041e-08 -4.4841024646302685e-05 -7.580545968721708e-09 -3.2873078481543416e-08 -7.580545968721708e-09 -4.47327402071096e-05" pbc="T T T"
Sb       1.80802570       1.27846772       3.13159044       0.00001005       0.00001084      -0.00000097
Sb       5.42407399       3.83539735       9.39477251      -0.00000319      -0.00002179       0.00000352
Rh       0.00000017       0.00000001      -0.00000022      -0.00000145      -0.00000082      -0.00000123
S        1.89068674       1.33691847       6.26318194       0.00063634       0.00046110       0.00000333
S        5.34141211       3.77694813       6.26318164      -0.00063932      -0.00045389       0.00000083
S        4.47873018       1.33691850       4.76897323      -0.00032151       0.00045812       0.00054765
S        2.75336816       3.77694791       7.75738914       0.00031859      -0.00045571      -0.00055367
S        2.75336883       3.77694779       4.76897355       0.00032163      -0.00045556       0.00054938
S        4.47873071       1.33691813       7.75738917      -0.00032082       0.00045773      -0.00054878
