9
Lattice="5.693587367252954 -1.5206731252542468e-07 3.287194080897565 1.897862296191805 5.367965398660748 3.287194108937247 -8.304930669779842e-08 -2.4383257521331e-08 6.5743883056407" Properties=species:S:1:pos:R:3:forces:R:3 energy=-38.29375457763672 free_energy=-38.29375457763672 stress="-5.968312325421721e-05 2.0189450111729457e-08 2.549075972524406e-08 2.0189450111729457e-08 -5.9635731304297224e-05 -7.442373384236589e-09 2.549075972524406e-08 -7.442373384236589e-09 -5.96520330873318e-05" pbc="T T T"
Sb       1.89786187       1.34199133       3.28719387      -0.00000482       0.00000042      -0.00000125
Sb       5.69358660       4.02597275       9.86157968      -0.00000377      -0.00000840      -0.00002024
Ru      -0.00000012      -0.00000015       0.00000010       0.00000025       0.00000162      -0.00000244
Se       1.97650580       1.39760078       6.57438807       0.00143681       0.00101592       0.00000131
Se       5.61494418       3.97036464       6.57438924      -0.00143832      -0.00101766       0.00000852
Se       4.70533469       1.39760056       4.99889873      -0.00071573       0.00101635       0.00124638
Se       2.88611559       3.97036439       8.14987866       0.00072207      -0.00101747      -0.00124097
Se       2.88611480       3.97036476       4.99889895       0.00071763      -0.00101332       0.00124815
Se       4.70533491       1.39760186       8.14987864      -0.00071405       0.00102225      -0.00123921
