9
Lattice="4.5710954173586025 -1.4545437216299848e-08 2.6391230030277453 1.5236984780412675 4.309669954081175 2.6391229695957725 -9.967803728629972e-09 -4.7993948163962056e-08 5.278246023320243" Properties=species:S:1:pos:R:3:forces:R:3 energy=-51.29365539550781 free_energy=-51.29365539550781 stress="0.0003725663118530065 -9.993107674688417e-09 -2.1016932638673325e-09 -9.993107674688417e-09 0.00037245737621560693 -4.008770204677603e-08 -2.1016932638673325e-09 -4.008770204677603e-08 0.0003724910784512758" pbc="T T T"
Sb       1.52369820       1.07741825       2.63912406      -0.00000374       0.00000893       0.00000947
Sb       4.57109637       3.23225002       7.91737369       0.00001206      -0.00002976       0.00005545
Ru       0.00000005       0.00000002      -0.00000020       0.00000053      -0.00000113       0.00000143
N        1.59096870       1.12498722       5.27824624       0.00126195       0.00092536       0.00000648
N        4.50382462       3.18468378       5.27824379      -0.00127161      -0.00091296      -0.00002720
N        3.77561098       1.12498742       4.01694212      -0.00062883       0.00092757       0.00109160
N        2.31918169       3.18468442       6.53954774       0.00061834      -0.00090945      -0.00111759
N        2.31918448       3.18468367       4.01694241       0.00064760      -0.00090599       0.00109351
N        3.77561061       1.12498474       6.53954806      -0.00063670       0.00089711      -0.00111419
