9
Lattice="4.547722492686625 -6.213257798128483e-08 2.6256287999962202 1.5159074763419738 4.287633842501987 2.625628735288651 -3.0364339359418153e-09 -8.13973450067328e-08 5.251257605251688" Properties=species:S:1:pos:R:3:forces:R:3 energy=-49.525691986083984 free_energy=-49.525691986083984 stress="0.00043382321018725634 5.8712423367524025e-08 4.115238816382316e-09 5.8712423367524025e-08 0.00043375935638323426 7.76648434452909e-08 4.115238816382316e-09 7.76648434452909e-08 0.0004337868303991854" pbc="T T T"
Sb       1.51590748       1.07190805       2.62562830      -0.00000116      -0.00000385      -0.00000525
Sb       4.54772333       3.21572511       7.87688758       0.00000826      -0.00000156       0.00001231
Rh       0.00000025       0.00000029       0.00000033      -0.00000798      -0.00001270      -0.00001485
N        1.62418122       1.14847004       5.25125765       0.00719899       0.00509509       0.00000341
N        4.43944799       3.13916384       5.25125693      -0.00719011      -0.00508407      -0.00000863
N        3.73563210       1.14847006       4.03221121      -0.00359300       0.00509548       0.00623691
N        2.32799760       3.13916351       6.47030329       0.00358453      -0.00508717      -0.00623125
N        2.32799869       3.13916459       4.03221164       0.00360259      -0.00508291       0.00623977
N        3.73563117       1.14846920       6.47030355      -0.00360203       0.00508174      -0.00623298
