9
Lattice="4.637859063864961 -2.4364452411042138e-08 2.6776691501807908 1.5459530215486263 4.3726153394657405 2.677669109942936 -1.911910819220165e-08 -6.2800366498843e-08 5.355338333476845" Properties=species:S:1:pos:R:3:forces:R:3 energy=-48.467830657958984 free_energy=-48.467830657958984 stress="0.00028950092382729053 2.510676289091407e-08 -2.211279337416272e-08 2.510676289091407e-08 0.00028947804821655154 -5.888069409820673e-08 -2.211279337416272e-08 -5.888069409820673e-08 0.000289371790131554" pbc="T T T"
Sb       1.54595246       1.09315614       2.67766892      -0.00000827       0.00003583      -0.00000691
Sb       4.63786095       3.27946163       8.03300541       0.00002543       0.00000115      -0.00003011
Rh       0.00000003      -0.00000020      -0.00000004      -0.00000239       0.00000222       0.00001076
O        1.58045411       1.11755038       5.35533837      -0.00292039      -0.00205743       0.00000383
O        4.60335794       3.25506438       5.35533930       0.00292498       0.00204918       0.00001253
O        3.84763183       1.11754908       4.04638346       0.00145902      -0.00206816      -0.00251389
O        2.33617980       3.25506480       6.66429409      -0.00146309       0.00204542       0.00252184
O        2.33617909       3.25506442       4.04638307      -0.00147454       0.00205004      -0.00252116
O        3.84763208       1.11755036       6.66429371       0.00145915      -0.00205845       0.00252345
