9
Lattice="5.407255252162027 5.946636727702645e-08 3.1218802312705614 1.8024184877777691 5.0980090442046295 3.12188020645895 2.9487830970642194e-08 -9.536863671820273e-09 6.2437604114666945" Properties=species:S:1:pos:R:3:forces:R:3 energy=-41.1726188659668 free_energy=-41.1726188659668 stress="-0.0003051659732591361 3.28800524584949e-08 -1.1957490109182345e-08 3.28800524584949e-08 -0.00030524536850862205 -7.0760202142139406e-09 -1.1957490109182345e-08 -7.0760202142139406e-09 -0.0003051943494938314" pbc="T T T"
Sb       1.80242004       1.27450424       3.12187963       0.00001418       0.00001751      -0.00000927
Sb       5.40725482       3.82350734       9.36563940      -0.00000470       0.00000553      -0.00001212
Ru      -0.00000002       0.00000011      -0.00000023       0.00000165       0.00000138      -0.00000200
S        1.89968776       1.34328160       6.24376036       0.00003463       0.00001907       0.00000260
S        5.30998639       3.75472700       6.24376078      -0.00003254      -0.00002742       0.00000440
S        4.45741112       1.34328127       4.76705829      -0.00002161       0.00002033       0.00003004
S        2.75226250       3.75472601       7.72046396       0.00001705      -0.00003067      -0.00001830
S        2.75226170       3.75472682       4.76705771       0.00001448      -0.00003111       0.00002712
S        4.45741076       1.34328196       7.72046354      -0.00002316       0.00002503      -0.00002205
