9
Lattice="4.677808391604927 3.2239252128510663e-08 2.700733871553256 1.5592694788940629 4.410280010441543 2.700733898174367 -6.535298585527629e-08 -1.360747183630782e-08 5.401467856301185" Properties=species:S:1:pos:R:3:forces:R:3 energy=-51.8565788269043 free_energy=-51.8565788269043 stress="9.886976476991549e-05 9.224677910424361e-09 -3.861614317202111e-08 9.224677910424361e-09 9.888768545351923e-05 -1.7673794872052895e-08 -3.861614317202111e-08 -1.7673794872052895e-08 9.887552732834592e-05" pbc="T T T"
Sb       1.55926920       1.10257193       2.70073338      -0.00000494       0.00002945      -0.00000919
Sb       4.67780812       3.30770804       8.10219912       0.00000023      -0.00002950      -0.00003558
Ru       0.00000002       0.00000006       0.00000005      -0.00000077      -0.00000206      -0.00000482
O        1.54280012       1.09092486       5.40146804       0.00036749       0.00027499       0.00000555
O        4.69427788       3.31935501       5.40146898      -0.00036627      -0.00027123       0.00001384
O        3.90640866       1.09092467       4.03683834      -0.00018279       0.00026742       0.00032574
O        2.33066979       3.31935466       6.76609806       0.00018884      -0.00027373      -0.00031033
O        2.33066872       3.31935490       4.03683818       0.00017795      -0.00027639       0.00032729
O        3.90640875       1.09092602       6.76609825      -0.00017977       0.00028124      -0.00031251
