9
Lattice="4.564135109387321 -2.9920771537977014e-09 2.6351045778851514 1.5213783327501806 4.303108165972435 2.6351046371639533 -4.573467466639677e-08 4.026210346928747e-08 5.270209234985075" Properties=species:S:1:pos:R:3:forces:R:3 energy=-46.476654052734375 free_energy=-46.476654052734375 stress="-6.097345249145292e-06 -2.5294845329426607e-08 4.6949302223708855e-09 -2.5294845329426607e-08 -6.244196811167058e-06 1.6764747812203495e-08 4.6949302223708855e-09 1.6764747812203495e-08 -5.983326445857529e-06" pbc="T T T"
Sb       1.52137752       1.07577548       2.63510470      -0.00001052      -0.00002178       0.00000461
Sb       4.56413497       3.22733214       7.90531572      -0.00000047       0.00000826       0.00002059
Se       0.00000014       0.00000018      -0.00000053       0.00000125      -0.00000213       0.00000577
O        1.47981910       1.04638976       5.27020918      -0.00220579      -0.00156575      -0.00000086
O        4.60569425       3.25671839       5.27020864       0.00220543       0.00156844      -0.00001182
O        3.82422587       1.04639005       3.91666534       0.00110793      -0.00156027      -0.00191301
O        2.26128764       3.25671882       6.62375257      -0.00110546       0.00157076       0.00190502
O        2.26128820       3.25671867       3.91666546      -0.00109822       0.00157207      -0.00191468
O        3.82422590       1.04638942       6.62375264       0.00110573      -0.00156975       0.00190496
