9
Lattice="4.672429882385462 -8.051120335138789e-08 2.697628788694337 1.5574766082515488 4.405208985394126 2.6976286904933056 1.1912045643609852e-07 -3.6040377025840965e-08 5.395257371066" Properties=species:S:1:pos:R:3:forces:R:3 energy=-50.73908996582031 free_energy=-50.73908996582031 stress="0.00030866728047840297 3.074092447263865e-08 -7.022906345355295e-08 3.074092447263865e-08 0.0003085123607888818 8.691097264090786e-08 -7.022906345355295e-08 8.691097264090786e-08 0.00030849763425067067" pbc="T T T"
Sb       1.55747457       1.10130346       2.69762784      -0.00002788       0.00001659      -0.00001527
Sb       4.67242974       3.30390589       8.09288500      -0.00000659      -0.00000789      -0.00001696
Sc      -0.00000016       0.00000017      -0.00000059      -0.00000627      -0.00000815       0.00001499
O        1.62049183       1.14586091       5.39525801      -0.00610106      -0.00430955       0.00000721
O        4.60941489       3.25934704       5.39525782       0.00611790       0.00430474       0.00000748
O        3.86218506       1.14586067       4.10101697       0.00306722      -0.00431773      -0.00527865
O        2.36772307       3.25934775       6.68949918      -0.00304616       0.00430835       0.00528853
O        2.36772266       3.25934823       4.10101610      -0.00305302       0.00431537      -0.00528581
O        3.86218480       1.14586131       6.68949923       0.00305645      -0.00430144       0.00527814
