9
Lattice="4.18297449504107 1.1811232495926756e-07 2.4150417091327165 1.3943249273216758 3.943746655671923 2.4150417363537255 9.821885677978997e-08 1.027899563496185e-07 4.830083248145376" Properties=species:S:1:pos:R:3:forces:R:3 energy=-51.684165954589844 free_energy=-51.684165954589844 stress="0.0008925973088480532 -7.071668761682304e-08 3.9286245367975425e-08 -7.071668761682304e-08 0.00089272327022627 -7.641631327715004e-08 3.9286245367975425e-08 -7.641631327715004e-08 0.0008930058684200048" pbc="T T T"
Sb       1.39432492       0.98593685       2.41504171       0.00000120       0.00000042      -0.00000113
Sb       4.18297484       2.95781019       7.24512497      -0.00000005      -0.00000073       0.00000062
S        0.00000003      -0.00000011       0.00000005      -0.00000533       0.00001618       0.00001813
N        1.33777356       0.94594878       4.83008332       0.00346205       0.00245351       0.00000064
N        4.23952582       2.99779792       4.83008344      -0.00346681      -0.00245222      -0.00000051
N        3.51408778       0.94594900       3.57358757      -0.00172721       0.00244206       0.00298789
N        2.06321188       2.99779786       6.08657914       0.00173448      -0.00245872      -0.00301069
N        2.06321164       2.99779795       3.57358769       0.00172992      -0.00244713       0.00299901
N        3.51408778       0.94594897       6.08657901      -0.00172861       0.00244734      -0.00299403
