9
Lattice="5.57605891061164 1.590382158741824e-07 3.21933924763159 1.858686393101638 5.2571586583463 3.2193393522097913 1.8590232145815135e-08 1.4122686219826982e-07 6.438678463063922" Properties=species:S:1:pos:R:3:forces:R:3 energy=-33.68583679199219 free_energy=-33.68583679199219 stress="-0.000384242128347978 5.8199287167326474e-08 -1.1737093075225857e-08 5.8199287167326474e-08 -0.0003841377911157906 -7.1272204138495e-08 -1.1737093075225857e-08 -7.1272204138495e-08 -0.0003842031874228269" pbc="T T T"
Sb       1.85868940       1.31429172       3.21933957       0.00004172       0.00002504       0.00000601
Sb       5.57605787       3.94287206       9.65802172      -0.00001021       0.00003018       0.00005507
Sn       0.00000005      -0.00000027       0.00000020       0.00000286      -0.00000127       0.00000094
S        1.99006818       1.40719001       6.43867781      -0.00336240      -0.00239485      -0.00000431
S        5.44467719       3.84996817       6.43867725       0.00336419       0.00237963      -0.00002339
S        4.58102349       1.40719073       4.94278825       0.00166708      -0.00237782      -0.00292717
S        2.85371996       3.84996695       7.93456844      -0.00169417       0.00236650       0.00292122
S        2.85372154       3.84996721       4.94278756      -0.00167002       0.00237094      -0.00293596
S        4.58102358       1.40718933       7.93456749       0.00166076      -0.00239851       0.00290731
