9
Lattice="5.709079754294892 -3.7149607139743915e-08 3.296138622689195 1.9030266136686567 5.382571869388734 3.2961385119614905 6.500059465642883e-08 -8.965083115402177e-08 6.592277132794071" Properties=species:S:1:pos:R:3:forces:R:3 energy=-35.61593246459961 free_energy=-35.61593246459961 stress="0.00024009167100302875 -9.233470876779393e-09 -3.766114176073643e-08 -9.233470876779393e-09 0.00024004724400583655 1.3504573459499625e-08 -3.766114176073643e-08 1.3504573459499625e-08 0.00024011789355427027" pbc="T T T"
Sb       1.90302735       1.34564611       3.29613830       0.00000443       0.00003109      -0.00000321
Sb       5.70908135       4.03692741       9.88841844       0.00001421      -0.00001611       0.00002983
Sc       0.00000026      -0.00000028       0.00000014      -0.00000674       0.00000011       0.00000036
Se       2.05733686       1.45475898       6.59227719       0.00088456       0.00064529       0.00000005
Se       5.55476899       3.92781254       6.59227583      -0.00087968      -0.00064060      -0.00001323
Se       4.68041051       1.45475839       5.07784501      -0.00044549       0.00063403       0.00076115
Se       2.93169507       3.92781304       8.10670877       0.00043394      -0.00064088      -0.00076997
Se       2.93169560       3.92781375       5.07784491       0.00044516      -0.00063857       0.00076604
Se       4.68040971       1.45475706       8.10670839      -0.00045052       0.00062566      -0.00077119
