9
Lattice="4.711835205004021 4.029164315074001e-08 2.7203792835874356 1.5706117471359549 4.442360995735381 2.720379328365658 2.279805948780718e-08 7.096256220910087e-08 5.440758527687481" Properties=species:S:1:pos:R:3:forces:R:3 energy=-42.59917449951172 free_energy=-42.59917449951172 stress="0.0002898750244639814 -1.2312010255755013e-07 -1.496380690468868e-07 -1.2312010255755013e-07 0.0002901001716963947 1.602102095432656e-08 -1.496380690468868e-07 1.602102095432656e-08 0.00029015206382609904" pbc="T T T"
Sb       1.57061226       1.11058991       2.72037929       0.00000906      -0.00000880      -0.00000232
Sb       4.71183485       3.33177192       8.16113957      -0.00000784       0.00001497       0.00002396
Sn      -0.00000015       0.00000006       0.00000053       0.00000302      -0.00000307      -0.00002844
N        1.71309666       1.21134181       5.44075868      -0.00335890      -0.00238383       0.00000153
N        4.56935041       3.23101888       5.44075712       0.00336081       0.00238287      -0.00001396
N        3.85528677       1.21134235       4.20396437       0.00167647      -0.00237751      -0.00291210
N        2.42716045       3.23101860       6.67755234      -0.00168881       0.00239074       0.00292450
N        2.42716078       3.23101919       4.20396430      -0.00167158       0.00238031      -0.00291258
N        3.85528577       1.21134170       6.67755215       0.00167838      -0.00239545       0.00292009
