9
Lattice="5.851458079854657 -1.2863555832386175e-07 3.3783407737042705 1.9504858940642837 5.516806970081887 3.37834079323345 4.5260700393486854e-08 5.5922371959825104e-08 6.756681469014707" Properties=species:S:1:pos:R:3:forces:R:3 energy=-30.838653564453125 free_energy=-30.838653564453125 stress="9.930457053997088e-06 1.909738323035981e-08 2.4159145795010772e-08 1.909738323035981e-08 9.999756002798676e-06 4.779073581318016e-09 2.4159145795010772e-08 4.779073581318016e-09 9.946503269020468e-06" pbc="T T T"
Sb       1.95048513       1.37920165       3.37834213      -0.00000700      -0.00000012       0.00001426
Sb       5.85145331       4.13760497      10.13502376      -0.00004346      -0.00000629       0.00001529
Sn      -0.00000005      -0.00000018      -0.00000002      -0.00000204       0.00000032       0.00000477
Se       2.11858111       1.49806232       6.75668086      -0.00054964      -0.00040158      -0.00000624
Se       5.68336339       4.01874364       6.75668097       0.00055881       0.00039037      -0.00000812
Se       4.79216778       1.49806392       5.21308511       0.00028219      -0.00038596      -0.00048978
Se       3.00977788       4.01874453       8.30027763      -0.00026515       0.00039855       0.00048774
Se       3.00977872       4.01874376       5.21308445      -0.00025728       0.00039238      -0.00049425
Se       4.79216880       1.49806296       8.30027729       0.00028338      -0.00038742       0.00047628
