9
Lattice="6.406296417184696 9.918178385705947e-09 3.6986769461630304 2.1354321434101946 6.039914179086956 3.698676954827261 5.419700347850865e-09 1.4443802676410164e-08 7.397353882938775" Properties=species:S:1:pos:R:3:forces:R:3 energy=-27.652881622314453 free_energy=-27.652881622314453 stress="1.4617472515965346e-05 7.890040620850414e-09 3.199141840326547e-09 7.890040620850414e-09 1.4613624443882145e-05 -9.6197316779012e-09 3.199141840326547e-09 -9.6197316779012e-09 1.4602202099922579e-05" pbc="T T T"
Sb       2.13543235       1.50997849       3.69867644       0.00000164       0.00000070      -0.00000351
Sb       6.40629629       4.52993595      11.09603106      -0.00000018       0.00000132       0.00000270
Sn       0.00000030       0.00000023       0.00000006      -0.00000422      -0.00000066       0.00000032
Te       2.34617291       1.65899450       7.39735382      -0.00009763      -0.00007015       0.00000083
Te       6.19555556       4.38091949       7.39735363       0.00010023       0.00007091      -0.00000098
Te       5.23321008       1.65899477       5.73052221       0.00005004      -0.00007013      -0.00008524
Te       3.30851841       4.38091931       9.06418590      -0.00004892       0.00006797       0.00008519
Te       3.30851861       4.38091964       5.73052229      -0.00004846       0.00007050      -0.00008546
Te       5.23320978       1.65899442       9.06418574       0.00004754      -0.00007059       0.00008623
