9
Lattice="6.220341280564261 -1.0024881622116435e-08 3.591315644913087 2.073447020657959 5.864594146828662 3.591315754745763 -1.3458949927943844e-07 3.9347881510316844e-08 7.18263152294218" Properties=species:S:1:pos:R:3:forces:R:3 energy=-34.140655517578125 free_energy=-34.140655517578125 stress="0.0003182648215442896 9.791339961040535e-10 -3.8705127991534027e-10 9.791339961040535e-10 0.00031826284248381853 1.863068455065786e-08 -3.8705127991534027e-10 1.863068455065786e-08 0.0003182710206601769" pbc="T T T"
Sb       2.07344850       1.46614909       3.59131490       0.00000691       0.00000215      -0.00000493
Sb       6.22034038       4.39844697      10.77394789      -0.00000470       0.00000833       0.00000229
Ti      -0.00000005       0.00000030       0.00000035      -0.00000027      -0.00000289      -0.00000013
Te       2.17232259       1.53606328       7.18263139       0.00415994       0.00293679       0.00000106
Te       6.12146546       4.32853041       7.18263082      -0.00415765      -0.00294036      -0.00000122
Te       5.13417968       1.53606358       5.47260224      -0.00208064       0.00293850       0.00360192
Te       3.15960833       4.32852916       8.89266083       0.00207825      -0.00294155      -0.00359768
Te       3.15960879       4.32853013       5.47260227       0.00208050      -0.00293986       0.00360014
Te       5.13417898       1.53606378       8.89266101      -0.00208219       0.00293890      -0.00360146
