9
Lattice="4.551554260166359 8.568714077866486e-08 2.62784104793303 1.5171847997049686 4.291246787460145 2.6278411076375727 -5.2701942992044074e-08 3.5856903385310656e-08 5.255682187148512" Properties=species:S:1:pos:R:3:forces:R:3 energy=-51.85597229003906 free_energy=-51.85597229003906 stress="0.0007895765593275428 6.376123451445892e-08 -1.4380962909399386e-07 6.376123451445892e-08 0.0007890695706009865 -1.3087635863939795e-07 -1.4380962909399386e-07 -1.3087635863939795e-07 0.0007890966371633112" pbc="T T T"
Sb       1.51718404       1.07281080       2.62784123      -0.00000112      -0.00001014       0.00000336
Sb       4.55155462       3.21843563       7.88352060      -0.00000094       0.00000286      -0.00003093
Ti      -0.00000010       0.00000021       0.00000020       0.00000052      -0.00000062       0.00000789
N        1.65530867       1.17047962       5.25568187      -0.00088990      -0.00063491      -0.00000754
N        4.41343041       3.12076761       5.25568418       0.00088239       0.00063527       0.00002627
N        3.72389973       1.17047814       4.06138005       0.00043863      -0.00064564      -0.00076556
N        2.34484007       3.12076765       6.44998409      -0.00042740       0.00063747       0.00076193
N        2.34483798       3.12076771       4.06138053      -0.00045565       0.00063413      -0.00076115
N        3.72390081       1.17048034       6.44998452       0.00045419      -0.00061834       0.00076669
