9
Lattice="5.452103964558701 9.980988891111934e-09 3.1477735830714866 1.817367964430467 5.140292893750673 3.147773640516554 -1.0232618125867345e-07 -1.9999740943232217e-09 6.295547343377138" Properties=species:S:1:pos:R:3:forces:R:3 energy=-41.955867767333984 free_energy=-41.955867767333984 stress="-0.00016894424334168434 -3.535069836857474e-08 4.032224776295834e-09 -3.535069836857474e-08 -0.0001689577620709315 4.56939552861968e-08 4.032224776295834e-09 4.56939552861968e-08 -0.00016892630083020777" pbc="T T T"
Sb       1.81736883       1.28507702       3.14777335       0.00001183       0.00003976      -0.00000246
Sb       5.45210296       3.85521590       9.44332308      -0.00001068      -0.00004403       0.00002425
Ti       0.00000003       0.00000008       0.00000016      -0.00000134      -0.00000173      -0.00000222
S        1.90290341       1.34555694       6.29554718      -0.00131232      -0.00091331      -0.00000168
S        5.36656830       3.79473603       6.29554630       0.00131300       0.00091637      -0.00001098
S        4.50065232       1.34555789       4.79573584       0.00065877      -0.00090696      -0.00114514
S        2.76881929       3.79473514       7.79535841      -0.00066263       0.00091208       0.00114039
S        2.76882015       3.79473567       4.79573571      -0.00065126       0.00091263      -0.00114195
S        4.50065202       1.34555698       7.79535822       0.00065448      -0.00091484       0.00113954
