9
Lattice="4.663178769844204 -1.2569773584963072e-08 2.692287604801731 1.5543929242111014 4.39648726011612 2.692287582665063 1.011042745433179e-08 -1.996261513743222e-08 5.384575192091719" Properties=species:S:1:pos:R:3:forces:R:3 energy=-60.14561080932617 free_energy=-60.14561080932617 stress="0.0003525771026033908 -1.175248200979695e-07 6.220614778840172e-08 -1.175248200979695e-07 0.0003523225022945553 -1.5069925751731716e-08 6.220614778840172e-08 -1.5069925751731716e-08 0.00035269567160867155" pbc="T T T"
Sb       1.55439174       1.09912392       2.69228777      -0.00002123       0.00002978       0.00000146
Sb       4.66317939       3.29736539       8.07686212       0.00000978       0.00000773      -0.00000892
Ta      -0.00000001       0.00000020      -0.00000012      -0.00000628      -0.00000095      -0.00000532
O        1.59685500       1.12914682       5.38457526      -0.00660443      -0.00467071       0.00000098
O        4.62071722       3.26733907       5.38457541       0.00662369       0.00466156       0.00000427
O        3.86475158       1.12914680       4.07520518       0.00330994      -0.00468045      -0.00571984
O        2.35282029       3.26733989       6.69394562      -0.00331160       0.00466949       0.00573063
O        2.35281994       3.26733955       4.07520464      -0.00331473       0.00466266      -0.00572979
O        3.86475158       1.12914727       6.69394560       0.00331473      -0.00467873       0.00572699
