9
Lattice="6.2863966190433835 -1.2191431364767473e-07 3.6294527965635255 2.0954654520770437 5.926871396539672 3.629452749213041 2.5218895060353025e-08 -4.015980755415839e-08 7.258905549446638" Properties=species:S:1:pos:R:3:forces:R:3 energy=-37.355979919433594 free_energy=-37.355979919433594 stress="-1.4149360140436329e-05 -1.1855135539917683e-08 -1.7414792941039536e-09 -1.1855135539917683e-08 -1.4126095265964977e-05 4.237246997718103e-09 -1.7414792941039536e-09 4.237246997718103e-09 -1.4108530194789637e-05" pbc="T T T"
Sb       2.09546605       1.48171782       3.62945294       0.00000379      -0.00000030       0.00000009
Sb       6.28639613       4.44515336      10.88835829      -0.00000303      -0.00000067      -0.00000112
Ta      -0.00000037      -0.00000011       0.00000006       0.00000493       0.00000148       0.00000093
Te       2.21288080       1.56474285       7.25890556      -0.00198904      -0.00140692       0.00000001
Te       6.16898175       4.36212872       7.25890552       0.00198288       0.00140339       0.00000003
Te       5.17995585       1.56474300       5.54586363       0.00099435      -0.00140622      -0.00172274
Te       3.20190617       4.36212819       8.97194723      -0.00099307       0.00140662       0.00172293
Te       3.20190605       4.36212817       5.54586368      -0.00099409       0.00140727      -0.00172213
Te       5.17995595       1.56474291       8.97194744       0.00099327      -0.00140470       0.00172198
