9
Lattice="5.543795805351017 7.586668669708618e-08 3.2007120875990274 1.8479320091651397 5.226740799986645 3.2007120832336766 -9.245977959542825e-09 -1.188435184396006e-08 6.4014241912125645" Properties=species:S:1:pos:R:3:forces:R:3 energy=-45.637508392333984 free_energy=-45.637508392333984 stress="-8.647514914628118e-05 -2.6314578960295876e-08 -4.521993091088916e-08 -2.6314578960295876e-08 -8.651214011479169e-05 1.4131626535629493e-08 -4.521993091088916e-08 1.4131626535629493e-08 -8.634621917735785e-05" pbc="T T T"
Sb       1.84793286       1.30668679       3.20071098       0.00000669       0.00000987      -0.00000826
Sb       5.54379580       3.92005584       9.60213410      -0.00000144       0.00000006      -0.00002728
Ta       0.00000006      -0.00000005      -0.00000029       0.00000339       0.00000001       0.00000489
S        1.94263389       1.37364940       6.40142473      -0.00011561      -0.00008134       0.00000593
S        5.44909418       3.85309103       6.40142504       0.00011753       0.00007787       0.00001253
S        4.57247895       1.37364937       4.88308298       0.00005895      -0.00008944      -0.00010333
S        2.81924912       3.85309097       7.91976666      -0.00005399       0.00007807       0.00011278
S        2.81924815       3.85309067       4.88308278      -0.00006980       0.00008235      -0.00010549
S        4.57247817       1.37364944       7.91976651       0.00005421      -0.00007739       0.00010838
