9
Lattice="5.766655865105541 1.9362420222494386e-08 3.3293802682360725 1.922218662483254 5.436855475968003 3.32938022921933 -2.3769914591440656e-08 -6.459345037672037e-08 6.658760577642893" Properties=species:S:1:pos:R:3:forces:R:3 energy=-41.53703689575195 free_energy=-41.53703689575195 stress="2.26286101678852e-05 5.60354784795436e-08 2.4253491659465e-08 5.60354784795436e-08 2.2707394236931577e-05 -9.884227658574218e-09 2.4253491659465e-08 -9.884227658574218e-09 2.2732892830390483e-05" pbc="T T T"
Sb       1.92221849       1.35921439       3.32937989      -0.00000437       0.00000226      -0.00000200
Sb       5.76665658       4.07764061       9.98814013       0.00000551      -0.00000580      -0.00000303
Ta       0.00000003      -0.00000003       0.00000011      -0.00000107       0.00000271       0.00000097
Se       2.02462608       1.43162684       6.65876062      -0.00065112      -0.00045814       0.00000216
Se       5.66424842       4.00522884       6.65876069       0.00064856       0.00045900       0.00000470
Se       4.75434315       1.43162712       5.08275796       0.00032833      -0.00045837      -0.00056528
Se       2.93453108       4.00522879       8.23476356      -0.00032617       0.00045381       0.00055923
Se       2.93453131       4.00522851       5.08275782      -0.00032690       0.00045982      -0.00056213
Se       4.75434291       1.43162670       8.23476350       0.00032727      -0.00045523       0.00056544
