9
Lattice="5.702612274667691 -1.192847644299362e-07 3.2924046996375345 1.9008707256352462 5.376474284058563 3.2924045612892288 9.544424700854287e-08 -1.0195210211987865e-07 6.584809233960798" Properties=species:S:1:pos:R:3:forces:R:3 energy=-38.26033020019531 free_energy=-38.26033020019531 stress="4.592274490278214e-05 -1.0207401146544726e-08 1.5334572722736084e-08 -1.0207401146544726e-08 4.598529267241247e-05 1.0455283749877253e-08 1.5334572722736084e-08 1.0455283749877253e-08 4.5998909627087414e-05" pbc="T T T"
Sb       1.90087052       1.34411680       3.29240488      -0.00000295      -0.00001019      -0.00000037
Sb       5.70261223       4.03235691       9.87721239       0.00000235       0.00000916      -0.00001010
Ti       0.00000005       0.00000017      -0.00000022      -0.00000051      -0.00000277      -0.00000424
Se       1.97868517       1.39914104       6.58480924      -0.00051123      -0.00036534      -0.00000114
Se       5.62479806       3.97733288       6.58481009       0.00051157       0.00036346       0.00000647
Se       4.71326976       1.39914076       5.00599646       0.00025312      -0.00036450      -0.00044198
Se       2.89021384       3.97733324       8.16362229      -0.00025408       0.00037213       0.00044654
Se       2.89021303       3.97733322       5.00599657      -0.00025642       0.00036482      -0.00044207
Se       4.71326976       1.39914125       8.16362223       0.00025817      -0.00036665       0.00044693
