9
Lattice="4.6670651990031855 3.1441162441414533e-08 2.6945314557305817 1.5556884054203992 4.400151464920689 2.694531497109874 -1.8164809428401133e-08 3.7834607970663816e-08 5.389062942923533" Properties=species:S:1:pos:R:3:forces:R:3 energy=-44.800010681152344 free_energy=-44.800010681152344 stress="-0.0006012454978190362 1.8850609961873488e-08 -4.594730640405942e-08 1.8850609961873488e-08 -0.0006013733218424022 -1.2839234564410162e-08 -4.594730640405942e-08 -1.2839234564410162e-08 -0.0006012224475853145" pbc="T T T"
Sb       1.55568785       1.10003671       2.69453119      -0.00000383      -0.00001425      -0.00000355
Sb       4.66706531       3.30011374       8.08359474      -0.00000013       0.00000164       0.00000043
Te      -0.00000001       0.00000010      -0.00000020      -0.00000117       0.00000716       0.00000808
N        1.65805245       1.17242015       5.38906316       0.00664222       0.00469625       0.00000349
N        4.56470098       3.22773159       5.38906249      -0.00664437      -0.00469381      -0.00000165
N        3.83803890       1.17242003       4.13044718      -0.00331914       0.00469184       0.00574881
N        2.38471487       3.22773187       6.64767870       0.00332582      -0.00469607      -0.00575739
N        2.38471456       3.22773179       4.13044748       0.00331926      -0.00469106       0.00575560
N        3.83803929       1.17242016       6.64767884      -0.00331873       0.00469804      -0.00575429
