9
Lattice="5.674450215658529 1.2437311853400043e-09 3.2761453547271873 1.8914833975144207 5.349922814485365 3.276145370103815 -2.5066486206052838e-08 1.1077394780200873e-09 6.552290752870836" Properties=species:S:1:pos:R:3:forces:R:3 energy=-38.483123779296875 free_energy=-38.483123779296875 stress="-9.560449689161032e-05 3.681036986336039e-08 -1.111595882008487e-08 3.681036986336039e-08 -9.567513188812882e-05 -1.2006534433339766e-08 -1.111595882008487e-08 -1.2006534433339766e-08 -9.564127685735002e-05" pbc="T T T"
Sb       1.89148310       1.33748150       3.27614522      -0.00000377       0.00000894      -0.00000089
Sb       5.67445068       4.01244197       9.82843750       0.00000610       0.00000069       0.00001304
V       -0.00000001       0.00000009       0.00000005      -0.00000144       0.00000151       0.00000106
Se       1.94312393       1.37399632       6.55229101       0.00543617       0.00384707       0.00000066
Se       5.62280992       3.97592599       6.55229014      -0.00543347      -0.00384812      -0.00000591
Se       4.70288834       1.37399640       4.95893981      -0.00271825       0.00384547       0.00470937
Se       2.86304509       3.97592695       8.14564103       0.00271656      -0.00384826      -0.00471421
Se       2.86304552       3.97592639       4.95893947       0.00271928      -0.00384947       0.00470881
Se       4.70288785       1.37399566       8.14564167      -0.00272134       0.00384220      -0.00471181
