9
Lattice="6.142668017323546 -1.4056685130096538e-08 3.546470812281698 2.0475559626860953 5.791362706034775 3.5464708639585565 3.7786903581122476e-08 9.001035603440624e-08 7.09294155911456" Properties=species:S:1:pos:R:3:forces:R:3 energy=-34.47010040283203 free_energy=-34.47010040283203 stress="-5.0278304115636274e-05 5.617444287508988e-09 -1.1359603924177009e-08 5.617444287508988e-09 -5.026956205256283e-05 2.6265860597618484e-08 -1.1359603924177009e-08 2.6265860597618484e-08 -5.027981023886241e-05" pbc="T T T"
Sb       2.04755603       1.44784105       3.54647166      -0.00000040       0.00000137       0.00000393
Sb       6.14266670       4.34352248      10.63941417      -0.00000624       0.00000238       0.00000674
V        0.00000013       0.00000030       0.00000005      -0.00000085      -0.00000145      -0.00000020
Te       2.13096675       1.50682020       7.09294115       0.00375824       0.00265491      -0.00000209
Te       6.05925763       4.28454177       7.09294073      -0.00375289      -0.00265543      -0.00000330
Te       5.07718469       1.50682103       5.39194135      -0.00187818       0.00265482       0.00324990
Te       3.11303946       4.28454198       8.79394162       0.00187784      -0.00265471      -0.00325114
Te       3.11303964       4.28454210       5.39194095       0.00188018      -0.00265707       0.00325041
Te       5.07718504       1.50682025       8.79394126      -0.00187772       0.00265512      -0.00325425
