9
Lattice="5.426406379210257 2.7755767573852243e-09 3.132937168887442 1.8088021549179691 5.116064675724069 3.132937124031179 1.6222664313792356e-07 5.977412621281777e-08 6.26587405679004" Properties=species:S:1:pos:R:3:forces:R:3 energy=-41.87820053100586 free_energy=-41.87820053100586 stress="5.901833901589271e-06 2.2683622091790312e-08 -7.2157742003753356e-09 2.2683622091790312e-08 5.776641046395525e-06 4.4208867677753005e-08 -7.2157742003753356e-09 4.4208867677753005e-08 5.908041657676222e-06" pbc="T T T"
Sb       1.80880128       1.27901332       3.13293804      -0.00001141      -0.00003413       0.00001090
Sb       5.42640903       3.83704871       9.39881146       0.00003061       0.00000750       0.00000286
V        0.00000003      -0.00000008      -0.00000012       0.00000103       0.00000097       0.00000014
S        1.86390829       1.31798342       6.26587431       0.00062636       0.00045626      -0.00000117
S        5.37129938       3.79808347       6.26587488      -0.00064275      -0.00044145       0.00000272
S        4.49445155       1.31798231       4.74712924      -0.00031660       0.00044434       0.00054970
S        2.74075593       3.79808359       7.78461809       0.00031105      -0.00043623      -0.00056496
S        2.74075649       3.79808292       4.74712950       0.00031337      -0.00044094       0.00056064
S        4.49445287       1.31798135       7.78461803      -0.00031154       0.00044380      -0.00056097
