9
Lattice="4.5650876427811395 -1.5487339192744777e-07 2.6356545313077566 1.521695761675 4.304005717143374 2.635654484951151 -8.097718237785782e-08 -1.1403451551755528e-07 5.2713092028720965" Properties=species:S:1:pos:R:3:forces:R:3 energy=-54.19255065917969 free_energy=-54.19255065917969 stress="7.293494854820892e-05 8.235726056682324e-08 3.534830028684155e-08 8.235726056682324e-08 7.299645221792161e-05 1.1204408423282075e-07 3.534830028684155e-08 1.1204408423282075e-07 7.280045974766836e-05" pbc="T T T"
Sb       1.52169817       1.07600576       2.63565454       0.00002490       0.00004869      -0.00000018
Sb       4.56508791       3.22800210       7.90695827       0.00000273      -0.00002376      -0.00005999
V       -0.00000011      -0.00000024      -0.00000011      -0.00000479      -0.00000007       0.00000907
N        1.59195963       1.12568734       5.27130867      -0.00197494      -0.00137687      -0.00000543
N        4.49482369       3.17831765       5.27131235       0.00197875       0.00137377       0.00003614
N        3.76910564       1.12568594       4.01433223       0.00096595      -0.00139070      -0.00171018
N        2.31767664       3.17831813       6.52828740      -0.00097156       0.00136757       0.00171959
N        2.31767416       3.17831719       4.01433242      -0.00100249       0.00136328      -0.00170851
N        3.76910740       1.12568787       6.52828731       0.00098181      -0.00136173       0.00171888
