9
Lattice="4.620853245398172 2.5872968080381507e-08 2.6678507492692556 1.5402844208689377 4.35658258114547 2.667850781584235 2.8259452676260367e-09 4.1575820745499555e-08 5.335701493643894" Properties=species:S:1:pos:R:3:forces:R:3 energy=-53.4213981628418 free_energy=-53.4213981628418 stress="0.00012582527415361255 -6.332030011435563e-08 -6.788581430328122e-08 -6.332030011435563e-08 0.00012563716154545546 1.0894644297820832e-08 -6.788581430328122e-08 1.0894644297820832e-08 0.00012588508252520114" pbc="T T T"
Sb       1.54028625       1.08914582       2.66785094       0.00002851       0.00000203       0.00000377
Sb       4.62085435       3.26743717       8.00355068       0.00002180       0.00000487      -0.00002849
V        0.00000009      -0.00000026      -0.00000021       0.00000664       0.00000413      -0.00000184
O        1.53143277       1.08288699       5.33570162      -0.00352395      -0.00248677       0.00000055
O        4.62970473       3.27369580       5.33570222       0.00350749       0.00248712       0.00001167
O        3.85513552       1.08288641       3.99411050       0.00174481      -0.00249773      -0.00305235
O        2.30600099       3.27369604       6.67729256      -0.00176293       0.00249076       0.00305307
O        2.30599984       3.27369589       3.99411081      -0.00177091       0.00248307      -0.00303781
O        3.85513629       1.08288658       6.67729304       0.00174782      -0.00248718       0.00305128
