9
Lattice="4.66665977299412 -1.1173680078890462e-08 2.6942973197200897 1.555553253213317 4.399768962641191 2.694297309183602 3.807572745585575e-08 1.401911102461726e-08 5.388594573491049" Properties=species:S:1:pos:R:3:forces:R:3 energy=-57.67471694946289 free_energy=-57.67471694946289 stress="-0.0001489199639763683 -1.7329533363863447e-08 4.111165807785255e-08 -1.7329533363863447e-08 -0.0001488496345700696 -7.593740747324773e-08 4.111165807785255e-08 -7.593740747324773e-08 -0.0001488651760155335" pbc="T T T"
Sb       1.55555459       1.09994230       2.69429814       0.00001522       0.00000007       0.00000799
Sb       4.66665854       3.29982690       8.08289354      -0.00001710       0.00000124       0.00001935
W       -0.00000008       0.00000021       0.00000022       0.00000299      -0.00000474       0.00000549
N        1.62631856       1.14998041       5.38859419       0.00126910       0.00089085      -0.00000440
N        4.59589452       3.24978850       5.38859348      -0.00126791      -0.00089002      -0.00001099
N        3.85350007       1.14998114       4.10272977      -0.00064033       0.00090134       0.00108850
N        2.36871262       3.24978793       6.67445880       0.00063604      -0.00089812      -0.00109529
N        2.36871328       3.24978776       4.10272972       0.00064224      -0.00089389       0.00108278
N        3.85350008       1.14998074       6.67445907      -0.00064039       0.00089365      -0.00109375
