9
Lattice="6.542820437873836 -5.2777986930951016e-08 3.777499287305977 2.1809401442224132 6.168630123787048 3.7774992041258852 8.88631141733133e-08 -3.90386854890399e-08 7.554998420696562" Properties=species:S:1:pos:R:3:forces:R:3 energy=-31.70411491394043 free_energy=-31.70411491394043 stress="-4.3426643969723955e-05 -1.9294241759837405e-09 -1.6721760642823824e-09 -1.9294241759837405e-09 -4.3416610424173996e-05 -1.726667875345811e-08 -1.6721760642823824e-09 -1.726667875345811e-08 -4.343301770859398e-05" pbc="T T T"
Sb       2.18093981       1.54215681       3.77749940      -0.00000122      -0.00000474      -0.00000018
Sb       6.54282029       4.62647239      11.33249833      -0.00000118      -0.00000019       0.00000475
Y       -0.00000009      -0.00000088      -0.00000018       0.00000017       0.00000480      -0.00000153
Te       2.43696226       1.72319254       7.55499871      -0.00067742      -0.00047880       0.00000011
Te       6.28679842       4.44543814       7.55499833       0.00067574       0.00047862      -0.00000166
Te       5.32433947       1.72319260       5.88797002       0.00033918      -0.00047717      -0.00058734
Te       3.39942145       4.44543780       9.22202660      -0.00033796       0.00047924       0.00058508
Te       3.39942155       4.44543829       5.88797027      -0.00033712       0.00048006      -0.00058478
Te       5.32433947       1.72319245       9.22202613       0.00033984      -0.00048178       0.00058572
