9
Lattice="5.8962278963545875 2.6216148459911036e-08 3.4041888254165937 1.9654093429728836 5.559016986790517 3.4041887916915448 1.2383116173973113e-07 4.6257210360450843e-08 6.808377436351281" Properties=species:S:1:pos:R:3:forces:R:3 energy=-34.054927825927734 free_energy=-34.054927825927734 stress="-0.0001230331981787458 3.2168578911750956e-08 1.3028805589954118e-08 3.2168578911750956e-08 -0.0001231013739015907 -2.6510008410696173e-08 1.3028805589954118e-08 -2.6510008410696173e-08 -0.00012302440882194787" pbc="T T T"
Sb       1.96540630       1.38975174       3.40418651      -0.00003323      -0.00002914      -0.00002565
Sb       5.89622867       4.16926107      10.21256516       0.00001142      -0.00001830      -0.00001265
Y        0.00000044       0.00000045      -0.00000022       0.00000031      -0.00000540       0.00000039
Se       2.16869325       1.53349949       6.80837752      -0.00421390      -0.00296131       0.00000716
Se       5.69294389       4.02551826       6.80837761       0.00420994       0.00297263       0.00000067
Se       4.81188237       1.53349702       5.28233364       0.00212038      -0.00297597      -0.00362962
Se       3.04975660       4.02551975       8.33442202      -0.00210203       0.00298139       0.00363693
Se       3.04975631       4.02552155       5.28233469      -0.00210151       0.00300059      -0.00362355
Se       4.81188151       1.53349891       8.33442317       0.00210859      -0.00296420       0.00364611
