9
Lattice="5.616137492802352 -1.8520281427268366e-07 3.2424787060634177 1.8720457883681594 5.294944412464547 3.2424784773549042 2.761772994507087e-07 -8.482274391397225e-08 6.484956933773716" Properties=species:S:1:pos:R:3:forces:R:3 energy=-37.45507049560547 free_energy=-37.45507049560547 stress="-6.328601216409879e-07 -6.611941927303633e-08 4.846565104799083e-08 -6.611941927303633e-08 -4.774884132530133e-07 -9.596235628350769e-08 4.846565104799083e-08 -9.596235628350769e-08 -5.622445087283268e-07" pbc="T T T"
Sb       1.87204578       1.32373478       3.24247935      -0.00000013      -0.00001517       0.00000712
Sb       5.61613752       3.97120934       9.72743319      -0.00000423       0.00001816      -0.00002646
Y        0.00000015      -0.00000049       0.00000018       0.00000195       0.00001583       0.00000452
S        2.05300097       1.45168921       6.48495749      -0.00092882      -0.00066318       0.00000210
S        5.43518381       3.84325470       6.48495794       0.00091949       0.00065005       0.00001076
S        4.58963661       1.45168892       5.02042930       0.00045814      -0.00066352      -0.00080319
S        2.89854648       3.84325573       7.94948508      -0.00045010       0.00066093       0.00079365
S        2.89854581       3.84325427       5.02042907      -0.00046748       0.00065614      -0.00079939
S        4.58963706       1.45169015       7.94948493       0.00047122      -0.00065887       0.00081082
