9
Lattice="4.808040327493121 -7.93727060360506e-09 2.7759233575523536 1.602680128806253 4.533063705075126 2.7759233105701155 1.053040716377283e-07 1.691996008339279e-08 5.551846532712703" Properties=species:S:1:pos:R:3:forces:R:3 energy=-48.69324493408203 free_energy=-48.69324493408203 stress="0.0002918827813118696 1.9715407972853427e-08 -1.9387131899861743e-08 1.9715407972853427e-08 0.0002919590042438358 -6.301126376229149e-08 -1.9387131899861743e-08 -6.301126376229149e-08 0.00029195364913903177" pbc="T T T"
Sb       1.60267934       1.13326578       2.77592373      -0.00000967      -0.00000134       0.00000550
Sb       4.80803923       3.39979810       8.32777087      -0.00001458       0.00000199       0.00001608
Y       -0.00000021      -0.00000009      -0.00000010      -0.00000080      -0.00000344       0.00000230
O        1.75377678       1.24010700       5.55184635       0.00365734       0.00257820      -0.00000188
O        4.65694396       3.29295654       5.55184583      -0.00365132      -0.00258225      -0.00000893
O        3.93115268       1.24010729       4.29473853      -0.00182208       0.00258660       0.00316441
O        2.47956873       3.29295686       6.80895494       0.00182857      -0.00257885      -0.00316504
O        2.47956931       3.29295621       4.29473796       0.00183453      -0.00258195       0.00315583
O        3.93115237       1.24010717       6.80895473      -0.00182238       0.00258082      -0.00316820
