9
Lattice="9.534890316312921 -2.026049297016693 3.7124545749383877 0.9198975206399532 4.124688738643604 3.3739770631813273 0.6241728617558909 0.6436827901718818 5.61967619172697" Properties=species:S:1:pos:R:3:forces:R:3 energy=-63.81297302246094 free_energy=-63.81297302246094 stress="-0.003817162476480007 0.0011397594353184104 -1.0445472980791237e-05 0.0011397594353184104 0.003931039944291115 0.0007969887810759246 -1.0445472980791237e-05 0.0007969887810759246 -0.0011908847372978926" pbc="T T T"
Sb       4.54282121      -0.06937526       2.76951297       0.02435553       0.03136297       0.03243159
Sb       6.47206266       3.36709079       8.97756786      -0.00790691      -0.02408707      -0.02318409
Y        1.74205082      -1.68595452       0.07302307       0.05110580       0.02339357      -0.02687682
N        2.90245105       1.26400912       5.58773072      -0.01388907      -0.02321538      -0.01810616
N        9.88024731       0.77886756       7.24527247       0.65890050      -0.06839783      -0.00581402
N        3.84227454       0.62587172       6.26657953      -0.00263777       0.02730471      -0.02652727
N        3.47771655       3.09970223       6.81610157      -0.00295490      -0.03338730       0.00232911
N        2.67059564       2.60552512       5.91503045      -0.02174425      -0.02943280       0.04211819
N        8.78561518       0.98352284       7.17359136      -0.68522835       0.09645896       0.02362898
