9
Lattice="4.5645659354859545 -7.386454010954487e-07 2.635351848239635 1.5215210215015904 4.303513214199356 2.635352299598785 -1.7312255278904997e-06 -6.713614909208604e-07 5.270706695049656" Properties=species:S:1:pos:R:3:forces:R:3 energy=-50.982933044433594 free_energy=-50.982933044433594 stress="-0.00012289795267861336 1.3655542261403752e-06 7.758122592349537e-06 1.3655542261403752e-06 -0.00011142025323351845 4.790520051756175e-06 7.758122592349537e-06 4.790520051756175e-06 -0.0001197114834212698" pbc="T T T"
Sb       1.52152165       1.07588781       2.63534680      -0.00001606       0.00014296      -0.00013472
Sb       4.56456629       3.22763145       7.90606758       0.00003823      -0.00007372       0.00017195
Zr       0.00000010       0.00000019       0.00000000       0.00000391       0.00000390      -0.00000070
N        1.79191214       1.26708290       5.27072113      -0.00088142      -0.00032987       0.00042586
N        4.29419384       3.03642697       5.27067770       0.00142583       0.00035740      -0.00072188
N        3.66861926       1.26709327       4.18719592       0.00072278      -0.00005202      -0.00069179
N        2.41744738       3.03642864       6.35422954      -0.00121327       0.00034086       0.00111686
N        2.41748063       3.03643214       4.18718679      -0.00033895       0.00046359      -0.00097850
N        3.66859981       1.26706373       6.35421796       0.00025877      -0.00085333       0.00081275
