9
Lattice="5.620060275005127 -4.049933079618179e-08 3.2447431987135436 1.8733533962092517 5.298643511175214 3.244743182448509 -5.970997529766808e-08 -6.214188325162454e-08 6.489486500847829" Properties=species:S:1:pos:R:3:forces:R:3 energy=-28.980453491210938 free_energy=-28.980453491210938 stress="2.4669769118190743e-05 -3.104565138301041e-08 -1.5931906460764367e-08 -3.104565138301041e-08 2.465079705871176e-05 1.866439447439916e-09 -1.5931906460764367e-08 1.866439447439916e-09 2.4647430109325796e-05" pbc="T T T"
Sb       1.87335239       1.32465972       3.24474350      -0.00000651      -0.00000896       0.00000261
Sb       5.62006120       3.97398192       9.73422816       0.00001042      -0.00000646      -0.00001384
Zn      -0.00000009      -0.00000036       0.00000021       0.00000038       0.00000540      -0.00000056
Se       2.00552569       1.41812103       6.48948628      -0.00146703      -0.00103185      -0.00000244
Se       5.48788812       3.88052309       6.48948718       0.00145856       0.00103474       0.00000717
Se       4.61729779       1.41812082       4.98157955       0.00073555      -0.00103571      -0.00126577
Se       2.87611611       3.88052320       7.99739340      -0.00073054       0.00103688       0.00126260
Se       2.87611546       3.88052313       4.98157973      -0.00073597       0.00103777      -0.00125892
Se       4.61729780       1.41812107       7.99739348       0.00073504      -0.00103197       0.00126944
