9
Lattice="6.166759231066379 1.056325871316018e-07 3.5603803693797422 2.055586485328579 5.814075082963839 3.5603804120198053 2.3109299497765696e-07 2.1563062043516308e-07 7.120760338494705" Properties=species:S:1:pos:R:3:forces:R:3 energy=-25.604476928710938 free_energy=-25.604476928710938 stress="-0.00011842752428492531 -5.054888774225219e-08 -3.066177356458866e-08 -5.054888774225219e-08 -0.00011817731137853116 2.3984567665280565e-09 -3.066177356458866e-08 2.3984567665280565e-09 -0.00011843143147416413" pbc="T T T"
Sb       2.05557615       1.45352775       3.56037230      -0.00005300       0.00006040      -0.00003639
Sb       6.16674772       4.36054552      10.68112892      -0.00007022      -0.00007491      -0.00006484
Zn      -0.00000393      -0.00000046      -0.00000752       0.00004479       0.00000162       0.00009532
Te       2.18559787       1.54546089       7.12075782      -0.00575607      -0.00403856       0.00000765
Te       6.03675104       4.26861610       7.12075881       0.00574267       0.00400922       0.00001567
Te       5.07396299       1.54545539       5.45317352       0.00291279      -0.00406979      -0.00496526
Te       3.14839643       4.26861841       8.78836628      -0.00280999       0.00401245       0.00498772
Te       3.14839246       4.26861742       5.45316910      -0.00287484       0.00407877      -0.00500103
Te       5.07396308       1.54546057       8.78836537       0.00286384      -0.00397914       0.00496112
