9
Lattice="4.632986881733989 -7.523168972368341e-09 2.6748562292770006 1.5443289559117162 4.3680219426859805 2.674856225073943 9.453076093584053e-09 1.5366630502017614e-09 5.349712442180793" Properties=species:S:1:pos:R:3:forces:R:3 energy=-40.43718719482422 free_energy=-40.43718719482422 stress="-0.0002112426154781133 -3.466674769470046e-08 3.086796818152493e-09 -3.466674769470046e-08 -0.00021118123549968004 -1.0011991236069662e-08 3.086796818152493e-09 -1.0011991236069662e-08 -0.0002111221692757681" pbc="T T T"
Sb       1.54432913       1.09200546       2.67485625       0.00000140      -0.00000064      -0.00000064
Sb       4.63298680       3.27601636       8.02456886      -0.00000080       0.00000125       0.00000089
Zn       0.00000002      -0.00000008       0.00000019       0.00000015       0.00000144      -0.00000027
O        1.59412376       1.12721574       5.34971249       0.00096476       0.00068113      -0.00000093
O        4.58319204       3.24080628       5.34971237      -0.00096327      -0.00068185       0.00000009
O        3.83592496       1.12721581       4.05540784      -0.00048199       0.00068054       0.00083387
O        2.34139084       3.24080609       6.64401689       0.00047985      -0.00068098      -0.00083339
O        2.34139099       3.24080624       4.05540783       0.00048181      -0.00068143       0.00083417
O        3.83592483       1.12721583       6.64401689      -0.00048178       0.00068063      -0.00083363
