9
Lattice="4.3537921110798985 4.1215625597032675e-08 2.513663048042593 1.4512641101937598 4.104794234160157 2.51366298861821 1.2217048541388327e-07 1.3607891756379913e-08 5.0273258844796525" Properties=species:S:1:pos:R:3:forces:R:3 energy=-63.53956985473633 free_energy=-63.53956985473633 stress="-9.0858247858705e-06 -2.5315220142374528e-08 8.191520350919745e-08 -2.5315220142374528e-08 -9.003654668049421e-06 6.5843179797298035e-09 8.191520350919745e-08 6.5843179797298035e-09 -9.33189039642457e-06" pbc="T T T"
Sc       1.45126405       1.02619790       2.51366201       0.00000099      -0.00000356      -0.00000555
Sc       4.35379304       3.07859568       7.54098860       0.00000696      -0.00000130      -0.00000672
As      -0.00000011       0.00000010      -0.00000014      -0.00000595      -0.00000021       0.00000842
O        1.46842049       1.03833084       5.02732589      -0.00001478      -0.00001037       0.00000364
O        4.33663531       3.06646398       5.02732636       0.00001764       0.00001317       0.00000241
O        3.61958175       1.03833014       3.78535285       0.00000840      -0.00001168      -0.00001001
O        2.18547447       3.06646405       6.26929968      -0.00000793       0.00000697       0.00001228
O        2.18547446       3.06646392       3.78535330      -0.00000709       0.00001687      -0.00001442
O        3.61958179       1.03833024       6.26929939       0.00000125      -0.00000954       0.00000870
