9
Lattice="5.638212060630053 -3.5520753928706625e-08 3.2552233201059986 1.8794040203829239 5.31575739503166 3.2552232618013868 2.290457762702417e-08 -5.5212293275517255e-08 6.510446600540118" Properties=species:S:1:pos:R:3:forces:R:3 energy=-40.83737564086914 free_energy=-40.83737564086914 stress="-0.0002613160468172282 3.889263133771692e-09 2.1665449878582876e-08 3.889263133771692e-09 -0.0002613235847093165 -6.490060044939128e-09 2.1665449878582876e-08 -6.490060044939128e-09 -0.0002613202668726444" pbc="T T T"
Sc       1.87940514       1.32894023       3.25522315       0.00000699       0.00000572       0.00000147
Sc       5.63821122       3.98681760       9.76566614      -0.00000653      -0.00000371      -0.00002765
As      -0.00000002      -0.00000005       0.00000026      -0.00000260       0.00000090      -0.00000461
Se       1.95296716       1.38095634       6.51044650       0.00507975       0.00359219      -0.00000211
Se       5.56464904       3.93480074       6.51044865      -0.00507641      -0.00359218       0.00001368
Se       4.66172826       1.38095577       4.94654266      -0.00254397       0.00358969       0.00440198
Se       2.85588803       3.93480044       8.07435131       0.00254390      -0.00359328      -0.00439310
Se       2.85588751       3.93480106       4.94654256       0.00253810      -0.00359462       0.00440076
Se       4.66172810       1.38095712       8.07435144      -0.00253950       0.00359514      -0.00439042
