9
Lattice="5.400034386039924 4.905857303847609e-08 3.1177114219888113 1.8000115429843324 5.0912014003613475 3.117711361855206 2.477961251719881e-08 -5.612649297375297e-08 6.2354228010580774" Properties=species:S:1:pos:R:3:forces:R:3 energy=-45.10335922241211 free_energy=-45.10335922241211 stress="-8.352477016160265e-05 -5.792665791481966e-10 2.1791302984297545e-08 -5.792665791481966e-10 -8.355792670045048e-05 -1.8675166302273283e-08 2.1791302984297545e-08 -1.8675166302273283e-08 -8.3596256445162e-05" pbc="T T T"
Sc       1.80001213       1.27280243       3.11771154       0.00000657       0.00001641      -0.00000037
Sc       5.40003425       3.81839947       9.35313492      -0.00000397      -0.00001309       0.00000688
As       0.00000008      -0.00000002      -0.00000003      -0.00000224       0.00000108       0.00000217
S        1.86984285       1.32217929       6.23542272      -0.00092232      -0.00064564      -0.00000074
S        5.33020260       3.76902268       6.23542246       0.00092095       0.00065041      -0.00000196
S        4.46511299       1.32217942       4.73704260       0.00046274      -0.00064516      -0.00079876
S        2.73493285       3.76902173       7.73380311      -0.00046173       0.00064141       0.00079715
S        2.73493331       3.76902160       4.73704219      -0.00045902       0.00064325      -0.00080198
S        4.46511288       1.32217904       7.73380278       0.00045955      -0.00064880       0.00079757
