9
Lattice="5.40003015018986 -5.99494480858185e-08 3.1177086572282775 1.8000099789144544 5.091197130853696 3.1177086825646154 -2.02249232955044e-08 1.6729369567229304e-08 6.235417349487122" Properties=species:S:1:pos:R:3:forces:R:3 energy=-45.10335922241211 free_energy=-45.10335922241211 stress="-8.850723679643124e-05 2.4633363793213903e-08 -3.79971538677637e-08 2.4633363793213903e-08 -8.854983752826229e-05 3.408436199947573e-08 -3.79971538677637e-08 3.408436199947573e-08 -8.852934115566313e-05" pbc="T T T"
Sc       1.80001041       1.27279805       3.11770919       0.00000210      -0.00000754       0.00000229
Sc       5.40003025       3.81839824       9.35312826       0.00000121       0.00000379       0.00001606
As      -0.00000004       0.00000012      -0.00000069      -0.00000025       0.00000289       0.00000993
S        1.86983003       1.32216937       6.23541773      -0.00069976      -0.00049496       0.00000335
S        5.33021018       3.76902787       6.23541614       0.00069374       0.00049478      -0.00000802
S        4.46511468       1.32216975       4.73702847       0.00035107      -0.00049806      -0.00061417
S        2.73492443       3.76902848       7.73380552      -0.00034800       0.00049412       0.00059730
S        2.73492479       3.76902814       4.73702860      -0.00034630       0.00049746      -0.00060356
S        4.46511568       1.32216832       7.73380566       0.00034586      -0.00049257       0.00059730
