9
Lattice="4.353866961367297 -8.337964271510254e-08 2.51370640588814 1.451288934943061 4.104865089401703 2.513706360107104 -8.146886787534125e-08 -1.1367728715162623e-07 5.027412952884506" Properties=species:S:1:pos:R:3:forces:R:3 energy=-63.539573669433594 free_energy=-63.539573669433594 stress="1.4623099559685215e-05 -4.5197968034926816e-08 4.887929705432725e-08 -4.5197968034926816e-08 1.4736553566763178e-05 -4.745634640812568e-08 4.887929705432725e-08 -4.745634640812568e-08 1.4504707905871328e-05" pbc="T T T"
Sc       1.45128865       1.02621638       2.51370608       0.00000001       0.00000482      -0.00000147
Sc       4.35386705       3.07864872       7.54111905      -0.00000143      -0.00000457      -0.00000448
As      -0.00000004       0.00000004       0.00000002       0.00000470      -0.00000231      -0.00000089
O        1.46840163       1.03831711       5.02741290       0.00154293       0.00108445       0.00000397
O        4.33675402       3.06654785       5.02741290      -0.00154150      -0.00108784      -0.00000028
O        3.61966600       1.03831705       3.78537986      -0.00076872       0.00108260       0.00134039
O        2.18548984       3.06654776       6.26944611       0.00076759      -0.00108433      -0.00133312
O        2.18548987       3.06654744       3.78537996       0.00076753      -0.00108111       0.00133157
O        3.61966604       1.03831719       6.26944622      -0.00077188       0.00108814      -0.00133812
