9
Lattice="5.638395680149366 5.481965057396392e-08 3.255329302653691 1.87946524538528 5.31593057845866 3.255329359838475 3.639017594737657e-08 9.576850342671155e-08 6.510658542277748" Properties=species:S:1:pos:R:3:forces:R:3 energy=-40.837371826171875 free_energy=-40.837371826171875 stress="-0.00023976645024958998 -1.089743673077237e-08 2.1594008359215877e-08 -1.089743673077237e-08 -0.0002397596836090088 -2.3436570018020575e-08 2.1594008359215877e-08 -2.3436570018020575e-08 -0.00023976624652277678" pbc="T T T"
Sc       1.87946750       1.32898203       3.25532917       0.00001746      -0.00000459      -0.00000052
Sc       5.63839653       3.98694644       9.76598698       0.00000596      -0.00001276      -0.00000746
As       0.00000016       0.00000007      -0.00000011      -0.00000011       0.00000100      -0.00000262
Se       1.95291823       1.38092303       6.51065854       0.00593716       0.00420767       0.00000083
Se       5.56494188       3.93500873       6.51065907      -0.00594413      -0.00419858       0.00000335
Se       4.66193541       1.38092242       4.94660591      -0.00297806       0.00420335       0.00514007
Se       2.85592460       3.93500846       8.07471046       0.00297034      -0.00420003      -0.00514686
Se       2.85592403       3.93500878       4.94660712       0.00296728      -0.00419913       0.00514880
Se       4.66193555       1.38092295       8.07471164      -0.00297593       0.00420317      -0.00513566
