9
Lattice="6.453779236591134 7.581615109112639e-08 3.726091077075656 2.1512598177614355 6.084681355825008 3.7260910757750807 1.4039604272241e-09 -6.00153428320503e-10 7.452182151719587" Properties=species:S:1:pos:R:3:forces:R:3 energy=-35.19152069091797 free_energy=-35.19152069091797 stress="-5.368273559724912e-05 2.6661824747975515e-08 3.027766926066988e-09 2.6661824747975515e-08 -5.372775922296569e-05 -1.0326478339095502e-08 3.027766926066988e-09 -1.0326478339095502e-08 -5.3743449825560674e-05" pbc="T T T"
Sc       2.15125995       1.52117038       3.72609102       0.00000115       0.00000037      -0.00000035
Sc       6.45377903       4.56351089      11.17827328      -0.00000146      -0.00000106      -0.00000016
Bi       0.00000015       0.00000001      -0.00000017      -0.00000335      -0.00000158       0.00000238
Te       2.36850912       1.67478889       7.45218214      -0.00617942      -0.00436938      -0.00000043
Te       6.23652981       4.40989252       7.45218214       0.00618166       0.00437130      -0.00000016
Te       5.26952468       1.67478891       5.77727982       0.00308941      -0.00436871      -0.00535038
Te       3.33551442       4.40989263       9.12708454      -0.00308819       0.00436750       0.00534904
Te       3.33551444       4.40989258       5.77728005      -0.00308889       0.00436914      -0.00535029
Te       5.26952464       1.67478893       9.12708439       0.00308891      -0.00436744       0.00535040
