9
Lattice="5.986127054595858 -2.9584454127924466e-08 3.4560919965994756 1.9953755852518884 5.643774697268388 3.4560921208236817 -6.025671029637927e-08 1.0953506142517605e-07 6.912184097566631" Properties=species:S:1:pos:R:3:forces:R:3 energy=-38.120697021484375 free_energy=-38.120697021484375 stress="-8.138805424096063e-05 4.065888514759308e-09 1.602990629123724e-09 4.065888514759308e-09 -8.137668919516727e-05 -9.635177988798205e-09 1.602990629123724e-09 -9.635177988798205e-09 -8.148261258611456e-05" pbc="T T T"
Sc       1.99537563       1.41094347       3.45609169      -0.00000160      -0.00000063      -0.00000044
Sc       5.98612687       4.23283127      10.36827678      -0.00000102       0.00000080      -0.00000002
B       -0.00000012       0.00000005      -0.00000001       0.00000055       0.00000024       0.00000070
Te       1.91842227       1.35652937       6.91218419      -0.00092387      -0.00065559       0.00000143
Te       6.06308039       4.28724532       6.91218405       0.00092378       0.00065503       0.00000238
Te       5.02691579       1.35652956       5.11749457       0.00046481      -0.00065276      -0.00080067
Te       2.95458668       4.28724531       8.70687346      -0.00046338       0.00065404       0.00079936
Te       2.95458695       4.28724538       5.11749451      -0.00046116       0.00065467      -0.00080121
Te       5.02691586       1.35652939       8.70687367       0.00046201      -0.00065556       0.00079861
