9
Lattice="5.687254734005244 -7.238053774041428e-08 3.283538160626092 1.8957514874191037 5.36199534756115 3.283538199322902 -1.483982805643496e-08 3.690040851436211e-08 6.567076346955513" Properties=species:S:1:pos:R:3:forces:R:3 energy=-42.48830032348633 free_energy=-42.48830032348633 stress="0.00011820739018730819 -5.941807046383474e-08 -4.6487438898346056e-10 -5.941807046383474e-08 0.0001182839841931127 -1.3326058034834887e-09 -4.6487438898346056e-10 -1.3326058034834887e-09 0.00011830199946416542" pbc="T T T"
Sc       1.89575112       1.34050014       3.28353818      -0.00000250       0.00000875      -0.00000031
Sc       5.68725402       4.02149598       9.85061406      -0.00000570      -0.00000356      -0.00000465
Bi      -0.00000005       0.00000006       0.00000011      -0.00000231      -0.00000027      -0.00000100
S        2.01740353       1.42651920       6.56707640      -0.00009739      -0.00006993      -0.00000024
S        5.56560315       3.93547541       6.56707628       0.00010300       0.00006776       0.00000111
S        4.67855313       1.42651983       5.03066107       0.00005454      -0.00007282      -0.00009088
S        2.90445361       3.93547514       8.10349211      -0.00005017       0.00006972       0.00009413
S        2.90445308       3.93547543       5.03066099      -0.00005408       0.00007094      -0.00009094
S        4.67855315       1.42652012       8.10349164       0.00005463      -0.00007039       0.00009318
