9
Lattice="5.181174454849378 4.483662382960682e-08 2.9913524559487454 1.7270581382498034 4.884858348384165 2.991352552318345 -8.326205324723615e-08 5.915301573123392e-08 5.982705056111605" Properties=species:S:1:pos:R:3:forces:R:3 energy=-47.83973693847656 free_energy=-47.83973693847656 stress="-0.00017738572205416858 -2.1904352109913816e-08 3.209365573297873e-08 -2.1904352109913816e-08 -0.00017740977637004107 4.835568390149092e-08 3.209365573297873e-08 4.835568390149092e-08 -0.0001774325646692887" pbc="T T T"
Sc       1.72705850       1.22121402       2.99135245       0.00000231      -0.00000258      -0.00000087
Sc       5.18117389       3.66364427       8.97405837      -0.00000388       0.00000200       0.00000324
B        0.00000013       0.00000012      -0.00000005      -0.00000001      -0.00000024       0.00000118
S        1.63646072       1.15715243       5.98270490       0.00258675       0.00182873      -0.00000237
S        5.27177179       3.72770629       5.98270445      -0.00258785      -0.00182870      -0.00000072
S        4.36294417       1.15715250       4.40856881      -0.00129339       0.00182843       0.00224045
S        2.54528860       3.72770573       7.55684117       0.00129519      -0.00182813      -0.00224045
S        2.54528853       3.72770591       4.40856879       0.00129387      -0.00182840       0.00224069
S        4.36294376       1.15715269       7.55684130      -0.00129275       0.00182915      -0.00224093
