9
Lattice="4.0412507566354465 -1.7067966812461771e-07 2.333216989744597 1.3470834627482426 3.8101272822538084 2.3332169237163 -3.867543080499345e-08 -1.0821542497954716e-07 4.6664340464769865" Properties=species:S:1:pos:R:3:forces:R:3 energy=-66.2241439819336 free_energy=-66.2241439819336 stress="9.133260027738288e-05 -1.0707034903134627e-07 -2.269622001449534e-08 -1.0707034903134627e-07 9.103819320444018e-05 -4.3117616144172644e-08 -2.269622001449534e-08 -4.3117616144172644e-08 9.10028102225624e-05" pbc="T T T"
Sc       1.34708380       0.95253186       2.33321678      -0.00000041      -0.00000116      -0.00000062
Sc       4.04125063       2.85759523       6.99965037       0.00000036       0.00000052       0.00000038
B        0.00000007      -0.00000017      -0.00000030      -0.00000284      -0.00000216       0.00000268
O        1.29163805       0.91332538       4.66643425       0.00094390       0.00066882      -0.00000081
O        4.09669579       2.89680153       4.66643398      -0.00093305      -0.00066209       0.00000334
O        3.39543164       0.91332557       3.45180843      -0.00046927       0.00066191       0.00081301
O        1.99290222       2.89680108       5.88105981       0.00046760      -0.00066417      -0.00081193
O        1.99290247       2.89680133       3.45180847       0.00046468      -0.00066650       0.00080943
O        3.39543195       0.91332609       5.88106000      -0.00047195       0.00066489      -0.00081682
