9
Lattice="5.970668347994153 1.0212586615296074e-07 3.4471668418124692 1.990222884779323 5.629200060272324 3.4471668317156388 1.1588040491334821e-07 6.957378384943996e-08 6.894333482914221" Properties=species:S:1:pos:R:3:forces:R:3 energy=-38.35752487182617 free_energy=-38.35752487182617 stress="0.0001085571275325492 9.834655401164127e-08 -2.74871574390545e-08 9.834655401164127e-08 0.00010845525684999302 -3.9907515514414627e-08 -2.74871574390545e-08 -3.9907515514414627e-08 0.00010848919191630557" pbc="T T T"
Sc       1.99022381       1.40730047       3.44716553       0.00000706       0.00000512      -0.00001142
Sc       5.97066870       4.22189815      10.34150296       0.00000282      -0.00001684       0.00002448
Bi      -0.00000010       0.00000053      -0.00000019      -0.00000020      -0.00000334       0.00000213
Se       2.18161947       1.54263873       6.89433423      -0.00260083      -0.00182797       0.00000869
Se       5.77927165       4.08656177       6.89433261       0.00260105       0.00183780      -0.00001483
Se       4.87985855       1.54263905       5.33650379       0.00129694      -0.00182504      -0.00225466
Se       3.08103221       4.08656205       8.45216244      -0.00130400       0.00183059       0.00224673
Se       3.08103283       4.08656222       5.33650466      -0.00129488       0.00183456      -0.00224937
Se       4.87985831       1.54263791       8.45216265       0.00129210      -0.00183493       0.00224812
