9
Lattice="5.999002353161704 -1.0488985971777823e-08 3.4635256025961945 1.9996674829934555 5.655913522132616 3.4635255301468177 3.281274186127e-08 -6.552987408871753e-08 6.927051148358978" Properties=species:S:1:pos:R:3:forces:R:3 energy=-41.525962829589844 free_energy=-41.525962829589844 stress="-0.00010982529784087092 2.456471470679844e-08 9.301768244540654e-09 2.456471470679844e-08 -0.00010973106691380963 -2.9568161252768732e-09 9.301768244540654e-09 -2.9568161252768732e-09 -0.00010976010526064783" pbc="T T T"
Sc       1.99966782       1.41397843       3.46352544       0.00000182      -0.00000091       0.00000044
Sc       5.99900206       4.24193569      10.39057616       0.00000019       0.00000355      -0.00000213
Co      -0.00000007      -0.00000014       0.00000018      -0.00000151       0.00000150      -0.00000061
Te       1.99941113       1.41379655       6.92705114       0.00836450       0.00591270       0.00000004
Te       5.99925909       4.24211660       6.92705137      -0.00836522      -0.00591493       0.00000010
Te       4.99929671       1.41379658       5.19506639      -0.00418266       0.00591467       0.00724494
Te       2.99937319       4.24211626       8.65903610       0.00418257      -0.00591350      -0.00724457
Te       2.99937290       4.24211668       5.19506621       0.00418375      -0.00591676       0.00724417
Te       4.99929663       1.41379711       8.65903610      -0.00418357       0.00591376      -0.00724251
