9
Lattice="6.078110221622909 8.536849215092413e-08 3.5091985828822816 2.026036809719561 5.7304973244831094 3.5091986024675488 9.533505446041342e-09 3.072821483478525e-08 7.01839714925205" Properties=species:S:1:pos:R:3:forces:R:3 energy=-43.470088958740234 free_energy=-43.470088958740234 stress="-8.27818366815336e-05 1.0472675171513401e-08 -1.4020767880040808e-09 1.0472675171513401e-08 -8.278717723442242e-05 1.1074648753606198e-08 -1.4020767880040808e-09 1.1074648753606198e-08 -8.279192843474448e-05" pbc="T T T"
Sc       2.02603650       1.43262399       3.50919859      -0.00000134      -0.00000267       0.00000027
Sc       6.07811033       4.29787351      10.52759554       0.00000032       0.00000231      -0.00000079
Cr       0.00000009       0.00000004       0.00000017       0.00000042      -0.00000091      -0.00000494
Te       2.07550003       1.46760006       7.01839724      -0.00242965      -0.00171898      -0.00000050
Te       6.02864684       4.26289734       7.01839749       0.00243017       0.00171895      -0.00000080
Te       5.04036041       1.46759996       5.30663403       0.00121320      -0.00171452      -0.00210178
Te       3.06378696       4.26289736       8.73016017      -0.00121643       0.00172100       0.00210627
Te       3.06378662       4.26289736       5.30663411      -0.00121294       0.00171511      -0.00210198
Te       5.04036034       1.46760012       8.73016000       0.00121629      -0.00172028       0.00210419
