9
Lattice="5.264031294490029 4.2373937220168946e-08 3.0391898543617146 1.7546771463086828 4.962976254032698 3.039189840167866 2.792155600704029e-08 2.3596995532526196e-09 6.078379660361885" Properties=species:S:1:pos:R:3:forces:R:3 energy=-52.29063415527344 free_energy=-52.29063415527344 stress="-3.189556809957139e-05 1.5380210438564745e-09 1.3808318044539192e-08 1.5380210438564745e-09 -3.187096808687784e-05 7.625611253558873e-09 1.3808318044539192e-08 7.625611253558873e-09 -3.180921703460626e-05" pbc="T T T"
Sc       1.75467700       1.24074410       3.03918895      -0.00000155      -0.00000068      -0.00000727
Sc       5.26403168       3.72223168       9.11757120       0.00000283      -0.00000384       0.00001042
Cr       0.00000025       0.00000010       0.00000001      -0.00000476      -0.00000437       0.00000208
S        1.80839510       1.27872861       6.07837954      -0.00002989      -0.00001854       0.00000034
S        5.21031287       3.68424781       6.07837887       0.00003684       0.00002694      -0.00000370
S        4.35983411       1.27872901       4.60530633       0.00001740      -0.00002223      -0.00002813
S        2.65887439       3.68424724       7.55145315      -0.00001729       0.00001830       0.00002852
S        2.65887501       3.68424812       4.60530641      -0.00001752       0.00002536      -0.00002825
S        4.35983352       1.27872854       7.55145296       0.00001420      -0.00002098       0.00002557
