9
Lattice="5.169442085009957 4.071764469633829e-08 2.984578745651339 1.723147368324626 4.87379697477341 2.984578800616807 -2.703349237825949e-08 4.820309006088998e-08 5.969157538126058" Properties=species:S:1:pos:R:3:forces:R:3 energy=-46.7928581237793 free_energy=-46.7928581237793 stress="-8.82674939930439e-05 3.0371039017040857e-09 -2.5850137586047595e-09 3.0371039017040857e-09 -8.819084905553609e-05 1.621584999611514e-08 -2.5850137586047595e-09 1.621584999611514e-08 -8.825364784570411e-05" pbc="T T T"
Sc       1.72314693       1.21844938       2.98457871      -0.00000194      -0.00000015      -0.00000039
Sc       5.16944184       3.65534776       8.95373652      -0.00000104       0.00000006       0.00000032
C       -0.00000186       0.00000031      -0.00000022      -0.00003102       0.00000559      -0.00000060
S        1.61549885       1.14233035       5.96915766       0.00077303       0.00054614       0.00000100
S        5.27709185       3.73146751       5.96915741      -0.00075132      -0.00053203       0.00000065
S        4.36169321       1.14232969       4.38364098      -0.00037818       0.00053191       0.00065389
S        2.53089677       3.73146699       7.55467334       0.00038479      -0.00054398      -0.00066671
S        2.53089684       3.73146676       4.38364178       0.00038359      -0.00054356       0.00066605
S        4.36169316       1.14232961       7.55467414      -0.00037797       0.00053599      -0.00065413
