9
Lattice="4.356666543242605 7.285157501228434e-08 2.515322490160539 1.4522221936048865 4.107504639195553 2.5153225874344494 -1.1119493802425669e-07 4.050902345571293e-08 5.030645172916362" Properties=species:S:1:pos:R:3:forces:R:3 energy=-65.22471618652344 free_energy=-65.22471618652344 stress="-5.103141302242875e-05 1.8817356561839915e-08 -3.534077919198353e-08 1.8817356561839915e-08 -5.102498107589781e-05 1.3627901296331402e-07 -3.534077919198353e-08 1.3627901296331402e-07 -5.110974234412424e-05" pbc="T T T"
Sc       1.45222080       1.02687632       2.51532232      -0.00000904      -0.00000039      -0.00000144
Sc       4.35666603       3.08062849       7.54596684      -0.00000411      -0.00000019      -0.00000970
Cr       0.00000024       0.00000012      -0.00000013      -0.00000300      -0.00000752      -0.00000096
O        1.47159948       1.04057775       5.03064514      -0.00099301      -0.00070304       0.00000357
O        4.33728957       3.06692682       5.03064584       0.00100031       0.00070246       0.00000379
O        3.62086682       1.04057796       3.78976473       0.00050299      -0.00070268      -0.00085960
O        2.18802224       3.06692674       6.27152556      -0.00049637       0.00070482       0.00086857
O        2.18802193       3.06692711       3.78976510      -0.00049631       0.00070582      -0.00085932
O        3.62086744       1.04057764       6.27152543       0.00049883      -0.00070012       0.00085470
