9
Lattice="5.533021709597954 1.6622541140233128e-07 3.19449145807011 1.844340688368009 5.216583036057732 3.194491524263588 -4.2470977557227036e-08 5.103863275683659e-08 6.38898298970209" Properties=species:S:1:pos:R:3:forces:R:3 energy=-44.86537551879883 free_energy=-44.86537551879883 stress="0.0001901404611999169 3.7312368306174903e-08 -5.336712405323851e-09 3.7312368306174903e-08 0.0001901001378428191 1.7508380523167943e-08 -5.336712405323851e-09 1.7508380523167943e-08 0.00019009981770068407" pbc="T T T"
Sc       1.84434048       1.30414573       3.19449178      -0.00000014       0.00000070      -0.00000026
Sc       5.53302169       3.91243904       9.58347602      -0.00000216       0.00000886       0.00001016
Co       0.00000005      -0.00000001      -0.00000056      -0.00000067      -0.00000093       0.00000331
Se       1.86600686       1.31946612       6.38898257       0.00125903       0.00088629      -0.00000231
Se       5.51135524       3.89711740       6.38898237      -0.00125772      -0.00088634      -0.00000357
Se       4.60001883       1.31946584       4.81050080      -0.00062877       0.00088872       0.00109065
Se       2.77734370       3.89711673       7.96746565       0.00063032      -0.00089264      -0.00109072
Se       2.77734406       3.89711705       4.81050020       0.00063080      -0.00089115       0.00108850
Se       4.60001841       1.31946516       7.96746496      -0.00063065       0.00088647      -0.00109600
