9
Lattice="5.560910695545453 7.813375645549158e-08 3.210593375066934 1.853636956706173 5.2428769849400565 3.2105934018690037 1.1155722335367399e-08 4.071399224092167e-08 6.421186730811617" Properties=species:S:1:pos:R:3:forces:R:3 energy=-47.726707458496094 free_energy=-47.726707458496094 stress="-0.0003062027972191572 -1.531323334802437e-08 -1.6919323719832846e-09 -1.531323334802437e-08 -0.0003062232572119683 -7.551023806229296e-09 -1.6919323719832846e-09 -7.551023806229296e-09 -0.00030622852500528097" pbc="T T T"
Sc       1.85363694       1.31071956       3.21059330       0.00000159       0.00000186       0.00000062
Sc       5.56091077       3.93215766       9.63177960      -0.00000076      -0.00000061      -0.00000333
Cr      -0.00000001      -0.00000000      -0.00000006      -0.00000032      -0.00000050      -0.00000068
Se       1.90596288       1.34771921       6.42118675      -0.00121085      -0.00085505      -0.00000005
Se       5.50858477       3.89515791       6.42118713       0.00121009       0.00085530       0.00000108
Se       4.60792934       1.34771934       4.86120578       0.00060551      -0.00085481      -0.00104678
Se       2.80661848       3.89515785       7.98116804      -0.00060459       0.00085609       0.00104849
Se       2.80661823       3.89515755       4.86120548      -0.00060637       0.00085355      -0.00104737
Se       4.60792921       1.34771932       7.98116807       0.00060572      -0.00085578       0.00104816
