9
Lattice="4.037558232050343 2.3799106241577218e-09 2.331085204595702 1.3458527178203912 3.806646769010292 2.331085253855526 5.2281636426131014e-08 9.729945300772963e-08 4.66217031863696" Properties=species:S:1:pos:R:3:forces:R:3 energy=-65.8487319946289 free_energy=-65.8487319946289 stress="0.0011945758014917374 -2.1474113154340557e-08 9.384935495404534e-09 -2.1474113154340557e-08 0.0011945872101932764 -7.930969658787035e-09 9.384935495404534e-09 -7.930969658787035e-09 0.001193864969536662" pbc="T T T"
Sc       1.34585268       0.95166184       2.33108528       0.00000123      -0.00000022      -0.00000018
Sc       4.03755845       2.85498513       6.99325550      -0.00000088      -0.00000108      -0.00000058
C        0.00000026       0.00000024      -0.00000037       0.00000281       0.00000642      -0.00000236
O        1.27361077       0.90057884       4.66217053       0.00378919       0.00268102      -0.00000116
O        4.10979999       2.90606790       4.66217038      -0.00379539      -0.00268459      -0.00000042
O        3.40075290       0.90057891       3.43406419      -0.00189692       0.00268376       0.00329602
O        1.98265814       2.90606790       5.89027660       0.00189406      -0.00267994      -0.00328970
O        1.98265803       2.90606788       3.43406420       0.00189865      -0.00268400       0.00329256
O        3.40075279       0.90057877       5.89027679      -0.00189424       0.00268066      -0.00329208
