9
Lattice="5.599477669699732 -6.259703222003282e-08 3.2328599972034993 1.8664924998708976 5.279238193149125 3.2328599931827586 -7.588436275094725e-09 -1.0290200920692675e-08 6.465720007550547" Properties=species:S:1:pos:R:3:forces:R:3 energy=-46.492549896240234 free_energy=-46.492549896240234 stress="-4.4929249270353466e-05 2.1430258456689444e-08 2.4120879515976412e-08 2.1430258456689444e-08 -4.493795131566003e-05 -4.4398369425380224e-08 2.4120879515976412e-08 -4.4398369425380224e-08 -4.497256668400951e-05" pbc="T T T"
Sc       1.86649316       1.31980994       3.23285985       0.00000583       0.00000340      -0.00000338
Sc       5.59947683       3.95942899       9.69858130      -0.00000771       0.00000299       0.00001136
Fe       0.00000005      -0.00000007       0.00000045      -0.00000184       0.00000184      -0.00000520
Se       1.85912448       1.31459940       6.46572023       0.00196353       0.00138777      -0.00000084
Se       5.60684601       3.96463822       6.46571950      -0.00196287      -0.00139132      -0.00000308
Se       4.66991503       1.31459959       4.84290853      -0.00098544       0.00139475       0.00170183
Se       2.79605495       3.96463852       8.08853102       0.00098337      -0.00139177      -0.00170293
Se       2.79605545       3.96463885       4.84290851       0.00098872      -0.00139084       0.00170317
Se       4.66991470       1.31459909       8.08853069      -0.00098336       0.00138301      -0.00170118
