9
Lattice="5.207597448723245 -7.612234110993825e-08 3.0066079433887873 1.735865782806892 4.9097696261945245 3.0066078769913265 2.080702104612742e-08 -6.660726722925841e-08 6.013215850738765" Properties=species:S:1:pos:R:3:forces:R:3 energy=-50.95402145385742 free_energy=-50.95402145385742 stress="-0.0002119133569067344 3.58290250801474e-08 3.647557633712495e-08 3.58290250801474e-08 -0.00021191997802816331 -4.485145055355133e-08 3.647557633712495e-08 -4.485145055355133e-08 -0.0002120338613167405" pbc="T T T"
Sc       1.73586565       1.22744214       3.00660857      -0.00000238      -0.00000022       0.00000402
Sc       5.20759718       3.68232646       9.01982458      -0.00000066      -0.00000521       0.00000621
Fe       0.00000022      -0.00000003      -0.00000026      -0.00000111       0.00000052       0.00000299
S        1.75682810       1.24226503       6.01321602       0.00014430       0.00010175       0.00000044
S        5.18663484       3.66750466       6.01321554      -0.00014269      -0.00009888      -0.00000169
S        4.32918360       1.24226541       4.52806533      -0.00007197       0.00010297       0.00012362
S        2.61427961       3.66750491       7.49836590       0.00007358      -0.00010353      -0.00013024
S        2.61427994       3.66750406       4.52806520       0.00007087      -0.00010082       0.00012159
S        4.32918385       1.24226518       7.49836582      -0.00006995       0.00010318      -0.00012642
