9
Lattice="4.364607760906577 -9.41343951601662e-08 2.51990758594367 1.454869204476251 4.114991505398648 2.5199075173692513 1.2730676814267114e-09 -8.30859969067628e-08 5.039815169682364" Properties=species:S:1:pos:R:3:forces:R:3 energy=-61.953189849853516 free_energy=-61.953189849853516 stress="-0.00014489256136585027 -3.928217040538584e-08 1.8440880822367944e-08 -3.928217040538584e-08 -0.00014472795010078698 1.8225410514105533e-08 1.8440880822367944e-08 1.8225410514105533e-08 -0.00014458908117376268" pbc="T T T"
Sc       1.45486944       1.02874760       2.51990754       0.00000168      -0.00000194      -0.00000463
Sc       4.36460852       3.08624395       7.55972230       0.00000683       0.00000497       0.00000153
Fe      -0.00000010      -0.00000017       0.00000035      -0.00000171       0.00000067      -0.00000409
O        1.46978412       1.03929427       5.03981585      -0.00097597      -0.00069179       0.00000359
O        4.34969281       3.07569710       5.03981465       0.00097348       0.00068717      -0.00000324
O        3.62971546       1.03929407       3.79277853       0.00048820      -0.00069466      -0.00084704
O        2.18976156       3.07569730       6.28685160      -0.00048935       0.00069927       0.00085188
O        2.18976080       3.07569679       3.79277850      -0.00049247       0.00068821      -0.00084876
O        3.62971517       1.03929424       6.28685166       0.00048929      -0.00069153       0.00085079
