9
Lattice="5.345112744436966 -1.0126778098445488e-07 3.086002299652719 1.7817041952760013 5.039420448469937 3.086002225856075 -2.958669749486696e-08 -1.1130302641051701e-07 6.172004650551112" Properties=species:S:1:pos:R:3:forces:R:3 energy=-44.098968505859375 free_energy=-44.098968505859375 stress="-5.268618224363308e-06 -4.983052548368505e-08 2.9076281382600655e-09 -4.983052548368505e-08 -5.245673946774332e-06 -3.7682652553883145e-09 2.9076281382600655e-09 -3.7682652553883145e-09 -5.164486083231168e-06" pbc="T T T"
Sc       1.78170434       1.25985476       3.08600232       0.00000181      -0.00000116      -0.00000102
Sc       5.34511240       3.77956455       9.25800834      -0.00000113      -0.00000409       0.00000947
Ga       0.00000003       0.00000001       0.00000013       0.00000311      -0.00000237      -0.00000052
S        1.85026170       1.30833285       6.17200493      -0.00013489      -0.00009528       0.00000022
S        5.27655515       3.73108796       6.17200389       0.00013193       0.00009310      -0.00000249
S        4.41998200       1.30833328       4.68837578       0.00006889      -0.00009237      -0.00011897
S        2.70683514       3.73108769       7.65563250      -0.00006878       0.00009955       0.00012010
S        2.70683552       3.73108754       4.68837588      -0.00006764       0.00009774      -0.00012273
S        4.41998137       1.30833235       7.65563281       0.00006670      -0.00009502       0.00011611
