9
Lattice="4.3348964839362845 -2.0983105265431469e-07 2.502753443590897 1.4449653588191893 4.086979321616572 2.502753336196172 -1.1193287123330772e-07 -2.1067962822515706e-07 5.005507081055224" Properties=species:S:1:pos:R:3:forces:R:3 energy=-58.46923065185547 free_energy=-58.46923065185547 stress="-0.0002294720761710778 1.0710285636150729e-07 -3.329151709863254e-08 1.0710285636150729e-07 -0.00022962660295888782 -6.805243657481697e-08 -3.329151709863254e-08 -6.805243657481697e-08 -0.00022923377400729805" pbc="T T T"
Sc       1.44496557       1.02174547       2.50275275       0.00000268       0.00000540      -0.00000667
Sc       4.33489486       3.06523467       7.50826016      -0.00001295       0.00000360      -0.00000144
Ga      -0.00000009      -0.00000005       0.00000001      -0.00000171       0.00000003      -0.00000250
O        1.50976293       1.06756284       5.00550717      -0.00226712      -0.00161016       0.00000204
O        4.27009937       3.01941560       5.00550659       0.00227463       0.00160468      -0.00000120
O        3.58001513       1.06756279       3.81024656       0.00113550      -0.00160554      -0.00196338
O        2.19984724       3.01941512       6.20076792      -0.00113341       0.00160429       0.00197321
O        2.19984725       3.01941564       3.81024604      -0.00113162       0.00160462      -0.00197166
O        3.58001461       1.06756342       6.20076794       0.00113389      -0.00160712       0.00197113
