9
Lattice="6.213252908112694 2.442429666869152e-09 3.5872232061678853 2.0710843218372372 5.857910906559733 3.5872231770170284 2.5443136111104205e-08 -1.771136720939545e-08 7.174446368266942" Properties=species:S:1:pos:R:3:forces:R:3 energy=-36.99891662597656 free_energy=-36.99891662597656 stress="-0.00025774550158530474 -8.804891260538739e-10 2.0938442091278375e-09 -8.804891260538739e-10 -0.0002577430277597159 -2.2238042518551993e-09 2.0938442091278375e-09 -2.2238042518551993e-09 -0.0002577337727416307" pbc="T T T"
Sc       2.07108434       1.46447698       3.58722310       0.00000016      -0.00000109       0.00000008
Sc       6.21325286       4.39343342      10.76166946      -0.00000033       0.00000104      -0.00000148
Ge       0.00000010       0.00000007       0.00000023       0.00000092      -0.00000138      -0.00000399
Te       2.18052338       1.54186264       7.17444638      -0.00371777      -0.00263052      -0.00000044
Te       6.10381390       4.31604829       7.17444642       0.00371882       0.00262887       0.00000104
Te       5.12299118       1.54186263       5.47561185       0.00185832      -0.00262938      -0.00321800
Te       3.16134586       4.31604822       8.87328082      -0.00186031       0.00263292       0.00322209
Te       3.16134614       4.31604828       5.47561168      -0.00185923       0.00262964      -0.00322019
Te       5.12299126       1.54186303       8.87328107       0.00185941      -0.00263008       0.00322083
