9
Lattice="5.7108604750643766 2.0104639035786303e-08 3.2971669136192716 1.9036201731625766 5.384250959088749 3.2971669208021357 -3.0286940482057064e-08 -1.2618870969353692e-08 6.594333879697019" Properties=species:S:1:pos:R:3:forces:R:3 energy=-41.0820426940918 free_energy=-41.0820426940918 stress="-5.541128120967187e-05 -1.0469870304063988e-08 1.0196194999423369e-08 -1.0469870304063988e-08 -5.544917075894773e-05 -2.8203706037288612e-08 1.0196194999423369e-08 -2.8203706037288612e-08 -5.543148290598765e-05" pbc="T T T"
Sc       1.90361918       1.34606294       3.29716687      -0.00000696       0.00000389      -0.00000126
Sc       5.71085983       4.03818689       9.89150027      -0.00000510      -0.00001050      -0.00000207
Ge      -0.00000012       0.00000016      -0.00000021       0.00000098      -0.00000354       0.00000365
Se       1.96500352       1.38946843       6.59433356       0.00026934       0.00019632      -0.00000046
Se       5.64947677       3.99478297       6.59433425      -0.00026962      -0.00019540       0.00000150
Se       4.72835896       1.38946797       4.99891014      -0.00013306       0.00019507       0.00023629
Se       2.88612278       3.99478319       8.18975791       0.00014048      -0.00019336      -0.00023387
Se       2.88612263       3.99478343       4.99891040       0.00013747      -0.00018641       0.00023325
Se       4.72835891       1.38946791       8.18975768      -0.00013360       0.00019389      -0.00023700
