9
Lattice="4.3348969189383295 -8.92859976031058e-08 2.5027536982065564 1.444965607655168 4.086979681211756 2.502753607813057 -2.620827791711772e-08 -1.2924100233091528e-07 5.00550744180715" Properties=species:S:1:pos:R:3:forces:R:3 energy=-58.46923065185547 free_energy=-58.46923065185547 stress="-0.0002296703023603186 1.4587699581625202e-07 -3.9740942980870386e-08 1.4587699581625202e-07 -0.0002296340826433152 7.027878279330935e-09 -3.9740942980870386e-08 7.027878279330935e-09 -0.0002291658311150968" pbc="T T T"
Sc       1.44496714       1.02174592       2.50275379       0.00001351       0.00000674       0.00000022
Sc       4.33489631       3.06523400       7.50826130      -0.00000667      -0.00000332       0.00000152
Ga       0.00000009      -0.00000009       0.00000008      -0.00000223       0.00000291       0.00000130
O        1.50976273       1.06756362       5.00550727      -0.00227767      -0.00160685       0.00000079
O        4.27009973       3.01941586       5.00550681       0.00227720       0.00160775      -0.00000151
O        3.58001472       1.06756363       3.81024627       0.00113392      -0.00160989      -0.00197625
O        2.19984748       3.01941581       6.20076830      -0.00113380       0.00160572       0.00197232
O        2.19984712       3.01941557       3.81024631      -0.00113827       0.00160635      -0.00197577
O        3.58001472       1.06756360       6.20076859       0.00113392      -0.00160977       0.00197595
