9
Lattice="5.433319739940876 -3.8699113019560096e-08 3.136928448147839 1.8111065319228143 5.122582856941631 3.136928468190488 -4.440148076269975e-08 -6.849499157162746e-09 6.273856973201263" Properties=species:S:1:pos:R:3:forces:R:3 energy=-45.41917419433594 free_energy=-45.41917419433594 stress="-7.78763642301783e-05 -1.9154171582158597e-09 -1.5467318092987625e-08 -1.9154171582158597e-09 -7.779293082421646e-05 2.4466455528227016e-08 -1.5467318092987625e-08 2.4466455528227016e-08 -7.779661245876923e-05" pbc="T T T"
Sc       1.81110567       1.28064521       3.13692861      -0.00000670      -0.00000471       0.00000061
Sc       5.43331956       3.84193722       9.41078592       0.00000257       0.00000307       0.00000407
Ge      -0.00000007      -0.00000009       0.00000019       0.00000230      -0.00000209      -0.00000265
S        1.85660140       1.31281505       6.27385710      -0.00259101      -0.00183615       0.00000112
S        5.38782515       3.80976795       6.27385670       0.00258982       0.00183356       0.00000071
S        4.50501937       1.31281564       4.74479185       0.00129804      -0.00183091      -0.00224411
S        2.73940686       3.80976777       7.80292137      -0.00129631       0.00183481       0.00224555
S        2.73940713       3.80976755       4.74479229      -0.00129765       0.00183547      -0.00224614
S        4.50501971       1.31281490       7.80292152       0.00129926      -0.00183302       0.00224072
