9
Lattice="6.213431159555555 -1.9208695119021528e-08 3.5873261501266684 2.0711437260010532 5.858078969341248 3.5873261081082872 9.262563705793239e-09 -4.491219853846367e-08 7.174652284210107" Properties=species:S:1:pos:R:3:forces:R:3 energy=-35.979042053222656 free_energy=-35.979042053222656 stress="-0.00023720409080851823 9.779209442228876e-09 4.406000009282707e-09 9.779209442228876e-09 -0.00023722631158307195 -4.492850980142293e-09 4.406000009282707e-09 -4.492850980142293e-09 -0.00023721849720459431" pbc="T T T"
Sc       2.07114340       1.46451947       3.58732668      -0.00000139      -0.00000173       0.00000166
Sc       6.21343133       4.39355908      10.76197804       0.00000122      -0.00000072      -0.00000175
Ga       0.00000006       0.00000015       0.00000010      -0.00000016      -0.00000087      -0.00000358
Te       2.17859525       1.54049959       7.17465234      -0.00387768      -0.00274216      -0.00000078
Te       6.10597961       4.31757916       7.17465252       0.00387824       0.00274277      -0.00000025
Te       5.12413344       1.54049928       5.47404497       0.00193685      -0.00274059      -0.00335698
Te       3.16044167       4.31757948       8.87525925      -0.00193944       0.00274467       0.00335965
Te       3.16044109       4.31757981       5.47404488      -0.00193821       0.00274168      -0.00335626
Te       5.12413365       1.54049958       8.87525936       0.00194071      -0.00274310       0.00335833
