9
Lattice="5.649371214286932 -1.437508205280822e-07 3.2616659460339763 1.8831236202502624 5.326277976119554 3.2616659154040635 -6.349662996296372e-08 -8.241273216329178e-08 6.52333200204733" Properties=species:S:1:pos:R:3:forces:R:3 energy=-39.81720733642578 free_energy=-39.81720733642578 stress="-5.298509495332837e-05 -3.924058944448916e-08 2.529228737557787e-08 -3.924058944448916e-08 -5.298651376506314e-05 -4.4117967945567216e-08 2.529228737557787e-08 -4.4117967945567216e-08 -5.2974046411691234e-05" pbc="T T T"
Sc       1.88312347       1.33156878       3.26166669      -0.00000203      -0.00000287       0.00000598
Sc       5.64937181       3.99470807       9.78499654       0.00000428      -0.00000306      -0.00000664
Ga       0.00000019      -0.00000021       0.00000022      -0.00000099      -0.00000139      -0.00000441
Se       1.97544085       1.39684811       6.52333204      -0.00014655      -0.00009970      -0.00000025
Se       5.55705292       3.92943002       6.52333219       0.00014436       0.00010541       0.00000122
Se       4.66165030       1.39684779       4.97244838       0.00007091      -0.00010239      -0.00012696
Se       2.87084496       3.92943036       8.07421520      -0.00007240       0.00010748       0.00012629
Se       2.87084379       3.92942970       4.97244877      -0.00007584       0.00010183      -0.00012460
Se       4.66165081       1.39684833       8.07421537       0.00007800      -0.00010510       0.00012909
