9
Lattice="4.350201212454871 1.1345519252466458e-07 2.5115897482907257 1.450067158445246 4.101409327611482 2.511589781787945 -1.1117538274872118e-08 3.316425174879776e-08 5.0231795158376045" Properties=species:S:1:pos:R:3:forces:R:3 energy=-62.29386520385742 free_energy=-62.29386520385742 stress="-0.0002553274389356375 -3.30843996643182e-09 3.658871250422635e-08 -3.30843996643182e-09 -0.00025556632317602634 2.8277618469019217e-08 3.658871250422635e-08 2.8277618469019217e-08 -0.0002552529040258378" pbc="T T T"
Sc       1.45006726       1.02535221       2.51159010       0.00000339       0.00000063       0.00000271
Sc       4.35020169       3.07605713       7.53476888       0.00000634       0.00000069      -0.00000346
Ge       0.00000007       0.00000014      -0.00000023       0.00000175      -0.00000524       0.00000431
O        1.49487253       1.05703489       5.02317935      -0.00414860      -0.00293553      -0.00000058
O        4.30539565       3.04437481       5.02317995       0.00414705       0.00293589       0.00000276
O        3.60276486       1.05703477       3.80618741       0.00207281      -0.00293517      -0.00359303
O        2.19750344       3.04437479       6.24017161      -0.00207633       0.00293678       0.00359243
O        2.19750318       3.04437460       3.80618735      -0.00207508       0.00293463      -0.00359380
O        3.60276487       1.05703441       6.24017168       0.00206929      -0.00293261       0.00358850
