9
Lattice="5.649371506836881 -8.193051586527452e-08 3.2616661592373557 1.8831237640171856 5.326278309158442 3.2616661494517443 -1.7697779469419995e-08 -2.449907069909496e-08 6.5233323491281165" Properties=species:S:1:pos:R:3:forces:R:3 energy=-39.81720733642578 free_energy=-39.81720733642578 stress="-5.2959021559217945e-05 2.4285851552008353e-08 -4.037493006592285e-09 2.4285851552008353e-08 -5.295027222018689e-05 -1.5157299415591297e-08 -4.037493006592285e-09 -1.5157299415591297e-08 -5.298683754517697e-05" pbc="T T T"
Sc       1.88312323       1.33156916       3.26166644      -0.00000178      -0.00000266       0.00000280
Sc       5.64937211       3.99470892       9.78499931       0.00000356       0.00000100       0.00000534
Ga       0.00000012       0.00000002       0.00000037      -0.00000311      -0.00000197       0.00000411
Se       1.97544108       1.39684801       6.52333230      -0.00013793      -0.00009775       0.00000001
Se       5.55705363       3.92943014       6.52333177       0.00014375       0.00010237      -0.00000201
Se       4.66165078       1.39684818       4.97244846       0.00007037      -0.00010197      -0.00012232
Se       2.87084444       3.92943047       8.07421561      -0.00006980       0.00009780       0.00011835
Se       2.87084466       3.92943012       4.97244876      -0.00007364       0.00010242      -0.00012200
Se       4.66165098       1.39684769       8.07421565       0.00006865      -0.00009923       0.00011559
