9
Lattice="6.213430962600375 -1.0567258105222505e-08 3.5873260208096145 2.071143696625668 5.858078684444796 3.587325930070163 3.0546362552635626e-08 -8.9533162245233e-08 7.174651988711379" Properties=species:S:1:pos:R:3:forces:R:3 energy=-35.979042053222656 free_energy=-35.979042053222656 stress="-0.00023726766812615097 -4.487936244856883e-09 1.0191666177661318e-08 -4.487936244856883e-09 -0.00023725131177343428 -1.628243317952638e-08 1.0191666177661318e-08 -1.628243317952638e-08 -0.00023726826475467533" pbc="T T T"
Sc       2.07114349       1.46451884       3.58732644      -0.00000129      -0.00000395       0.00000210
Sc       6.21343121       4.39355928      10.76197772       0.00000153       0.00000270       0.00000055
Ga       0.00000004       0.00000002      -0.00000008       0.00000121       0.00000194      -0.00000258
Te       2.17859550       1.54049948       7.17465206      -0.00387935      -0.00274274      -0.00000131
Te       6.10597922       4.31757925       7.17465224       0.00387608       0.00274256      -0.00000072
Te       5.12413317       1.54049918       5.47404454       0.00193664      -0.00274012      -0.00335868
Te       3.16044150       4.31757925       8.87525897      -0.00193879       0.00274277       0.00335768
Te       3.16044105       4.31757966       5.47404494      -0.00193747       0.00274254      -0.00335531
Te       5.12413354       1.54049936       8.87525889       0.00194150      -0.00274561       0.00335829
