9
Lattice="5.463269869897412 -4.674164598418304e-09 3.1542202822868366 1.821089956108094 5.150820145533691 3.1542202755622473 2.740510667160503e-08 1.114240140958976e-08 6.308440517106625" Properties=species:S:1:pos:R:3:forces:R:3 energy=-53.890628814697266 free_energy=-53.890628814697266 stress="-7.502319203922525e-05 -8.820105756868202e-10 -1.4231615885762494e-08 -8.820105756868202e-10 -7.505569374188781e-05 6.646845918112376e-08 -1.4231615885762494e-08 6.646845918112376e-08 -7.505340909119695e-05" pbc="T T T"
Sc       1.82108893       1.28770406       3.15421973      -0.00000716      -0.00000365      -0.00000312
Sc       5.46327039       3.86311501       9.46266123       0.00000409       0.00000142       0.00000014
Hf       0.00000015       0.00000044       0.00000020      -0.00000128      -0.00000933      -0.00000382
S        1.94321253       1.37405874       6.30844114      -0.00290833      -0.00205737       0.00000183
S        5.34114739       3.77676155       6.30844036       0.00291525       0.00206132      -0.00000184
S        4.49166385       1.37405848       4.83709187       0.00145511      -0.00205743      -0.00251818
S        2.79269619       3.77676172       7.77978897      -0.00145955       0.00206514       0.00252561
S        2.79269600       3.77676189       4.83709161      -0.00145554       0.00205730      -0.00252043
S        4.49166391       1.37405869       7.77978928       0.00145744      -0.00205751       0.00251988
