9
Lattice="4.528973278582073 -5.8902274060529975e-08 2.6148039740783635 1.5096577696975497 4.26995671211681 2.614803860276079 1.0957518515765897e-07 -6.189742670801074e-08 5.229607758366927" Properties=species:S:1:pos:R:3:forces:R:3 energy=-69.51763916015625 free_energy=-69.51763916015625 stress="4.092292510904372e-05 1.7801445650889036e-08 6.353623405175313e-08 1.7801445650889036e-08 4.046608228236437e-05 -3.657837055470736e-08 6.353623405175313e-08 -3.657837055470736e-08 4.060129867866635e-05" pbc="T T T"
Sc       1.50965789       1.06748978       2.61480460       0.00000325       0.00001085       0.00001017
Sc       4.52897466       3.20246721       7.84441225       0.00001340      -0.00000314       0.00000363
Hf       0.00000014      -0.00000002       0.00000010       0.00000211       0.00000447       0.00000458
O        1.60457056       1.13460351       5.22960725      -0.00143686      -0.00100803       0.00000078
O        4.43406036       3.13535366       5.22960745       0.00142461       0.00100479      -0.00000963
O        3.72668716       1.13460250       4.00440280       0.00071247      -0.00100815      -0.00123751
O        2.31194317       3.13535392       6.45481262      -0.00071439       0.00100362       0.00123054
O        2.31194230       3.13535324       4.00440284      -0.00071549       0.00100750      -0.00123444
O        3.72668824       1.13460248       6.45481249       0.00071137      -0.00101212       0.00123030
