9
Lattice="6.324598123573234 -4.967990685341491e-08 3.6515085566006635 2.108199294244567 5.962888398856188 3.6515086145224838 1.0910783979573375e-08 7.865456611885298e-08 7.303017094303282" Properties=species:S:1:pos:R:3:forces:R:3 energy=-44.47974395751953 free_energy=-44.47974395751953 stress="-4.6166591346263885e-05 -2.6718105061718234e-08 -1.6218507647991487e-09 -2.6718105061718234e-08 -4.612498014466837e-05 4.872600101180069e-09 -1.6218507647991487e-09 4.872600101180069e-09 -4.6115343138808385e-05" pbc="T T T"
Sc       2.10819922       1.49072230       3.65150858       0.00000115       0.00000078      -0.00000035
Sc       6.32459850       4.47216621      10.95452539       0.00000074       0.00000020      -0.00000297
Hf      -0.00000020      -0.00000021      -0.00000009       0.00000258       0.00000348       0.00000245
Te       2.24240564       1.58562035       7.30301708      -0.00129941      -0.00091782       0.00000003
Te       6.19039206       4.37726810       7.30301722       0.00129178       0.00091341       0.00000090
Te       5.20339499       1.58562048       5.59348924       0.00065123      -0.00091988      -0.00112474
Te       3.22940224       4.37726804       9.01254527      -0.00064777       0.00091796       0.00112355
Te       3.22940215       4.37726804       5.59348926      -0.00065023       0.00091961      -0.00112322
Te       5.20339510       1.58562041       9.01254514       0.00064991      -0.00091773       0.00112441
