9
Lattice="5.792012778040973 2.789352296672564e-09 3.344020194214371 1.9306709123565913 5.460762094557317 3.3440202224240574 -6.380831317717107e-08 -1.0569579991921676e-08 6.6880404989479505" Properties=species:S:1:pos:R:3:forces:R:3 energy=-48.44429016113281 free_energy=-48.44429016113281 stress="-0.00013741925067733973 -3.495769718142583e-08 -1.8635462950555848e-08 -3.495769718142583e-08 -0.0001374176936224103 4.099890560382846e-08 -1.8635462950555848e-08 4.099890560382846e-08 -0.00013739772839471698" pbc="T T T"
Sc       1.93067071       1.36519018       3.34402066      -0.00000043      -0.00000553       0.00000368
Sc       5.79201325       4.09557201      10.03206113       0.00000384       0.00000440       0.00000649
Hf      -0.00000005      -0.00000020      -0.00000022       0.00000025       0.00000581       0.00000338
Se       2.05414882       1.45250209       6.68804012      -0.00754121      -0.00533393      -0.00000236
Se       5.66853513       4.00826010       6.68804061       0.00753383       0.00532936       0.00000244
Se       4.76493838       1.45250292       5.12296500       0.00377476      -0.00533202      -0.00653473
Se       2.95774449       4.00825960       8.25311569      -0.00377135       0.00533091       0.00652380
Se       2.95774536       4.00825970       5.12296505      -0.00376840       0.00533433      -0.00652928
Se       4.76493845       1.45250194       8.25311561       0.00376899      -0.00533324       0.00652681
