9
Lattice="5.731091656949324 3.873755872805352e-08 3.308847175130465 1.9103639393425458 5.403324767196709 3.308847145390016 6.446779603656682e-08 9.161168689382496e-09 6.617694238599436" Properties=species:S:1:pos:R:3:forces:R:3 energy=-46.21665954589844 free_energy=-46.21665954589844 stress="-0.00010176317300647497 -1.7944051577956088e-08 -2.1460341059764687e-08 -1.7944051577956088e-08 -0.00010180295066675171 2.763871620459213e-08 -2.1460341059764687e-08 2.763871620459213e-08 -0.0001017674439935945" pbc="T T T"
Sc       1.91036420       1.35083121       3.30884694       0.00000063      -0.00000215      -0.00000147
Sc       5.73109167       4.05249352       9.92654207       0.00000067      -0.00000057       0.00000416
Ir      -0.00000016       0.00000015      -0.00000013       0.00000225      -0.00000433       0.00000210
Se       1.96415922       1.38887087       6.61769473      -0.00031450      -0.00022230       0.00000206
Se       5.67729601       4.01445427       6.61769423       0.00031579       0.00022379      -0.00000101
Se       4.74901177       1.38887062       5.00985915       0.00015695      -0.00022295      -0.00027344
Se       2.89244372       4.01445452       8.22552909      -0.00015959       0.00022504       0.00027430
Se       2.89244419       4.01445412       5.00985890      -0.00015649       0.00022432      -0.00027663
Se       4.74901199       1.38886999       8.22552927       0.00015450      -0.00022089       0.00026980
