9
Lattice="4.47550978336253 1.2473465258003018e-08 2.5839367787125824 1.4918365797274948 4.219551152545283 2.5839368245889913 -5.7000696550554724e-08 1.588135200457655e-08 5.167873656153249" Properties=species:S:1:pos:R:3:forces:R:3 energy=-64.01983642578125 free_energy=-64.01983642578125 stress="0.0001466342800995335 -3.8288497705707414e-08 4.069702908005013e-11 -3.8288497705707414e-08 0.00014666265633422881 3.271590642839328e-08 4.069702908005013e-11 3.271590642839328e-08 0.00014669212396256626" pbc="T T T"
Sc       1.49183812       1.05488750       2.58393729       0.00001429      -0.00000155       0.00000356
Sc       4.47551066       3.16466341       7.75181056       0.00000860      -0.00000035       0.00000240
Ir      -0.00000011       0.00000013      -0.00000013       0.00000332      -0.00000989       0.00000478
O        1.54048611       1.08928832       5.16787343      -0.00030495      -0.00021471      -0.00000175
O        4.42685977       3.13026321       5.16787358       0.00030129       0.00022015       0.00000091
O        3.70526595       1.08928856       3.91803651       0.00014886      -0.00021874      -0.00027131
O        2.26207932       3.13026281       6.41771028      -0.00015702       0.00021902       0.00026619
O        2.26207913       3.13026269       3.91803720      -0.00016100       0.00021996      -0.00026843
O        3.70526630       1.08928812       6.41771034       0.00014647      -0.00021325       0.00026314
