9
Lattice="4.4754599026476924 -6.030498359228767e-08 2.5839080038748015 1.491819939701708 4.219503855453562 2.5839079536305127 1.0484960230783465e-10 -6.146231081452371e-08 5.167816007568002" Properties=species:S:1:pos:R:3:forces:R:3 energy=-64.01984405517578 free_energy=-64.01984405517578 stress="0.00011833176540676504 -1.593378300412951e-07 2.6255493779103745e-08 -1.593378300412951e-07 0.00011848418216686696 9.629125052867948e-09 2.6255493779103745e-08 9.629125052867948e-09 0.00011858550715260208" pbc="T T T"
Sc       1.49182056       1.05487628       2.58390793       0.00000340       0.00000344      -0.00000088
Sc       4.47546022       3.16462954       7.75172289       0.00000583       0.00001766      -0.00001398
Ir      -0.00000008       0.00000012       0.00000030       0.00000521      -0.00000236      -0.00002809
O        1.54048039       1.08928377       5.16781594      -0.00039271      -0.00028294       0.00000162
O        4.42679957       3.13021959       5.16781701       0.00038753       0.00027218       0.00000608
O        3.70521906       1.08928324       3.91800321       0.00018910      -0.00027972      -0.00033639
O        2.26206012       3.13021912       6.41762896      -0.00020343       0.00028572       0.00035836
O        2.26205979       3.13021983       3.91800332      -0.00019364       0.00027724      -0.00033501
O        3.70521967       1.08928340       6.41762833       0.00019866      -0.00029105       0.00034776
