9
Lattice="5.7310428281793495 -3.789232089658618e-08 3.308818975692499 1.9103475562419043 5.403278996944215 3.3088190058752027 -2.2217922260498103e-08 2.1255661422138814e-08 6.617637989867588" Properties=species:S:1:pos:R:3:forces:R:3 energy=-46.21665954589844 free_energy=-46.21665954589844 stress="-0.0001084814066416584 -1.7136837726638987e-08 -1.8396089984662467e-08 -1.7136837726638987e-08 -0.00010846630175365135 1.4464806241676342e-08 -1.8396089984662467e-08 1.4464806241676342e-08 -0.00010846470104297623" pbc="T T T"
Sc       1.91034878       1.35081982       3.30881859       0.00000888      -0.00000010      -0.00000446
Sc       5.73104170       4.05245889       9.92645806      -0.00000610      -0.00000293       0.00000801
Ir      -0.00000017       0.00000006       0.00000018       0.00000064       0.00000040      -0.00000272
Se       1.96416567       1.38887490       6.61763790      -0.00063899      -0.00045234       0.00000027
Se       5.67722464       4.01440435       6.61763765       0.00063682       0.00045261      -0.00000223
Se       4.74896007       1.38887509       5.00983610       0.00031839      -0.00044924      -0.00055531
Se       2.89243026       4.01440350       8.22543967      -0.00032094       0.00045112       0.00055587
Se       2.89243111       4.01440435       5.00983597      -0.00031643       0.00045225      -0.00055474
Se       4.74895938       1.38887497       8.22543971       0.00031772      -0.00045174       0.00055555
