9
Lattice="5.399051432557086 -4.801962822422046e-08 3.117143757736796 1.7996837516374684 5.090274485519516 3.1171437818842804 -7.892584957374261e-08 -2.6234525809880805e-08 6.234287652177181" Properties=species:S:1:pos:R:3:forces:R:3 energy=-50.17690658569336 free_energy=-50.17690658569336 stress="-0.00016884067736100405 -3.807998805172019e-09 -1.3192710035525579e-08 -3.807998805172019e-09 -0.00016880383191164583 2.7711179129141783e-08 -1.3192710035525579e-08 2.7711179129141783e-08 -0.0001687696058070287" pbc="T T T"
Sc       1.79968380       1.27256803       3.11714343      -0.00000044      -0.00000604      -0.00000279
Sc       5.39905175       3.81770631       9.35143289       0.00000284       0.00000377       0.00000879
Ir      -0.00000018      -0.00000018      -0.00000031      -0.00000036       0.00000059       0.00000207
S        1.86678953       1.32001937       6.23428750      -0.00617480      -0.00436795       0.00000203
S        5.33194522       3.77025506       6.23428691       0.00617367       0.00436848      -0.00000424
S        4.46565674       1.32001998       4.73383097       0.00308901      -0.00436729      -0.00535011
S        2.73307840       3.77025500       7.73474400      -0.00308728       0.00436682       0.00534618
S        2.73307857       3.77025505       4.73383130      -0.00308880       0.00436962      -0.00534719
S        4.46565655       1.32001902       7.73474405       0.00308615      -0.00436831       0.00534552
