9
Lattice="5.3990795814616925 1.0339740159262396e-07 3.1171600597183 1.7996932223692337 5.090301405011271 3.1171601791177737 -5.420929000601927e-08 1.0790213535456746e-07 6.234320213329793" Properties=species:S:1:pos:R:3:forces:R:3 energy=-50.176902770996094 free_energy=-50.176902770996094 stress="-0.00014544569421559572 -1.4325316044505598e-08 -1.2435876328709128e-08 -1.4325316044505598e-08 -0.00014541759446728975 -9.597742600675474e-10 -1.2435876328709128e-08 -9.597742600675474e-10 -0.000145347963552922" pbc="T T T"
Sc       1.79969403       1.27257495       3.11716027       0.00000725      -0.00000347       0.00000164
Sc       5.39907941       3.81772675       9.35147983      -0.00000315       0.00000409      -0.00000533
Ir      -0.00000009      -0.00000002       0.00000010       0.00000007      -0.00000045      -0.00000127
S        1.86682697       1.32004586       6.23432016      -0.00690484      -0.00488532      -0.00000085
S        5.33194581       3.77025570       6.23432074       0.00690371       0.00488478       0.00000336
S        4.46566560       1.32004615       4.73387953       0.00345048      -0.00488478      -0.00598270
S        2.73310675       3.77025531       7.73476072      -0.00345275       0.00488442       0.00598258
S        2.73310679       3.77025556       4.73387972      -0.00345281       0.00488400      -0.00598055
S        4.46566586       1.32004622       7.73476069       0.00345203      -0.00488347       0.00598276
