9
Lattice="5.6413983305806665 3.0739404170994615e-08 3.2570628167307767 1.8804660886822326 5.318761565200414 3.2570629041867134 -6.515741708210213e-08 6.103796603690952e-08 6.514125746317551" Properties=species:S:1:pos:R:3:forces:R:3 energy=-47.1547966003418 free_energy=-47.1547966003418 stress="-0.0003717420622706413 1.1434758917516774e-08 -1.555183892776313e-08 1.1434758917516774e-08 -0.0003716916835401207 1.338718202958944e-08 -1.555183892776313e-08 1.338718202958944e-08 -0.00037172852898947895" pbc="T T T"
Sc       1.88046720       1.32969000       3.25706191       0.00000836      -0.00000264      -0.00000601
Sc       5.64139796       3.98907130       9.77118784      -0.00000319       0.00000248      -0.00000611
Mn      -0.00000007       0.00000013      -0.00000038       0.00000023       0.00000167       0.00000277
Se       1.89923871       1.34296483       6.51412622      -0.00356358      -0.00251874       0.00000287
Se       5.62262562       3.97579670       6.51412627       0.00356156       0.00251767       0.00000282
Se       4.69177842       1.34296439       4.90185172       0.00177646      -0.00252226      -0.00308701
Se       2.83008567       3.97579699       8.12639984      -0.00177830       0.00251928       0.00308603
Se       2.83008558       3.97579747       4.90185216      -0.00177941       0.00252280      -0.00308305
Se       4.69177825       1.34296482       8.12640032       0.00177786      -0.00252008       0.00308716
