9
Lattice="5.4074674591881156 -1.4448841081260248e-07 3.1220029277180528 1.8024890121377104 5.098209197799169 3.122002935858694 4.385101374034793e-08 4.097754899901765e-08 6.244005779483939" Properties=species:S:1:pos:R:3:forces:R:3 energy=-53.19609069824219 free_energy=-53.19609069824219 stress="-0.00013954444148112088 -5.8047110229608734e-08 -2.084154182568909e-08 -5.8047110229608734e-08 -0.00013946866965852678 -6.874379954169285e-10 -2.084154182568909e-08 -6.874379954169285e-10 -0.00013945309910923243" pbc="T T T"
Sc       1.80248927       1.27455193       3.12200365       0.00000091      -0.00000162       0.00000516
Sc       5.40746739       3.82365672       9.36600714      -0.00000116       0.00000001      -0.00001364
Mo      -0.00000005       0.00000032       0.00000046      -0.00000290      -0.00000078      -0.00000394
S        1.88307457       1.33153477       6.24400571      -0.00350216      -0.00247701      -0.00000032
S        5.32688206       3.76667426       6.24400665       0.00350431       0.00247891       0.00000499
S        4.46592969       1.33153489       4.75279361       0.00175282      -0.00248274      -0.00303766
S        2.74402693       3.76667446       7.73521785      -0.00175324       0.00248514       0.00304040
S        2.74402609       3.76667394       4.75279355      -0.00175479       0.00247960      -0.00303599
S        4.46593005       1.33153514       7.73521800       0.00175613      -0.00248158       0.00304082
