9
Lattice="6.037760204166332 -2.9428932004816554e-09 3.4859025173361595 2.0125867255478553 5.692455110994418 3.485902528420699 -1.8526177576961886e-09 1.2265735973486126e-08 6.971805037881111" Properties=species:S:1:pos:R:3:forces:R:3 energy=-43.228553771972656 free_energy=-43.228553771972656 stress="-0.00018193999130744487 1.3313996127806149e-08 5.287592141911546e-09 1.3313996127806149e-08 -0.00018194748554378748 -1.2815860872539275e-10 5.287592141911546e-09 -1.2815860872539275e-10 -0.00018194403673987836" pbc="T T T"
Sc       2.01258661       1.42311370       3.48590246      -0.00000018       0.00000012      -0.00000018
Sc       6.03776030       4.26934141      10.45770768       0.00000018       0.00000027       0.00000011
Mn       0.00000004      -0.00000005      -0.00000014      -0.00000215      -0.00000239       0.00000113
Te       2.03696008       1.44034837       6.97180521       0.00043130       0.00030501       0.00000021
Te       6.01338670       4.25210679       6.97180508      -0.00042881      -0.00030387       0.00000076
Te       5.01928018       1.44034839       5.24996161      -0.00021526       0.00030498       0.00037405
Te       3.03106683       4.25210686       8.69364848       0.00021605      -0.00030486      -0.00037356
Te       3.03106690       4.25210677       5.24996164       0.00021479      -0.00030417       0.00037295
Te       5.01928010       1.44034822       8.69364831      -0.00021583       0.00030496      -0.00037536
