9
Lattice="5.407491573003614 -6.122009552852762e-08 3.122016731239472 1.80249714389116 5.098231847622989 3.122016712864449 -3.539668987972565e-08 -4.753397940190624e-08 6.244033523787812" Properties=species:S:1:pos:R:3:forces:R:3 energy=-53.19609069824219 free_energy=-53.19609069824219 stress="-0.00013354727707337588 -2.703902879375164e-09 1.8572771764979734e-08 -2.703902879375164e-09 -0.00013349970686249435 -8.967015574512516e-09 1.8572771764979734e-08 -8.967015574512516e-09 -0.00013350961671676487" pbc="T T T"
Sc       1.80249712       1.27455799       3.12201699       0.00000111       0.00000037       0.00000147
Sc       5.40749148       3.82367450       9.36605090      -0.00000074       0.00000584       0.00000312
Mo      -0.00000027      -0.00000005      -0.00000020       0.00000410       0.00000217       0.00000291
S        1.88308073       1.33153859       6.24403359      -0.00356090      -0.00251885       0.00000217
S        5.32690818       3.76669317       6.24403326       0.00355631       0.00251465      -0.00000108
S        4.46595103       1.33153859       4.75281240       0.00177965      -0.00251907      -0.00308350
S        2.74403742       3.76669279       7.73525456      -0.00178033       0.00251572       0.00307855
S        2.74403759       3.76669262       4.75281209      -0.00178044       0.00251698      -0.00308463
S        4.46595152       1.33153875       7.73525426       0.00178130      -0.00251777       0.00308108
