9
Lattice="4.39095060964731 -2.307739952097377e-08 2.5351163835158004 1.463650193821689 4.139827567056741 2.5351163621015953 -2.986282732078426e-08 -4.7343134631386696e-08 5.0702328187555326" Properties=species:S:1:pos:R:3:forces:R:3 energy=-65.41080474853516 free_energy=-65.41080474853516 stress="0.0002826634736265987 -3.311087226620657e-08 -4.287416643933284e-08 -3.311087226620657e-08 0.00028200625092722476 -1.4741844722720998e-07 -4.287416643933284e-08 -1.4741844722720998e-07 0.0002822076785378158" pbc="T T T"
Sc       1.46365063       1.03495780       2.53511615       0.00000669       0.00000453       0.00000340
Sc       4.39095065       3.10487056       7.60534934      -0.00000068       0.00000267      -0.00000007
Mn       0.00000044      -0.00000025      -0.00000007      -0.00001656       0.00000289      -0.00000237
O        1.46565352       1.03637308       5.07023289      -0.00666386      -0.00470591       0.00000530
O        4.38894681       3.10345401       5.07023273       0.00666976       0.00470686      -0.00000389
O        3.65812315       1.03637331       3.80440914       0.00333360      -0.00470698      -0.00576508
O        2.19647706       3.10345453       6.33605655      -0.00333029       0.00469935       0.00576246
O        2.19647700       3.10345373       3.80440923      -0.00333312       0.00470680      -0.00576735
O        3.65812383       1.03637315       6.33605638       0.00333416      -0.00471020       0.00576723
