9
Lattice="5.251977022068934 7.475038863401809e-09 3.0322305899549176 1.7506589609362233 4.9516118315204345 3.032230682563573 -5.708566084641032e-09 1.0938540683463014e-07 6.064461189797404" Properties=species:S:1:pos:R:3:forces:R:3 energy=-51.85087585449219 free_energy=-51.85087585449219 stress="-0.00010529905557632446 -3.0198692435590146e-09 -2.725933034852801e-09 -3.0198692435590146e-09 -0.0001053683299687691 -2.0864840521994665e-08 -2.725933034852801e-09 -2.0864840521994665e-08 -0.0001053559171850793" pbc="T T T"
Sc       1.75065876       1.23790221       3.03223032      -0.00000095      -0.00000498      -0.00000171
Sc       5.25197710       3.71370973       9.09669139       0.00000086       0.00000483      -0.00000354
Mn      -0.00000012       0.00000005      -0.00000019       0.00000152      -0.00000027      -0.00000070
S        1.78202882       1.26008482       6.06446105       0.00061774       0.00043559      -0.00000171
S        5.22060726       3.69152730       6.06446127      -0.00061971      -0.00043702       0.00000063
S        4.36096280       1.26008436       4.57551343      -0.00030962       0.00043529       0.00053805
S        2.64167350       3.69152700       7.55340970       0.00030935      -0.00043434      -0.00053203
S        2.64167328       3.69152735       4.57551343       0.00030950      -0.00043446       0.00053596
S        4.36096248       1.26008480       7.55340957      -0.00030902       0.00043535      -0.00053465
