9
Lattice="5.737869125565586 -1.6194054859694616e-07 3.3127603321367736 1.9126229524334042 5.4097144939082735 3.3127602225720727 1.3495429042997197e-07 -3.8761739064908425e-08 6.625520430525883" Properties=species:S:1:pos:R:3:forces:R:3 energy=-48.19181442260742 free_energy=-48.19181442260742 stress="-4.161811011726968e-05 2.856612013601989e-08 2.633011497721327e-08 2.856612013601989e-08 -4.160069511272013e-05 -8.61368079085878e-08 2.633011497721327e-08 -8.61368079085878e-08 -4.158654701313935e-05" pbc="T T T"
Sc       1.91262229       1.35242853       3.31276075      -0.00000554       0.00000103       0.00000435
Sc       5.73786988       4.05728560       9.93827943       0.00000433      -0.00000071      -0.00001253
Mo       0.00000013       0.00000004       0.00000005      -0.00000064       0.00000237       0.00000508
Se       1.99085165       1.40774428       6.62552060      -0.00004308      -0.00003193       0.00000020
Se       5.65964063       4.00197029       6.62552132       0.00004102       0.00003245       0.00000386
Se       4.74244336       1.40774403       5.03688808       0.00002118      -0.00003015      -0.00003529
Se       2.90804841       4.00196993       8.21415281      -0.00001962       0.00002597       0.00003313
Se       2.90804812       4.00196983       5.03688828      -0.00002544       0.00002989      -0.00003704
Se       4.74244441       1.40774464       8.21415260       0.00002795      -0.00002877       0.00003812
