9
Lattice="4.5177635015164475 4.1123166723989874e-08 2.6083319707556143 1.5059211831666113 4.259388316235708 2.608332010206223 -1.5943073919920618e-08 3.7043470643111724e-08 5.216663969125445" Properties=species:S:1:pos:R:3:forces:R:3 energy=-65.63072967529297 free_energy=-65.63072967529297 stress="0.00014826715050730854 -5.118523205283054e-08 -4.508973816541584e-08 -5.118523205283054e-08 0.0001483572559664026 1.702797902680686e-08 -4.508973816541584e-08 1.702797902680686e-08 0.00014826783444732428" pbc="T T T"
Sc       1.50592133       1.06484648       2.60833214       0.00000347      -0.00000508       0.00000184
Sc       4.51776305       3.19454145       7.82499580      -0.00000459       0.00000164      -0.00000024
Mo      -0.00000003       0.00000009       0.00000011       0.00000164       0.00000095       0.00000159
O        1.55417724       1.09896927       5.21666407      -0.00026280      -0.00018489       0.00000045
O        4.46950749       3.16041916       5.21666388       0.00025919       0.00018486      -0.00000156
O        3.74067480       1.09896910       3.95428907       0.00013213      -0.00019082      -0.00022945
O        2.28301001       3.16041951       6.47903871      -0.00013150       0.00019130       0.00022787
O        2.28301006       3.16041916       3.95428879      -0.00012773       0.00018737      -0.00022969
O        3.74067471       1.09896945       6.47903913       0.00013040      -0.00018454       0.00022936
