9
Lattice="6.283451102737988 2.2975866581583933e-08 3.6277520634707394 2.0944837208806426 5.924094529363879 3.627752066404584 -5.025911628719875e-08 -3.1945327606593944e-08 7.2555042139928" Properties=species:S:1:pos:R:3:forces:R:3 energy=-43.84286117553711 free_energy=-43.84286117553711 stress="-3.861824006889947e-05 1.374908631390781e-08 -3.184691621527236e-09 1.374908631390781e-08 -3.863813981297426e-05 -1.2472561872201027e-09 -3.184691621527236e-09 -1.2472561872201027e-09 -3.8643800507998094e-05" pbc="T T T"
Sc       2.09448355       1.48102415       3.62775192      -0.00000113       0.00000400      -0.00000092
Sc       6.28345127       4.44307095      10.88325621       0.00000048       0.00000034      -0.00000014
Nb      -0.00000011      -0.00000006      -0.00000013       0.00000199      -0.00000026       0.00000033
Te       2.20514269       1.55927133       7.25550428      -0.00033246      -0.00023542      -0.00000140
Te       6.17279247       4.36482288       7.25550415       0.00033116       0.00023079       0.00000068
Te       5.18087985       1.55927102       5.53746131       0.00016416      -0.00023238      -0.00028433
Te       3.19705466       4.36482335       8.97354714      -0.00016428       0.00023232       0.00028651
Te       3.19705489       4.36482343       5.53746133      -0.00016463       0.00023271      -0.00028583
Te       5.18087982       1.55927100       8.97354716       0.00016467      -0.00023212       0.00028515
