9
Lattice="5.545500780201307 -6.736149487532588e-08 3.201696299610341 1.8485002166482287 5.228348233225069 3.201696264813128 7.47170771816626e-08 1.021528806256468e-08 6.403392469806909" Properties=species:S:1:pos:R:3:forces:R:3 energy=-43.32670593261719 free_energy=-43.32670593261719 stress="-0.00011313768482068554 3.7711361811076927e-10 2.296565604353873e-08 3.7711361811076927e-10 -0.0001131139651988633 -1.6681756420666716e-08 2.296565604353873e-08 -1.6681756420666716e-08 -0.00011312202695989981" pbc="T T T"
Sc       1.84850002       1.30708625       3.20169658      -0.00000051      -0.00000437       0.00000184
Sc       5.54550059       3.92126101       9.60508807      -0.00000033      -0.00000014      -0.00000312
Ni       0.00000014      -0.00000005       0.00000039      -0.00000356       0.00000209      -0.00001200
Se       1.89644940       1.34099221       6.40339263       0.00029147       0.00020617       0.00000037
Se       5.49755150       3.88735630       6.40339294      -0.00029117      -0.00020391       0.00000130
Se       4.59727606       1.34099223       4.84406969      -0.00014620       0.00020784       0.00025335
Se       2.79672559       3.88735632       7.96271512       0.00014627      -0.00020227      -0.00025085
Se       2.79672484       3.88735595       4.84406946       0.00014564      -0.00020742       0.00025582
Se       4.59727618       1.34099248       7.96271530      -0.00014146       0.00020200      -0.00024658
