9
Lattice="5.157005807585101 -1.0114936832640849e-07 2.9773989524149425 1.7190019184300585 4.862071437019 2.9773988174312276 7.058573936084973e-08 -1.1540895882898983e-07 5.9547977825717675" Properties=species:S:1:pos:R:3:forces:R:3 energy=-47.58055877685547 free_energy=-47.58055877685547 stress="-3.127812306047417e-05 2.753507422070811e-10 -1.2980392760653103e-08 2.753507422070811e-10 -3.106409712927416e-05 1.4664555791910061e-08 -1.2980392760653103e-08 1.4664555791910061e-08 -3.121900590485893e-05" pbc="T T T"
Sc       1.71900208       1.21551937       2.97739818       0.00000111       0.00000889      -0.00000537
Sc       5.15700471       3.64655196       8.93219823      -0.00000489      -0.00000902       0.00001036
Ni      -0.00000024      -0.00000003       0.00000045       0.00000599      -0.00000403      -0.00001378
S        1.76140653       1.24550214       5.95479760      -0.00174308      -0.00123221      -0.00000058
S        5.11460185       3.61656897       5.95479716       0.00174195       0.00122991      -0.00000293
S        4.27630364       1.24550280       4.50282124       0.00087193      -0.00122371      -0.00150543
S        2.59970505       3.61656841       7.40677411      -0.00087520       0.00123531       0.00151503
S        2.59970529       3.61656877       4.50282105      -0.00086769       0.00122717      -0.00150880
S        4.27630233       1.24550240       7.40677431       0.00087005      -0.00123203       0.00151128
