9
Lattice="5.798233735553924 -2.3127860458385384e-08 3.3476118642292065 1.9327445614560745 5.466627318867014 3.3476118560136707 2.9222641885979053e-08 1.0601622429352772e-08 6.695223677843295" Properties=species:S:1:pos:R:3:forces:R:3 energy=-48.34115219116211 free_energy=-48.34115219116211 stress="-6.984671927057207e-05 -5.278587167367732e-08 -1.3873059145907973e-08 -5.278587167367732e-08 -6.982075865380466e-05 1.3936301002104301e-08 -1.3873059145907973e-08 1.3936301002104301e-08 -6.981100159464404e-05" pbc="T T T"
Sc       1.93274451       1.36665611       3.34761212      -0.00000116      -0.00000649       0.00000439
Sc       5.79823366       4.09997018      10.04283522      -0.00000163      -0.00000001      -0.00000094
Nb      -0.00000024      -0.00000005      -0.00000023       0.00000459       0.00000187       0.00000696
Se       2.01184824       1.42259158       6.69522343      -0.00280295      -0.00198004      -0.00000074
Se       5.71913002       4.04403606       6.69522384       0.00279795       0.00197802       0.00000134
Se       4.79230902       1.42259190       5.08992364       0.00140250      -0.00198580      -0.00243071
Se       2.93866900       4.04403597       8.30052409      -0.00140023       0.00198230       0.00242571
Se       2.93866933       4.04403575       5.08992380      -0.00140074       0.00198890      -0.00242954
Se       4.79230981       1.42259173       8.30052366       0.00140173      -0.00197872       0.00242385
