9
Lattice="4.249852457860027 -3.962769042397808e-08 2.4536534185080363 1.4166174545682986 4.006799210904616 2.453653408156779 -3.372338577191321e-08 -3.6523672132679484e-08 4.907306895426731" Properties=species:S:1:pos:R:3:forces:R:3 energy=-58.0322151184082 free_energy=-58.0322151184082 stress="-0.0001906879770103842 6.692341969483095e-08 -1.69267426741726e-08 6.692341969483095e-08 -0.00019072770373895764 -2.514339492165618e-08 -1.69267426741726e-08 -2.514339492165618e-08 -0.00019092319416813552" pbc="T T T"
Sc       1.41661817       1.00170051       2.45365322       0.00000644       0.00000129      -0.00000049
Sc       4.24985214       3.00509895       7.36095980      -0.00000417      -0.00000217      -0.00000260
Ni       0.00000004       0.00000002      -0.00000006      -0.00000603      -0.00000278       0.00001490
O        1.44093577       1.01889543       4.90730724      -0.00122219      -0.00086132       0.00000222
O        4.22553399       2.98790357       4.90730694       0.00122619       0.00086571      -0.00000268
O        3.52938413       1.01889566       3.70154011       0.00061093      -0.00086305      -0.00105661
O        2.13708558       2.98790348       6.11307377      -0.00060992       0.00085790       0.00105122
O        2.13708531       2.98790346       3.70154033      -0.00061153       0.00086495      -0.00105736
O        3.52938442       1.01889551       6.11307364       0.00061040      -0.00086083       0.00105137
