9
Lattice="4.058952828325131 2.457343454461161e-07 2.3434374503002338 1.3529844068856762 3.826817687179264 2.343437625069826 -4.7392895430749754e-08 1.805363161389178e-07 4.686874982687368" Properties=species:S:1:pos:R:3:forces:R:3 energy=-60.695091247558594 free_energy=-60.695091247558594 stress="0.00021534558618441224 1.038373156347916e-07 -3.557052963287788e-08 1.038373156347916e-07 0.00021573249250650406 -9.275966661448365e-09 -3.557052963287788e-08 -9.275966661448365e-09 0.00021529618243221194" pbc="T T T"
Sc       1.35298421       0.95670452       2.34343697      -0.00000001      -0.00000580      -0.00002001
Sc       4.05895270       2.87011324       7.03031311      -0.00000167      -0.00000522      -0.00002382
N       -0.00000109      -0.00000689      -0.00002190      -0.00002781      -0.00017024      -0.00055963
O        1.32755772       0.93872551       4.68687354      -0.00131601      -0.00094610      -0.00001634
O        4.08438450       2.88809588       4.68687392       0.00145221       0.00102448      -0.00002556
O        3.39517004       0.93873080       3.49314168       0.00056016      -0.00080854      -0.00099462
O        2.01675743       2.88810122       5.88062345      -0.00082815       0.00115818       0.00140554
O        2.01676517       2.88808926       3.49313878      -0.00060910       0.00086254      -0.00108141
O        3.39517854       0.93871907       5.88061994       0.00076854      -0.00110930       0.00131732
