9
Lattice="4.521772271029525 4.0306864325457404e-09 2.610646475744256 1.507257446630173 4.263167734976236 2.6106464425694242 6.219954205870824e-08 3.351024516553204e-09 5.221292843755737" Properties=species:S:1:pos:R:3:forces:R:3 energy=-69.8440933227539 free_energy=-69.8440933227539 stress="0.00021070190996397287 -6.457420198557884e-08 -9.94923610164733e-08 -6.457420198557884e-08 0.000210965343285352 5.846770534390089e-08 -9.94923610164733e-08 5.846770534390089e-08 0.00021092519455123693" pbc="T T T"
Sc       1.50725746       1.06579170       2.61064620       0.00000091      -0.00000104       0.00000135
Sc       4.52177280       3.19737633       7.83193962       0.00000661       0.00000573       0.00000452
Nb       0.00000011       0.00000016       0.00000002      -0.00000464      -0.00000600      -0.00000644
O        1.57858856       1.11623053       5.22129298      -0.00073266      -0.00051868       0.00000098
O        4.45044110       3.14693727       5.22129256       0.00073272       0.00052094      -0.00000280
O        3.73247802       1.11623045       3.97774433       0.00036940      -0.00052160      -0.00063723
O        2.29655140       3.14693700       6.46484159      -0.00037214       0.00052321       0.00063843
O        2.29655151       3.14693701       3.97774422      -0.00036976       0.00051838      -0.00063485
O        3.73247805       1.11623054       6.46484151       0.00036994      -0.00052142       0.00063580
