9
Lattice="4.058910428449874 -2.565250895658022e-07 2.343413139590703 1.3529700470089998 3.826776336849034 2.343412886630736 3.197805911557676e-07 -8.369243594292405e-08 4.686825725305256" Properties=species:S:1:pos:R:3:forces:R:3 energy=-60.69508361816406 free_energy=-60.69508361816406 stress="0.00025383109459653497 -1.376047293888405e-07 4.058943758877831e-08 -1.376047293888405e-07 0.00025304657174274325 -5.613179965280324e-08 4.058943758877831e-08 -5.613179965280324e-08 0.00025353109231218696" pbc="T T T"
Sc       1.35297017       0.95669403       2.34341304       0.00000752       0.00001206      -0.00000105
Sc       4.05891110       2.87008243       7.03023880       0.00000605       0.00000936       0.00000046
N        0.00000772       0.00001235      -0.00000028       0.00020028       0.00032565      -0.00000683
O        1.32758410       0.93874342       4.68682587      -0.00336379      -0.00236619       0.00000094
O        4.08428272       2.88802328       4.68682616       0.00300646       0.00212717      -0.00000255
O        3.39511588       0.93874776       3.49313877       0.00163096      -0.00227267      -0.00279969
O        2.01676730       2.88802685       5.88050899      -0.00155944       0.00222021       0.00271153
O        2.01676720       2.88802661       3.49314269      -0.00155717       0.00222063      -0.00270844
O        3.39511646       0.93874746       5.88051310       0.00162917      -0.00227576       0.00280416
