9
Lattice="5.468740411827167 3.7116053639284234e-08 3.1573787222703493 1.822913493866657 5.155977960491553 3.1573787425972566 1.4390246893240837e-08 3.5070705337548055e-08 6.314757419616052" Properties=species:S:1:pos:R:3:forces:R:3 energy=-53.720794677734375 free_energy=-53.720794677734375 stress="-3.590667256503366e-05 8.8728775438085e-08 1.679154237876901e-08 8.8728775438085e-08 -3.597247268771753e-05 -1.7611425207064713e-08 1.679154237876901e-08 -1.7611425207064713e-08 -3.5988938179798424e-05" pbc="T T T"
Sc       1.82291303       1.28899452       3.15737861      -0.00000135       0.00000018      -0.00000181
Sc       5.46873972       3.86698353       9.47213678      -0.00000683      -0.00000036       0.00000349
Nb       0.00000021      -0.00000013       0.00000014      -0.00000400       0.00000337       0.00000448
S        1.91830086       1.35644342       6.31475744      -0.00612332      -0.00433035      -0.00000176
S        5.37335299       3.79953464       6.31475692       0.00612505       0.00433247      -0.00000076
S        4.50959065       1.35644351       4.81867561       0.00306180      -0.00432761      -0.00530072
S        2.78206388       3.79953451       7.81083944      -0.00305469       0.00432223       0.00529622
S        2.78206394       3.79953490       4.81867564      -0.00305790       0.00432579      -0.00529863
S        4.50959038       1.35644328       7.81083905       0.00306141      -0.00432561       0.00529945
