9
Lattice="5.704490463803763 -1.21856496886496e-07 3.2934891647410356 1.9014967629880661 5.378245030835245 3.2934890666938617 -1.5905526170212975e-09 -1.2120745599511995e-07 6.586978332236954" Properties=species:S:1:pos:R:3:forces:R:3 energy=-48.032588958740234 free_energy=-48.032588958740234 stress="-0.0001308222854277119 2.1844677178251004e-08 8.570132159491095e-09 2.1844677178251004e-08 -0.0001308579812757671 -3.470357512469491e-08 8.570132159491095e-09 -3.470357512469491e-08 -0.00013087844126857817" pbc="T T T"
Sc       1.90149583       1.34456105       3.29348901      -0.00000545      -0.00000186      -0.00000300
Sc       5.70449073       4.03368381       9.88046893       0.00000185       0.00000145       0.00001473
Os       0.00000006      -0.00000006       0.00000009      -0.00000166      -0.00000151      -0.00000123
Se       1.95799407       1.38451078       6.58697856      -0.00033212      -0.00023407      -0.00000058
Se       5.64799312       3.99373376       6.58697755       0.00033557       0.00023592      -0.00000623
Se       4.72549393       1.38451103       4.98916165       0.00016648      -0.00023225      -0.00028676
Se       2.88049361       3.99373425       8.18479461      -0.00016740       0.00023559       0.00028479
Se       2.88049417       3.99373415       4.98916163      -0.00016373       0.00023606      -0.00028735
Se       4.72549336       1.38451034       8.18479431       0.00016636      -0.00023901       0.00028634
