9
Lattice="5.293427205524868 -1.4308023156248086e-07 3.0561616415532646 1.7644756228343361 4.990690933493499 3.05616160248382 -1.0301751435286546e-07 -1.206944369221329e-07 6.11232346153805" Properties=species:S:1:pos:R:3:forces:R:3 energy=-52.2527961730957 free_energy=-52.2527961730957 stress="-3.4370237699477e-05 -7.86336684654998e-08 8.099664050575939e-09 -7.86336684654998e-08 -3.440934597165324e-05 -8.224554370883652e-09 8.099664050575939e-09 -8.224554370883652e-09 -3.4227770811412483e-05" pbc="T T T"
Sc       1.76447710       1.24767047       3.05616146       0.00001020      -0.00001763      -0.00000240
Sc       5.29342752       3.74302057       9.16848482       0.00000280       0.00002105      -0.00000200
Os       0.00000024      -0.00000000       0.00000031      -0.00000005       0.00000123      -0.00000083
S        1.86146146       1.31625132       6.11232329       0.00016189       0.00010931      -0.00000120
S        5.19644135       3.67443939       6.11232319      -0.00016546      -0.00011110      -0.00000078
S        4.36269529       1.31625097       4.66823475      -0.00008643       0.00010645       0.00013697
S        2.69520640       3.67443922       7.55641183       0.00007862      -0.00010616      -0.00013793
S        2.69520633       3.67443982       4.66823514       0.00008172      -0.00010765       0.00014186
S        4.36269530       1.31625100       7.55641184      -0.00008339       0.00010449      -0.00013411
