9
Lattice="4.182816985013579 3.726738149163329e-09 2.414950293546932 1.3942723777981625 3.94359747530911 2.4149502139649024 2.1423328802112757e-07 5.4018136666790025e-08 4.829900216030921" Properties=species:S:1:pos:R:3:forces:R:3 energy=-68.85968017578125 free_energy=-68.85968017578125 stress="0.0004672311479225755 -4.7397310964925055e-08 1.2654365377784416e-07 -4.7397310964925055e-08 0.000467380479676649 9.501903974751258e-08 1.2654365377784416e-07 9.501903974751258e-08 0.00046687389840371907" pbc="T T T"
Sc       1.39427184       0.98589905       2.41495043       0.00000094      -0.00000109       0.00000019
Sc       4.18281732       2.95769838       7.24485086      -0.00000036      -0.00000196       0.00000233
P        0.00000012       0.00000009       0.00000001       0.00000147      -0.00000404       0.00000147
O        1.37311122       0.97093611       4.82990023       0.00144863       0.00102127      -0.00000059
O        4.20397819       2.97266163       4.82990025      -0.00144207      -0.00102270       0.00000213
O        3.49626174       0.97093610       3.60409911      -0.00072378       0.00102520       0.00125909
O        2.08082784       2.97266160       6.05570147       0.00072145      -0.00102293      -0.00125134
O        2.08082786       2.97266135       3.60409893       0.00071698      -0.00102103       0.00124717
O        3.49626195       0.97093606       6.05570151      -0.00072449       0.00102830      -0.00126088
