9
Lattice="5.587565447556845 5.949723241133004e-08 3.225982434983417 1.8625218651249267 5.268007173707688 3.22598244679928 -3.726146284373881e-08 -1.187643103562469e-08 6.451964934505654" Properties=species:S:1:pos:R:3:forces:R:3 energy=-42.77805709838867 free_energy=-42.77805709838867 stress="-8.561095455661416e-05 2.3269883797638613e-08 -1.2472158417153878e-08 2.3269883797638613e-08 -8.564744348404929e-05 3.04800202854949e-08 -1.2472158417153878e-08 3.04800202854949e-08 -8.56641709106043e-05" pbc="T T T"
Sc       1.86252237       1.31700115       3.22598088       0.00000300      -0.00000431      -0.00001046
Sc       5.58756539       3.95100557       9.67794790      -0.00000122       0.00000024       0.00000521
P       -0.00000019      -0.00000003       0.00000013      -0.00000180      -0.00000191       0.00000634
Se       1.86956916       1.32198534       6.45196544       0.00109252       0.00077260       0.00000571
Se       5.58051790       3.94602234       6.45196431      -0.00109091      -0.00076887      -0.00000333
Se       4.65278068       1.32198515       4.84507729      -0.00054367       0.00076950       0.00094357
Se       2.79730679       3.94602201       8.05885315       0.00054714      -0.00077537      -0.00094551
Se       2.79730662       3.94602226       4.84507741       0.00054637      -0.00076720       0.00094652
Se       4.65278037       1.32198523       8.05885281      -0.00055146       0.00077534      -0.00094780
