9
Lattice="6.431091798994342 1.0634363771637491e-07 3.712992488699963 2.1436973728939006 6.063291463842156 3.7129924777868073 4.016358514029063e-08 1.5034089873974428e-08 7.425984907834605" Properties=species:S:1:pos:R:3:forces:R:3 energy=-34.70939636230469 free_energy=-34.70939636230469 stress="-4.38882561866194e-05 1.3192159364905365e-08 7.887554609453673e-09 1.3192159364905365e-08 -4.388766683405265e-05 -1.3565268019988252e-08 7.887554609453673e-09 -1.3565268019988252e-08 -4.3892243411391973e-05" pbc="T T T"
Sc       2.14369786       1.51582301       3.71299232       0.00000310       0.00000134       0.00000102
Sc       6.43109187       4.54746888      11.13897745      -0.00000147      -0.00000131      -0.00000167
Pb       0.00000019      -0.00000001       0.00000020      -0.00000101      -0.00000190       0.00000080
Te       2.37778361       1.68134694       7.42598491      -0.00219721      -0.00155385       0.00000010
Te       6.19700545       4.38194457       7.42598492       0.00219873       0.00155561       0.00000011
Te       5.24219998       1.68134697       5.77221318       0.00109775      -0.00155434      -0.00190298
Te       3.33258913       4.38194442       9.07975646      -0.00109866       0.00155348       0.00190400
Te       3.33258913       4.38194436       5.77221350      -0.00110009       0.00155453      -0.00190453
Te       5.24219967       1.68134721       9.07975660       0.00109888      -0.00155348       0.00190301
