9
Lattice="5.714036464529699 -5.929726987323947e-08 3.29900058215607 1.9046787881148466 5.387245287825158 3.299000543165927 2.4654570603486246e-08 -3.0319577850348436e-08 6.5980011216091885" Properties=species:S:1:pos:R:3:forces:R:3 energy=-44.0074577331543 free_energy=-44.0074577331543 stress="-0.00020105404837522656 3.005680682122147e-08 3.483617305732878e-08 3.005680682122147e-08 -0.00020108750322833657 -2.848896585305738e-08 3.483617305732878e-08 -2.848896585305738e-08 -0.00020107626914978027" pbc="T T T"
Sc       1.90467861       1.34681106       3.29900076      -0.00000051      -0.00000262       0.00000048
Sc       5.71403654       4.04043437       9.89700160       0.00000023       0.00000240      -0.00000174
Pt       0.00000004       0.00000001       0.00000020      -0.00000155      -0.00000037       0.00000042
Se       1.96625964       1.39035544       6.59800072      -0.00244361      -0.00172761      -0.00000424
Se       5.65245549       3.99688985       6.59800084       0.00244445       0.00172997      -0.00000048
Se       4.73090692       1.39035503       5.00183177       0.00122070      -0.00172946      -0.00211194
Se       2.88780863       3.99688948       8.19417104      -0.00122169       0.00172520       0.00211534
Se       2.88780875       3.99688999       5.00183130      -0.00122041       0.00173023      -0.00211498
Se       4.73090650       1.39035557       8.19417091       0.00122190      -0.00172779       0.00211719
