9
Lattice="5.622490169937716 2.3498554631840433e-08 3.24614624572879 1.874163409687395 5.30093457897793 3.246146249966252 4.516793112543735e-08 3.7128356702688846e-08 6.492292413224391" Properties=species:S:1:pos:R:3:forces:R:3 energy=-41.765296936035156 free_energy=-41.765296936035156 stress="0.00017828585987444967 -2.477044525051042e-08 1.868731658305478e-08 -2.477044525051042e-08 0.0001783047046046704 -8.935723272429641e-09 1.868731658305478e-08 -8.935723272429641e-09 0.00017827028932515532" pbc="T T T"
Sc       1.87416390       1.32523292       3.24614619       0.00000359      -0.00000349      -0.00000054
Sc       5.62249047       3.97570135       9.73843821       0.00000057       0.00000098      -0.00000231
Pb       0.00000017      -0.00000007       0.00000020      -0.00000132      -0.00000076      -0.00000054
S        2.02174513       1.42958957       6.49229241      -0.00323817      -0.00229146      -0.00000034
S        5.47490820       3.87134506       6.49229233       0.00323951       0.00229387      -0.00000120
S        4.61161741       1.42958969       4.99702895       0.00161800      -0.00229289      -0.00280616
S        2.88503623       3.87134488       7.98755600      -0.00162099       0.00229369       0.00280675
S        2.88503570       3.87134512       4.99702932      -0.00162163       0.00229336      -0.00280437
S        4.61161734       1.42959007       7.98755602       0.00162038      -0.00229324       0.00280869
