9
Lattice="5.735786375034665 6.242531138498471e-08 3.311557811341519 1.9119288073146525 5.407751340387385 3.3115578861984916 -3.5683081093533843e-08 6.644893810238975e-08 6.623115684487977" Properties=species:S:1:pos:R:3:forces:R:3 energy=-42.22230911254883 free_energy=-42.22230911254883 stress="-7.799972081556916e-05 1.4682840721036428e-08 1.6086517007352086e-08 1.4682840721036428e-08 -7.803006883477792e-05 -4.652064511390108e-09 1.6086517007352086e-08 -4.652064511390108e-09 -7.801952597219497e-05" pbc="T T T"
Sc       1.91192912       1.35193753       3.31155879       0.00000462      -0.00000296       0.00000658
Sc       5.73578613       4.05581475       9.93467363      -0.00000338       0.00000832      -0.00000174
Pd      -0.00000015       0.00000008       0.00000024       0.00000359      -0.00000486       0.00000086
Se       1.99626685       1.41157300       6.62311578      -0.00021166      -0.00015542       0.00000027
Se       5.65144895       3.99617767       6.62311614       0.00021398       0.00015062       0.00000078
Se       4.73765292       1.41157368       5.04037478       0.00010312      -0.00015128      -0.00018403
Se       2.91006261       3.99617862       8.20585522      -0.00010544       0.00015607       0.00018457
Se       2.91006161       3.99617745       5.04037509      -0.00010878       0.00015041      -0.00018823
Se       4.73765260       1.41157312       8.20585590       0.00010404      -0.00015053       0.00018087
