9
Lattice="4.614702152164984 2.147067593843956e-08 2.664299529111668 1.53823407372851 4.350782990702515 2.664299524324082 9.437200886091428e-09 8.095685886424001e-10 5.3285990418776095" Properties=species:S:1:pos:R:3:forces:R:3 energy=-54.79876708984375 free_energy=-54.79876708984375 stress="0.0003469037765171379 -7.018673642278372e-08 8.09727822570494e-08 -7.018673642278372e-08 0.0003464818873908371 -4.1424247143595494e-08 8.09727822570494e-08 -4.1424247143595494e-08 0.0003467764181550592" pbc="T T T"
Sc       1.53823353       1.08769704       2.66430044      -0.00000610       0.00001286       0.00001056
Sc       4.61470247       3.26308667       7.99289893       0.00000329      -0.00000704       0.00000459
Pb       0.00000007       0.00000005       0.00000004      -0.00000697       0.00000309       0.00000802
O        1.63469741       1.15590608       5.32859871       0.00144161       0.00102537      -0.00000484
O        4.51823890       3.19487649       5.32859888      -0.00143634      -0.00102465      -0.00000225
O        3.79735340       1.15590620       4.07998909      -0.00071820       0.00102070       0.00124321
O        2.35558278       3.19487710       6.57720879       0.00072208      -0.00102660      -0.00125488
O        2.35558263       3.19487650       4.07998901       0.00071757      -0.00102355       0.00124581
O        3.79735371       1.15590588       6.57720857      -0.00071702       0.00101935      -0.00125030
