9
Lattice="5.227669276197135 1.8172527854017866e-07 3.018196481987948 1.7425565324529897 4.928694282982552 3.0181965933211443 1.210671468779536e-07 2.2196225377381328e-07 6.036392754281438" Properties=species:S:1:pos:R:3:forces:R:3 energy=-47.701271057128906 free_energy=-47.701271057128906 stress="-0.00012424823944456875 -2.9174287874411675e-08 -3.010145743775894e-10 -2.9174287874411675e-08 -0.00012425518070813268 -2.8556067732665724e-08 -3.010145743775894e-10 -2.8556067732665724e-08 -0.0001242111175088212" pbc="T T T"
Sc       1.74255659       1.23217364       3.01819737       0.00000147      -0.00000050       0.00000547
Sc       5.22767037       3.69652128       9.05458664       0.00000415       0.00000245      -0.00001700
P       -0.00000030      -0.00000004       0.00000090       0.00001291      -0.00000190      -0.00001670
S        1.75110780       1.23822048       6.03639289       0.00435942       0.00308150      -0.00000102
S        5.21911824       3.69047535       6.03639438      -0.00437212      -0.00309008       0.00000832
S        4.35211493       1.23821959       4.53470009      -0.00218728       0.00309050       0.00378901
S        2.61811073       3.69047406       7.53808520       0.00217739      -0.00307608      -0.00377053
S        2.61810960       3.69047366       4.53470054       0.00217909      -0.00308859       0.00377816
S        4.35211580       1.23822085       7.53808540      -0.00217539       0.00308287      -0.00377673
