9
Lattice="5.586009754909878 4.9828796196492477e-08 3.225084270614652 1.8620032801767785 5.266540472017629 3.2250843025516773 -1.9508746456541016e-08 2.5319950478551005e-08 6.450168575019492" Properties=species:S:1:pos:R:3:forces:R:3 energy=-42.778018951416016 free_energy=-42.778018951416016 stress="-0.0003486628702376038 -3.822829697242014e-08 -1.2185942033227093e-08 -3.822829697242014e-08 -0.0003486190689727664 1.6305513383940706e-08 -1.2185942033227093e-08 1.6305513383940706e-08 -0.000348650268279016" pbc="T T T"
Sc       1.86200326       1.31663639       3.22508417       0.00000126       0.00000664      -0.00000138
Sc       5.58600916       3.94990440       9.67525296      -0.00000632      -0.00000563      -0.00000008
P        0.00000015       0.00000006       0.00000008      -0.00000511      -0.00000001      -0.00000010
Se       1.86952811       1.32195625       6.45016853      -0.00084576      -0.00059658       0.00000088
Se       5.57848493       3.94458426       6.45016870       0.00085062       0.00059846      -0.00000037
Se       4.65124562       1.32195614       4.84414307       0.00042568      -0.00059825      -0.00073379
Se       2.79676748       3.94458441       8.05619421      -0.00042227       0.00059646       0.00073391
Se       2.79676778       3.94458406       4.84414258      -0.00042155       0.00059634      -0.00073391
Se       4.65124551       1.32195625       8.05619434       0.00042352      -0.00059757       0.00073490
