9
Lattice="5.933571412317671 4.039887582759356e-08 3.4257491024974094 1.9778571759845847 5.594224961428885 3.425749101705922 1.827852021782895e-08 1.1955505786647534e-08 6.8514981733355045" Properties=species:S:1:pos:R:3:forces:R:3 energy=-37.580196380615234 free_energy=-37.580196380615234 stress="5.894458445254713e-05 -1.659561021938316e-08 -3.154015937312238e-09 -1.659561021938316e-08 5.895880894968286e-05 -8.066749046520272e-09 -3.154015937312238e-09 -8.066749046520272e-09 5.900001269765198e-05" pbc="T T T"
Sc       1.97785822       1.39855701       3.42575062       0.00000641       0.00000957       0.00001387
Sc       5.93357165       4.19566760      10.27724736       0.00000186      -0.00000926       0.00000068
Pb       0.00000016       0.00000015       0.00000064      -0.00000152       0.00000087      -0.00000769
Se       2.16306884       1.52952077       6.85149704      -0.00084186      -0.00059317      -0.00000897
Se       5.74835971       4.06470397       6.85149814       0.00084428       0.00059493      -0.00000160
Se       4.85203633       1.52952131       5.29902110       0.00041608      -0.00059050      -0.00073573
Se       3.05939121       4.06470380       8.40397410      -0.00042697       0.00059567       0.00073254
Se       3.05939136       4.06470387       5.29902181      -0.00042318       0.00058896      -0.00072972
Se       4.85203698       1.52952151       8.40397467       0.00042495      -0.00059717       0.00073664
