9
Lattice="5.227338255456329 3.003612807027919e-08 3.018005044813936 1.742446131304126 4.928381550401313 3.0180050139250336 5.6407963898037495e-08 2.055496611172081e-09 6.036009991926406" Properties=species:S:1:pos:R:3:forces:R:3 energy=-47.701271057128906 free_energy=-47.701271057128906 stress="-0.00013012684939894825 5.6802452519377766e-08 -2.419448641433064e-08 5.6802452519377766e-08 -0.00013025070074945688 1.427108209384187e-09 -2.419448641433064e-08 1.427108209384187e-09 -0.000130265427287668" pbc="T T T"
Sc       1.74244649       1.23209489       3.01800586       0.00000248      -0.00000307       0.00000444
Sc       5.22733850       3.69628668       9.05401458      -0.00000047       0.00000262      -0.00000329
P        0.00000007      -0.00000001       0.00000000      -0.00000468      -0.00000173      -0.00000823
S        1.75115948       1.23825659       6.03601033       0.00230974       0.00163209       0.00000017
S        5.21862473       3.69012465       6.03601085      -0.00230330      -0.00162995       0.00000329
S        4.35175824       1.23825678       4.53455275      -0.00116029       0.00163746       0.00200170
S        2.61802610       3.69012554       7.53746628       0.00115460      -0.00162858      -0.00200087
S        2.61802554       3.69012492       4.53455326       0.00115576      -0.00163871       0.00200462
S        4.35175843       1.23825618       7.53746623      -0.00115386       0.00162995      -0.00200176
