9
Lattice="5.384448980902082 -6.793796093632918e-08 3.1087131986161602 1.7948162881315803 5.076507227954382 3.1087131549395166 -2.782004945986891e-08 -7.316448379827479e-08 6.217426445418064" Properties=species:S:1:pos:R:3:forces:R:3 energy=-45.818214416503906 free_energy=-45.818214416503906 stress="-0.00011310297122690827 3.664466774466746e-08 -1.2999583631767564e-08 3.664466774466746e-08 -0.0001130163436755538 4.369453687758096e-09 -1.2999583631767564e-08 4.369453687758096e-09 -0.00011307951353956014" pbc="T T T"
Sc       1.79481651       1.26912694       3.10871345       0.00000250       0.00000044       0.00000062
Sc       5.38444903       3.80738072       9.32613926      -0.00000019       0.00000194      -0.00000026
Pd      -0.00000008      -0.00000008      -0.00000085      -0.00000154       0.00000194       0.00002280
S        1.88060356       1.32978717       6.21742639      -0.00198185      -0.00140220      -0.00000050
S        5.29866172       3.74671956       6.21742671       0.00198245       0.00140131       0.00000028
S        4.44414706       1.32978708       4.73736392       0.00099432      -0.00140685      -0.00172073
S        2.73511775       3.74672006       7.69748913      -0.00098854       0.00139678       0.00170773
S        2.73511813       3.74671942       4.73736349      -0.00099260       0.00140291      -0.00172246
S        4.44414728       1.32978741       7.69748960       0.00098610      -0.00139624       0.00171238
