9
Lattice="4.420482036291961 1.7457143319983208e-08 2.5521664479226636 1.473494022953292 4.167670297732926 2.5521664576269765 2.379876321248947e-08 2.8713586916539417e-08 5.104332854624683" Properties=species:S:1:pos:R:3:forces:R:3 energy=-59.05402755737305 free_energy=-59.05402755737305 stress="1.668849836278241e-05 -5.8302919825337085e-08 -1.269479099619275e-07 -5.8302919825337085e-08 1.6630363461445086e-05 2.3595814013788186e-07 -1.269479099619275e-07 2.3595814013788186e-07 1.6608521036687307e-05" pbc="T T T"
Sc       1.47349398       1.04191780       2.55216667       0.00000246       0.00000086       0.00000423
Sc       4.42048291       3.12575285       7.65649907       0.00000546       0.00000146       0.00000044
Pd       0.00000048      -0.00000010       0.00000227      -0.00003765       0.00000356      -0.00014974
O        1.55895672       1.10234908       5.10433302       0.00158274       0.00112461      -0.00000818
O        4.33501882       3.06532103       5.10433287      -0.00155733      -0.00109916      -0.00000898
O        3.64100344       1.10234855       3.90226261      -0.00080843       0.00113778       0.00138697
O        2.25297304       3.06532016       6.30640205       0.00075370      -0.00107229      -0.00132117
O        2.25297168       3.06532206       3.90226217       0.00081515      -0.00116223       0.00141660
O        3.64100326       1.10234987       6.30640216      -0.00075633       0.00106558      -0.00132035
