9
Lattice="4.470408308201509 2.89086268333634e-09 2.5809915266702 1.4901360959614385 4.214741562553967 2.580991543121098 4.099694297610791e-09 2.3047077511672654e-08 5.161983046239516" Properties=species:S:1:pos:R:3:forces:R:3 energy=-60.61235809326172 free_energy=-60.61235809326172 stress="0.00019851599063258618 -1.01078390102316e-08 5.756895760100633e-08 -1.01078390102316e-08 0.00019847525982186198 -8.924030225898605e-08 5.756895760100633e-08 -8.924030225898605e-08 0.00019857476581819355" pbc="T T T"
Sc       1.49013610       1.05368593       2.58099174      -0.00000014       0.00000615       0.00000202
Sc       4.47040808       3.16105563       7.74297492      -0.00000083      -0.00000633       0.00000151
Pt      -0.00000001      -0.00000011       0.00000019       0.00000092       0.00000367       0.00000041
O        1.56939943       1.10973323       5.16198303      -0.00148021      -0.00104496      -0.00000070
O        4.39114512       3.10500826       5.16198283       0.00147691       0.00104251      -0.00000037
O        3.68570857       1.10973341       3.94013123       0.00073814      -0.00104102      -0.00128182
O        2.27483575       3.10500839       6.38383475      -0.00073653       0.00103924       0.00127815
O        2.27483589       3.10500821       3.94013134      -0.00074055       0.00104584      -0.00128294
O        3.68570870       1.10973332       6.38383460       0.00074296      -0.00104522       0.00128390
