9
Lattice="5.705664083761522 -2.1289827057095747e-08 3.2941667483516652 1.9018879987138368 5.379351749846157 3.2941667641730064 -7.896031949478074e-08 -3.6456273249210014e-08 6.588333633466623" Properties=species:S:1:pos:R:3:forces:R:3 energy=-47.027198791503906 free_energy=-47.027198791503906 stress="-0.00014889187877997756 5.227624111370233e-09 -7.838244719948761e-09 5.227624111370233e-09 -0.00014888531586620957 9.484143248528198e-09 -7.838244719948761e-09 9.484143248528198e-09 -0.00014894855848979205" pbc="T T T"
Sc       1.90188716       1.34483689       3.29416763      -0.00000630      -0.00000757       0.00000703
Sc       5.70566351       4.03451376       9.88249913      -0.00000330       0.00000152      -0.00001000
Ru       0.00000003       0.00000016      -0.00000016      -0.00000006      -0.00000206      -0.00000001
Se       1.95909410       1.38528878       6.58833348      -0.00112468      -0.00079626      -0.00000094
Se       5.64845771       3.99406308       6.58833431       0.00112736       0.00079876       0.00000539
Se       4.72611697       1.38528863       4.99079202       0.00056171      -0.00079763      -0.00097260
Se       2.88143532       3.99406370       8.18587515      -0.00055981       0.00080067       0.00097513
Se       2.88143534       3.99406323       4.99079194      -0.00056231       0.00079691      -0.00097501
Se       4.72611790       1.38528858       8.18587504       0.00056721      -0.00079444       0.00097123
