9
Lattice="4.4588721722165285 -2.798179553129646e-08 2.574330928944605 1.486290714918618 4.2038648867594794 2.574330899104932 2.1722477544851804e-09 -3.500997595711616e-08 5.148661854126765" Properties=species:S:1:pos:R:3:forces:R:3 energy=-65.20964813232422 free_energy=-65.20964813232422 stress="0.00012373982463032007 5.07626403134509e-08 2.4515591334761666e-08 5.07626403134509e-08 0.00012368470197543502 1.4346045462687584e-09 2.4515591334761666e-08 1.4346045462687584e-09 0.00012368563329800963" pbc="T T T"
Sc       1.48629100       1.05096585       2.57433035       0.00000101      -0.00000333      -0.00000572
Sc       4.45887139       3.15289804       7.72299248      -0.00000619      -0.00000677      -0.00000738
Ru      -0.00000014       0.00000003      -0.00000029       0.00000334      -0.00000473       0.00000296
O        1.53281559       1.08386431       5.14866192      -0.00052911      -0.00037315       0.00000056
O        4.41234725       3.12000075       5.14866197       0.00052822       0.00037591       0.00000250
O        3.69246476       1.08386444       3.90178806       0.00026312      -0.00036816      -0.00045617
O        2.25269883       3.12000059       6.39553583      -0.00026051       0.00037269       0.00046305
O        2.25269841       3.12000099       3.90178820      -0.00026152       0.00037460      -0.00045578
O        3.69246447       1.08386443       6.39553602       0.00026178      -0.00036693       0.00045611
