9
Lattice="5.706009871858999 3.231958949372484e-09 3.294366294691988 1.902003332146319 5.379677774377325 3.294366228043507 -8.0125427339337e-11 -8.168404101113925e-08 6.588732589522737" Properties=species:S:1:pos:R:3:forces:R:3 energy=-45.18844223022461 free_energy=-45.18844223022461 stress="-0.00012630023411475122 6.759664472610893e-08 1.3598927317559628e-08 6.759664472610893e-08 -0.000126349157653749 -8.794115657906332e-09 1.3598927317559628e-08 -8.794115657906332e-09 -0.00012638854968827218" pbc="T T T"
Sc       1.90200435       1.34491982       3.29436601       0.00000904       0.00000349      -0.00000146
Sc       5.70600949       4.03475887       9.88309868      -0.00000538       0.00000535      -0.00000110
Rh       0.00000003       0.00000005      -0.00000008       0.00000004      -0.00000148       0.00000283
Se       1.95901654       1.38523384       6.58873285      -0.00007546      -0.00005528       0.00000023
Se       5.64899653       3.99444357       6.58873239       0.00007692       0.00005445       0.00000069
Se       4.72650149       1.38523338       4.99092432       0.00003351      -0.00005463      -0.00006142
Se       2.88151160       3.99444398       8.18654110      -0.00003326       0.00004843       0.00006297
Se       2.88151168       3.99444363       4.99092388      -0.00003776       0.00005081      -0.00006512
Se       4.72650108       1.38523369       8.18654128       0.00003232      -0.00005123       0.00006256
