9
Lattice="5.365339616534009 -1.4163484385515353e-07 3.097680278004569 1.7884464168102225 5.058490604320083 3.0976802580856826 -7.75344445588726e-08 -7.922064477495814e-08 6.195360690302709" Properties=species:S:1:pos:R:3:forces:R:3 energy=-49.14182662963867 free_energy=-49.14182662963867 stress="-0.00017868603754322976 -7.259716827689999e-09 -6.789265150075607e-09 -7.259716827689999e-09 -0.0001786551292752847 2.315092118010398e-09 -6.789265150075607e-09 2.315092118010398e-09 -0.0001786906213965267" pbc="T T T"
Sc       1.78844658       1.26462322       3.09768039       0.00000155       0.00000356       0.00000241
Sc       5.36533889       3.79386797       9.29304036      -0.00000578       0.00000067      -0.00000420
Rh      -0.00000009      -0.00000031       0.00000033       0.00000132       0.00000294      -0.00000619
S        1.85850536       1.31416127       6.19536067      -0.00323921      -0.00229210       0.00000039
S        5.29528085       3.74432924       6.19536091       0.00323695       0.00228816       0.00000198
S        4.43608679       1.31416172       4.70719304       0.00161937      -0.00228930      -0.00280368
S        2.71769928       3.74432855       7.68352841      -0.00161952       0.00229186       0.00280935
S        2.71769920       3.74432842       4.70719284      -0.00161824       0.00228786      -0.00280547
S        4.43608689       1.31416157       7.68352788       0.00162333      -0.00229377       0.00280601
