9
Lattice="5.365434237416803 -8.270871857138035e-08 3.097734777830866 1.7884780196845442 5.058579807565365 3.097734745746101 2.5651909906394235e-08 -2.1156997318048564e-08 6.195469511231325" Properties=species:S:1:pos:R:3:forces:R:3 energy=-49.14183044433594 free_energy=-49.14183044433594 stress="-0.0001823185884859413 1.2009607752716533e-09 -1.1166374491722308e-08 1.2009607752716533e-09 -0.0001822731428546831 1.6555695481201838e-08 -1.1166374491722308e-08 1.6555695481201838e-08 -0.00018223053484689444" pbc="T T T"
Sc       1.78847848       1.26464515       3.09773497       0.00000203       0.00000264       0.00000066
Sc       5.36543277       3.79393493       9.29320435      -0.00000958      -0.00000096       0.00000152
Rh      -0.00000022      -0.00000009      -0.00000003       0.00000145      -0.00000075      -0.00000308
S        1.85846924       1.31413592       6.19546970      -0.00232190      -0.00164354       0.00000094
S        5.29544346       3.74444342       6.19546949       0.00232255       0.00164014      -0.00000077
S        4.43619949       1.31413607       4.70721583       0.00115994      -0.00164050      -0.00201148
S        2.71771327       3.74444355       7.68372297      -0.00115794       0.00164396       0.00201446
S        2.71771308       3.74444376       4.70721594      -0.00115776       0.00164092      -0.00201392
S        4.43619954       1.31413605       7.68372278       0.00116149      -0.00164217       0.00201100
