9
Lattice="5.302779550343883 -1.0994099948500629e-07 3.061561223380453 1.767593049079981 4.999508778552673 3.061561276579733 -1.5457339114524779e-07 -4.4144341281298696e-08 6.123122714489861" Properties=species:S:1:pos:R:3:forces:R:3 energy=-50.799591064453125 free_energy=-50.799591064453125 stress="-0.00020602885342668742 -2.178533442531716e-08 6.123391926848853e-08 -2.178533442531716e-08 -0.00020605571626219898 1.3109533902877502e-08 6.123391926848853e-08 1.3109533902877502e-08 -0.00020602928998414427" pbc="T T T"
Sc       1.76759419       1.24987759       3.06156057       0.00000931       0.00000191      -0.00000732
Sc       5.30277808       3.74963214       9.18468649      -0.00000841       0.00000364       0.00001971
Ru      -0.00000002       0.00000007      -0.00000001      -0.00000053       0.00000047      -0.00000179
S        1.85348481       1.31061135       6.12312253      -0.00282520      -0.00200051       0.00000040
S        5.21688773       3.68889709       6.12312162       0.00282359       0.00199866      -0.00000624
S        4.37603763       1.31061181       4.66672567       0.00141510      -0.00199497      -0.00244981
S        2.69433512       3.68889664       7.57951905      -0.00141263       0.00199670       0.00244862
S        2.69433595       3.68889682       4.66672580      -0.00140920       0.00199819      -0.00245225
S        4.37603623       1.31061095       7.57951889       0.00140738      -0.00200403       0.00244886
