9
Lattice="5.302749743188973 6.406233918191244e-08 3.06154395869615 1.7675832850920512 4.999480448094342 3.0615439985958894 2.246025884110292e-08 6.474885816712558e-08 6.1230878784899865" Properties=species:S:1:pos:R:3:forces:R:3 energy=-50.799591064453125 free_energy=-50.799591064453125 stress="-0.00020177641999907792 4.1219053059649013e-08 1.3546215704707265e-08 4.1219053059649013e-08 -0.0002018372033489868 -1.2968215834519015e-08 1.3546215704707265e-08 -1.2968215834519015e-08 -0.00020186917390674353" pbc="T T T"
Sc       1.76758460       1.24986965       3.06154312       0.00000726      -0.00000311      -0.00000756
Sc       5.30274897       3.74960962       9.18463294      -0.00000434      -0.00000500       0.00000981
Ru      -0.00000038       0.00000007      -0.00000021      -0.00000011      -0.00000014      -0.00000063
S        1.85349759       1.31062098       6.12308815      -0.00327373      -0.00231564       0.00000123
S        5.21683507       3.68886019       6.12308722       0.00326979       0.00231916      -0.00000373
S        4.37600113       1.31062122       4.66671948       0.00163499      -0.00230879      -0.00283247
S        2.69433197       3.68885936       7.57945655      -0.00163600       0.00231105       0.00283414
S        2.69433230       3.68886019       4.66671957      -0.00163132       0.00231415      -0.00283289
S        4.37600089       1.31062103       7.57945643       0.00163361      -0.00231159       0.00283271
