9
Lattice="4.4588266661469556 1.2109134678690452e-08 2.574304743349748 1.4862755512023331 4.203822213168838 2.574304770363827 1.2792314243859216e-08 4.213088163535859e-08 5.148609464542519" Properties=species:S:1:pos:R:3:forces:R:3 energy=-65.20964813232422 free_energy=-65.20964813232422 stress="9.862109436653554e-05 1.1179697878560546e-07 -4.1660925376163505e-08 1.1179697878560546e-07 9.851951472228393e-05 7.085458975097936e-08 -4.1660925376163505e-08 7.085458975097936e-08 9.864111052593216e-05" pbc="T T T"
Sc       1.48627588       1.05095666       2.57430464      -0.00000052       0.00000624      -0.00000072
Sc       4.45882581       3.15286586       7.72291400      -0.00000459      -0.00000327      -0.00000013
Ru       0.00000005       0.00000025       0.00000001       0.00000006      -0.00000927      -0.00000862
O        1.53281008       1.08386079       5.14860935      -0.00055963      -0.00039841      -0.00000069
O        4.41229219       3.11996142       5.14860958       0.00056499       0.00039876       0.00000012
O        3.69242160       1.08386066       3.90175699       0.00027847      -0.00039029      -0.00048323
O        2.25268085       3.11996132       6.39546226      -0.00028116       0.00039589       0.00049610
O        2.25268065       3.11996167       3.90175706      -0.00027595       0.00039329      -0.00048736
O        3.69242173       1.08386044       6.39546186       0.00027823      -0.00039335       0.00048442
