9
Lattice="5.7056259907265945 -4.637329686575914e-08 3.294144813063657 1.9018753223354847 5.3793156410407015 3.2941447510311934 1.3024240133914081e-08 -6.676436888397747e-08 6.588289603568676" Properties=species:S:1:pos:R:3:forces:R:3 energy=-47.027198791503906 free_energy=-47.027198791503906 stress="-0.0001515719195595011 -5.841172523446403e-08 3.2849228892573024e-10 -5.841172523446403e-08 -0.0001515678159194067 -4.304684164679884e-09 3.2849228892573024e-10 -4.304684164679884e-09 -0.00015153309504967183" pbc="T T T"
Sc       1.90187561       1.34482846       3.29414576       0.00000068      -0.00000246       0.00000737
Sc       5.70562615       4.03448705       9.88243497       0.00000207       0.00000300       0.00000320
Ru       0.00000007       0.00000002       0.00000038       0.00000018      -0.00000290      -0.00000336
Se       1.95910281       1.38529497       6.58828916      -0.00149757      -0.00106084      -0.00000361
Se       5.64839833       3.99402065       6.58828922       0.00149924       0.00106210      -0.00000157
Se       4.72607417       1.38529507       4.99077772       0.00074619      -0.00106001      -0.00130093
Se       2.88142686       3.99402080       8.18580075      -0.00075193       0.00106645       0.00130272
Se       2.88142689       3.99402044       4.99077778      -0.00075071       0.00106078      -0.00130337
Se       4.72607447       1.38529465       8.18580095       0.00075199      -0.00106615       0.00129983
