9
Lattice="5.6094594426172755 -1.1440560355405548e-07 3.2386228804357358 1.8698197099150131 5.2886491038791945 3.238622874249071 -4.3694130571175806e-08 -3.847349905829758e-08 6.477245836551911" Properties=species:S:1:pos:R:3:forces:R:3 energy=-43.47542190551758 free_energy=-43.47542190551758 stress="9.63768907240592e-05 -1.1545232325715915e-08 2.3231340406937306e-08 -1.1545232325715915e-08 9.630987187847495e-05 8.69931060520912e-09 2.3231340406937306e-08 8.69931060520912e-09 9.635189053369686e-05" pbc="T T T"
Sc       1.86982075       1.32216369       3.23862204       0.00000837       0.00001316      -0.00000676
Sc       5.60946036       3.96648635       9.71586869       0.00000710      -0.00000222       0.00000196
Sb      -0.00000014      -0.00000004       0.00000043       0.00000436       0.00000443      -0.00001231
S        1.97375427       1.39565567       6.47724551      -0.00084633      -0.00059286      -0.00000067
S        5.50552471       3.89299359       6.47724578       0.00084084       0.00058970      -0.00000100
S        4.62258215       1.39565520       4.94794466       0.00041926      -0.00059149      -0.00072491
S        2.85669636       3.89299278       8.00654725      -0.00042969       0.00058883       0.00073439
S        2.85669664       3.89299358       4.94794479      -0.00042120       0.00058997      -0.00072503
S        4.62258118       1.39565510       8.00654722       0.00041717      -0.00059959       0.00073430
