9
Lattice="5.905261137740706 -1.455811606232276e-07 3.409404190064308 1.968420254367157 5.567533548645641 3.409404168629357 2.5779153449545016e-08 -8.023778712102748e-09 6.818808335477812" Properties=species:S:1:pos:R:3:forces:R:3 energy=-39.909969329833984 free_energy=-39.909969329833984 stress="0.00018746354908216745 -5.7975789502506814e-08 -1.4569748074677591e-08 -5.7975789502506814e-08 0.00018747370631899685 -1.3114854091611505e-08 -1.4569748074677591e-08 -1.3114854091611505e-08 0.00018755317432805896" pbc="T T T"
Sc       1.96842021       1.39188373       3.40940391      -0.00000163       0.00000157      -0.00000462
Sc       5.90526039       4.17564997      10.22821391      -0.00000412       0.00000000       0.00001379
Sn       0.00000006      -0.00000026       0.00000059      -0.00000009       0.00000977      -0.00001596
Se       2.09640919       1.48238488       6.81880869      -0.00623137      -0.00440732      -0.00000006
Se       5.77727242       4.08514842       6.81880797       0.00622980       0.00440407      -0.00000481
Se       4.85705655       1.48238552       5.22494797       0.00311837      -0.00440395      -0.00539812
Se       3.01662501       4.08514780       8.41266832      -0.00312141       0.00440915       0.00540151
Se       3.01662562       4.08514823       5.22494763      -0.00310990       0.00440291      -0.00539619
Se       4.85705623       1.48238534       8.41266782       0.00312051      -0.00441614       0.00540462
