9
Lattice="5.899933074016526 -4.526129039387428e-08 3.4063280105204408 1.9666443193256722 5.562510459148525 3.406328003604513 -1.8177186055404861e-09 -9.755581086546521e-09 6.812656024189263" Properties=species:S:1:pos:R:3:forces:R:3 energy=-39.57759475708008 free_energy=-39.57759475708008 stress="0.0002886484726332128 -6.374909045092636e-09 4.845368106742853e-09 -6.374909045092636e-09 0.000288645300315693 -1.2409647531796963e-08 4.845368106742853e-09 -1.2409647531796963e-08 0.00028865033527836204" pbc="T T T"
Sc       1.96664391       1.39062729       3.40632789      -0.00000744      -0.00000265       0.00000134
Sc       5.89993307       4.17188280      10.21898403       0.00000128      -0.00000047      -0.00000081
Sb      -0.00000005      -0.00000006       0.00000062       0.00000250       0.00000158      -0.00000832
Se       2.08301891       1.47291679       6.81265602      -0.00616769      -0.00436032      -0.00000016
Se       5.78355877       4.08959364       6.81265591       0.00616419       0.00435824       0.00000082
Se       4.85842382       1.47291674       5.21027543       0.00308381      -0.00435954      -0.00534143
Se       3.00815385       4.08959366       8.41503631      -0.00308292       0.00436521       0.00534366
Se       3.00815376       4.08959380       5.21027544      -0.00308184       0.00436072      -0.00533966
Se       4.85842349       1.47291693       8.41503648       0.00308804      -0.00436281       0.00534452
