9
Lattice="5.898974707740632 -1.6485384655609441e-07 3.405774661416541 1.9663248072301995 5.561606595924301 3.40577455736242 2.91173372201351e-08 -1.0685069714530642e-07 6.811549272400357" Properties=species:S:1:pos:R:3:forces:R:3 energy=-39.57762145996094 free_energy=-39.57762145996094 stress="6.27081681159325e-05 -2.931279752260707e-08 2.3000912285908726e-09 -2.931279752260707e-08 6.271046004258096e-05 -8.407857521319784e-09 2.3000912285908726e-09 -8.407857521319784e-09 6.267865683184937e-05" pbc="T T T"
Sc       1.96632370       1.39040023       3.40577330      -0.00000682      -0.00001295      -0.00001072
Sc       5.89897512       4.17120695      10.21732391       0.00000023       0.00001984       0.00000226
Sb      -0.00000042      -0.00000002      -0.00000042       0.00000375       0.00000183       0.00001002
Se       2.08252314       1.47256513       6.81154966      -0.00150486      -0.00107181       0.00000650
Se       5.78277660       4.08904073       6.81154928       0.00150395       0.00106809      -0.00000159
Se       4.85771345       1.47256534       5.20929294       0.00075769      -0.00107502      -0.00130281
Se       3.00758634       4.08904083       8.41380663      -0.00075364       0.00106330       0.00130262
Se       3.00758661       4.08904103       5.20929292      -0.00075418       0.00107785      -0.00130493
Se       4.85771362       1.47256503       8.41380576       0.00075378      -0.00107103       0.00129857
