9
Lattice="4.522582683403129 1.5655439572650704e-08 2.6111142854684948 1.5075275741900533 4.26393179202722 2.611114288420636 -5.115480152535579e-08 -3.2556302802685387e-08 5.222228659539716" Properties=species:S:1:pos:R:3:forces:R:3 energy=-58.61090850830078 free_energy=-58.61090850830078 stress="0.0001890898129204288 1.760029988417955e-07 7.535754775744863e-08 1.760029988417955e-07 0.00018907574121840298 1.4992474461905658e-07 7.535754775744863e-08 1.4992474461905658e-07 0.00018860363343264908" pbc="T T T"
Sc       1.50752718       1.06598254       2.61111450      -0.00000378      -0.00000225       0.00000068
Sc       4.52258336       3.19794928       7.83334221       0.00000910       0.00000257      -0.00000837
Sn      -0.00000009      -0.00000001      -0.00000008      -0.00000178      -0.00000026       0.00000840
O        1.61256101       1.14025315       5.22222867      -0.00117362      -0.00082862       0.00000039
O        4.41754918       3.12367869       5.22222893       0.00117278       0.00083035       0.00000355
O        3.71630204       1.14025221       4.00763352       0.00058609      -0.00083417      -0.00100964
O        2.31380793       3.12367937       6.43682385      -0.00058222       0.00082767       0.00100732
O        2.31380779       3.12367901       4.00763333      -0.00058818       0.00082725      -0.00101173
O        3.71630237       1.14025288       6.43682414       0.00058115      -0.00082284       0.00101060
