9
Lattice="5.6092969422886885 9.711363912750063e-09 3.2385289982122187 1.8697656628012198 5.288495902764523 3.2385289874462866 6.243846269071687e-08 3.096510855603358e-08 6.477057888277888" Properties=species:S:1:pos:R:3:forces:R:3 energy=-43.47542190551758 free_energy=-43.47542190551758 stress="6.377579848049209e-05 2.3925352365949948e-08 -1.6655958390288106e-08 2.3925352365949948e-08 6.375884549925104e-05 -1.5360868133029726e-08 -1.6655958390288106e-08 -1.5360868133029726e-08 6.37770353932865e-05" pbc="T T T"
Sc       1.86976601       1.32212422       3.23852899       0.00000112       0.00000287      -0.00000010
Sc       5.60929657       3.96637194       9.71558840      -0.00000394       0.00000070       0.00001525
Sb      -0.00000011       0.00000002      -0.00000021      -0.00000014      -0.00000292       0.00000320
S        1.97372450       1.39563382       6.47705811      -0.00067741      -0.00048068       0.00000011
S        5.50533817       3.89286193       6.47705721       0.00068277       0.00047973      -0.00000769
S        4.62243481       1.39563408       4.94782396       0.00033712      -0.00047734      -0.00058994
S        2.85662785       3.89286197       8.00629172      -0.00034037       0.00047955       0.00058636
S        2.85662841       3.89286203       4.94782395      -0.00033602       0.00047949      -0.00059128
S        4.62243458       1.39563378       8.00629160       0.00033697      -0.00048125       0.00058413
