9
Lattice="6.382856087120452 2.117541548250737e-08 3.685143584617342 2.1276187150081936 6.017814332926322 3.685143585765728 -3.226065638847653e-08 -2.140524952167791e-08 7.37028722511178" Properties=species:S:1:pos:R:3:forces:R:3 energy=-35.618629455566406 free_energy=-35.618629455566406 stress="-7.002745405770838e-05 -2.944234633872611e-09 3.6809948422700245e-09 -2.944234633872611e-09 -7.000572077231482e-05 1.2569474350243581e-08 3.6809948422700245e-09 1.2569474350243581e-08 -7.001662743277848e-05" pbc="T T T"
Sc       2.12761919       1.50445305       3.68514394       0.00000256      -0.00000311       0.00000143
Sc       6.38285588       4.51336143      11.05543075      -0.00000095       0.00000494      -0.00000140
Sb       0.00000004       0.00000007      -0.00000001      -0.00000125      -0.00000005      -0.00000165
Te       2.28864586       1.61831650       7.37028725      -0.00171387      -0.00121406      -0.00000138
Te       6.22182892       4.39949784       7.37028740       0.00171332       0.00121394       0.00000211
Te       5.23853295       1.61831662       5.66716898       0.00085652      -0.00121483      -0.00148529
Te       3.27194152       4.39949762       9.07340525      -0.00085709       0.00121433       0.00148545
Te       3.27194182       4.39949745       5.66716882      -0.00085638       0.00121264      -0.00148538
Te       5.23853288       1.61831678       9.07340519       0.00085703      -0.00121371       0.00148593
