9
Lattice="4.439747113025499 6.422629508796303e-08 2.563289195632608 1.4799157612011271 4.185833797677223 2.5632892020305205 2.1539542337887384e-08 2.3066568928314896e-08 5.126578353957624" Properties=species:S:1:pos:R:3:forces:R:3 energy=-60.889923095703125 free_energy=-60.889923095703125 stress="8.569312194595113e-05 -1.2454839293241093e-07 -3.6791405477742956e-08 -1.2454839293241093e-07 8.581646397942677e-05 -1.573934760301654e-08 -3.6791405477742956e-08 -1.573934760301654e-08 8.563356095692143e-05" pbc="T T T"
Sc       1.47991592       1.04645840       2.56328903       0.00000208       0.00000059      -0.00000152
Sc       4.43974722       3.13937544       7.68986741      -0.00000056       0.00000017      -0.00000064
Se       0.00000006      -0.00000002       0.00000008      -0.00000349      -0.00000319       0.00000475
O        1.46047721       1.03271331       5.12657831       0.00011924       0.00008449       0.00000075
O        4.45918557       3.15312060       5.12657839      -0.00011787      -0.00008291       0.00000102
O        3.70950843       1.03271345       3.82809972      -0.00005740       0.00008151       0.00010186
O        2.21015435       3.15312037       6.42505718       0.00005741      -0.00008225      -0.00010440
O        2.21015440       3.15312045       3.82809964       0.00005683      -0.00008041       0.00010276
O        3.70950849       1.03271349       6.42505721      -0.00005636       0.00008160      -0.00010449
