9
Lattice="4.519579814415857 4.351132437966861e-08 2.6093806451520547 1.5065266320416166 4.26110083887207 2.6093806690310486 -1.5211639502610073e-08 1.8489402317651957e-08 5.21876131665146" Properties=species:S:1:pos:R:3:forces:R:3 energy=-61.272159576416016 free_energy=-61.272159576416016 stress="0.0003526141226757318 8.609685409055601e-08 -4.1948339912778465e-08 8.609685409055601e-08 0.0003529436362441629 1.5401296593609004e-07 -4.1948339912778465e-08 1.5401296593609004e-07 0.00035266505437903106" pbc="T T T"
Sc       1.50652685       1.06527511       2.60938031       0.00000364      -0.00000065      -0.00000520
Sc       4.51958007       3.19582577       7.82814209       0.00000149       0.00000162       0.00000178
Sb       0.00000000       0.00000001      -0.00000013       0.00000149       0.00000127       0.00000455
O        1.57100244       1.11086636       5.21876121      -0.00335211      -0.00237098      -0.00000061
O        4.45510395       3.15023472       5.21876143       0.00334877       0.00236988       0.00000237
O        3.73407889       1.11086647       3.96990859       0.00167671      -0.00237170      -0.00289983
O        2.29202734       3.15023427       6.46761419      -0.00167829       0.00236860       0.00289863
O        2.29202785       3.15023452       3.96990834      -0.00167510       0.00236949      -0.00290102
O        3.73407840       1.11086637       6.46761444       0.00167322      -0.00236759       0.00289863
