9
Lattice="6.36437543236137 -9.161943204768196e-09 3.674473863151728 2.1214584625306157 6.000390634894049 3.6744738740379974 -1.675258237252726e-08 1.4870471589845522e-09 7.348947755319788" Properties=species:S:1:pos:R:3:forces:R:3 energy=-35.95967483520508 free_energy=-35.95967483520508 stress="-4.378915764391422e-05 8.48146974874453e-09 2.064200588236531e-09 8.48146974874453e-09 -4.38069982919842e-05 -5.962538907056114e-09 2.064200588236531e-09 -5.962538907056114e-09 -4.381456892588176e-05" pbc="T T T"
Sc       2.12145863       1.50009767       3.67447393       0.00000143       0.00000073       0.00000049
Sc       6.36437527       4.50029290      11.02342161      -0.00000203      -0.00000087      -0.00000121
Sn       0.00000009       0.00000005      -0.00000011       0.00000109       0.00000030       0.00000422
Te       2.27417984       1.60808784       7.34894771      -0.00042358      -0.00029989       0.00000082
Te       6.21165405       4.39230282       7.34894776       0.00042206       0.00029822      -0.00000025
Te       5.22728538       1.60808801       5.64397129       0.00021227      -0.00029971      -0.00036658
Te       3.25854839       4.39230269       9.05392423      -0.00020973       0.00029658       0.00036508
Te       3.25854827       4.39230265       5.64397135      -0.00021224       0.00030072      -0.00036755
Te       5.22728563       1.60808786       9.05392415       0.00021075      -0.00029616       0.00036508
