9
Lattice="6.171353242873014 -2.153088232568993e-08 3.563032476740207 2.057117746161241 5.818407669928254 3.5630324441146164 -9.728218836196176e-09 -4.683693492751394e-08 7.126064970330186" Properties=species:S:1:pos:R:3:forces:R:3 energy=-38.00774383544922 free_energy=-38.00774383544922 stress="-0.00013908873370382935 -5.284229054325351e-09 1.4037667028787837e-08 -5.284229054325351e-09 -0.00013908215623814613 -2.472924620633421e-08 1.4037667028787837e-08 -2.472924620633421e-08 -0.00013908544497098774" pbc="T T T"
Sc       2.05711790       1.45460241       3.56303241       0.00000177       0.00000121      -0.00000026
Sc       6.17135309       4.36380546      10.68909768      -0.00000203      -0.00000111       0.00000086
Si       0.00000022      -0.00000009       0.00000020      -0.00000209       0.00000225      -0.00000075
Te       2.09133139       1.47879456       7.12606495      -0.00021359      -0.00015042       0.00000037
Te       6.13713935       4.33961284       7.12606491       0.00021486       0.00015295      -0.00000113
Te       5.12568766       1.47879473       5.37417862       0.00010707      -0.00015122      -0.00018718
Te       3.10278353       4.33961276       8.87795124      -0.00010734       0.00014944       0.00018481
Te       3.10278337       4.33961284       5.37417843      -0.00010693       0.00015032      -0.00018525
Te       5.12568740       1.47879489       8.87795110       0.00010822      -0.00015335       0.00018841
