9
Lattice="5.268939229456761 -2.2722113096351923e-08 3.0420232952722084 1.7563130654646109 4.967603398488395 3.042023277256079 7.745737358873598e-09 -1.6588070117469347e-08 6.084046577128416" Properties=species:S:1:pos:R:3:forces:R:3 energy=-42.82630157470703 free_energy=-42.82630157470703 stress="5.83340579396463e-06 5.595656560331008e-08 -5.918034418073148e-08 5.595656560331008e-08 5.775856152467895e-06 -5.911645573064561e-08 -5.918034418073148e-08 -5.911645573064561e-08 5.825052994623547e-06" pbc="T T T"
Sc       1.75631563       1.24190262       3.04202004       0.00002004       0.00001244      -0.00002470
Sc       5.26893843       3.72570092       9.12607421      -0.00000626      -0.00001134       0.00003047
Se       0.00000102       0.00000058       0.00000039      -0.00001323      -0.00000983      -0.00000439
S        1.85700559       1.31310147       6.08404651       0.00045669       0.00032485       0.00000661
S        5.16824555       3.65450200       6.08404305      -0.00044680      -0.00031379      -0.00001631
S        4.34043693       1.31310244       4.65023681      -0.00022346       0.00033098       0.00039077
S        2.68481553       3.65450013       7.51785696       0.00022185      -0.00033319      -0.00038671
S        2.68481619       3.65450190       4.65023739       0.00023043      -0.00031987       0.00039142
S        4.34043417       1.31310132       7.51785721      -0.00023907       0.00032020      -0.00038719
