9
Lattice="4.339270762948257 -3.530016234156956e-08 2.5052790765766333 1.4464235946288153 4.091103522389338 2.5052790068430824 3.816108404606663e-08 -5.842188151309432e-08 5.010558087056367" Properties=species:S:1:pos:R:3:forces:R:3 energy=-63.995994567871094 free_energy=-63.995994567871094 stress="-0.0003089279925916344 3.242002577508174e-08 1.4627171651682147e-07 3.242002577508174e-08 -0.00030903847073204815 1.6969200089533842e-07 1.4627171651682147e-07 1.6969200089533842e-07 -0.00030920549761503935" pbc="T T T"
Sc       1.44642344       1.02277631       2.50527922      -0.00000103      -0.00000005       0.00000008
Sc       4.33927095       3.06832746       7.51583689       0.00000212       0.00000054      -0.00000123
S       -0.00000015       0.00000022      -0.00000028       0.00000909      -0.00001852       0.00001748
O        1.37003248       0.96875860       5.01055842       0.00604489       0.00427756      -0.00000779
O        4.41566201       3.12234437       5.01055821      -0.00603974      -0.00426570      -0.00000073
O        3.65425474       0.96875922       3.69176163      -0.00302318       0.00426990       0.00523248
O        2.13143961       3.12234413       6.32935428       0.00301589      -0.00426471      -0.00523165
O        2.13143987       3.12234441       3.69176159       0.00301655      -0.00427547       0.00523594
O        3.65425459       0.96875894       6.32935471      -0.00302458       0.00427663      -0.00524455
