9
Lattice="5.606692315942439 4.7979399295528525e-08 3.2370252955167977 1.8688975134638013 5.286040175770621 3.237025244281164 5.490987700449436e-08 -2.3923456546170952e-08 6.474050495926905" Properties=species:S:1:pos:R:3:forces:R:3 energy=-43.42938995361328 free_energy=-43.42938995361328 stress="-0.00024399592075496912 1.5357024096829264e-08 5.1549680080142934e-09 1.5357024096829264e-08 -0.00024395930813625455 -2.4763263439808725e-08 5.1549680080142934e-09 -2.4763263439808725e-08 -0.0002439569216221571" pbc="T T T"
Sc       1.86889732       1.32150977       3.23702518      -0.00000040      -0.00000069       0.00000258
Sc       5.60669241       3.96453029       9.71107470      -0.00000094       0.00000188      -0.00000658
Si       0.00000008       0.00000010      -0.00000016       0.00000284       0.00000296       0.00000597
Se       1.89419956       1.33940112       6.47405012       0.00099700       0.00070439      -0.00000060
Se       5.58139073       3.94663913       6.47405098      -0.00100143      -0.00070941       0.00000188
Se       4.65959235       1.33940094       4.87744977      -0.00049940       0.00070649       0.00086233
Se       2.81599729       3.94663895       8.07065161       0.00050331      -0.00071052      -0.00086734
Se       2.81599684       3.94663945       4.87745054       0.00049867      -0.00070271       0.00086776
Se       4.65959301       1.33940105       8.07065140      -0.00049977       0.00070777      -0.00086618
