9
Lattice="6.382888349011892 8.126549209868469e-08 3.68516226976211 2.1276295169050017 6.017844790459377 3.685162286014705 -2.6112725660673446e-09 1.8058870775976476e-08 7.370324544047063" Properties=species:S:1:pos:R:3:forces:R:3 energy=-35.61863327026367 free_energy=-35.61863327026367 stress="-6.666965055046603e-05 2.4491514594160435e-08 3.647685042906801e-09 2.4491514594160435e-08 -6.666788249276578e-05 2.679589883314293e-09 3.647685042906801e-09 2.679589883314293e-09 -6.66862033540383e-05" pbc="T T T"
Sc       2.12762941       1.50446113       3.68516185       0.00000058       0.00000055      -0.00000184
Sc       6.38288824       4.51338391      11.05548679      -0.00000037       0.00000050      -0.00000011
Sb       0.00000019      -0.00000011      -0.00000006      -0.00000152      -0.00000041       0.00000289
Te       2.28860331       1.61828681       7.37032466      -0.00107963      -0.00076411       0.00000048
Te       6.22191447       4.39955792       7.37032464       0.00108108       0.00076445       0.00000096
Te       5.23858676       1.61828682       5.66715096       0.00054080      -0.00076426      -0.00093470
Te       3.27193100       4.39955794       9.07349847      -0.00053948       0.00076031       0.00093348
Te       3.27193137       4.39955823       5.66715086      -0.00053986       0.00076412      -0.00093473
Te       5.23858670       1.61828687       9.07349825       0.00053837      -0.00076115       0.00093339
