9
Lattice="4.519580881970476 -2.0023328711186606e-08 2.609381354714309 1.5065269682197913 4.261101478868351 2.60938130891687 6.94591396611446e-08 -6.9751346199834506e-09 5.218762589121839" Properties=species:S:1:pos:R:3:forces:R:3 energy=-61.27215576171875 free_energy=-61.27215576171875 stress="0.00032732184627093375 9.924075072831329e-08 6.5146825711792644e-09 9.924075072831329e-08 0.00032738878508098423 2.7742752095605283e-08 6.5146825711792644e-09 2.7742752095605283e-08 0.00032741125323809683" pbc="T T T"
Sc       1.50652781       1.06527448       2.60938112       0.00000520      -0.00001088      -0.00000261
Sc       4.51958107       3.19582588       7.82814389       0.00000011       0.00000003       0.00000123
Sb       0.00000005       0.00000007      -0.00000004      -0.00000515       0.00000400       0.00000722
O        1.57097388       1.11084631       5.21876247      -0.00205040      -0.00145036      -0.00000066
O        4.45513359       3.15025560       5.21876261       0.00205189       0.00145748       0.00000113
O        3.73409382       1.11084624       3.96988457       0.00102496      -0.00144944      -0.00177956
O        2.29201379       3.15025531       6.46764081      -0.00102285       0.00144494       0.00177342
O        2.29201377       3.15025564       3.96988487      -0.00102660       0.00145242      -0.00177544
O        3.73409398       1.11084621       6.46764078       0.00102329      -0.00144827       0.00177532
