9
Lattice="5.282774766797739 -3.9259462149629306e-08 3.050011469362424 1.7609249329114265 4.980647421156877 3.050011386813406 3.2916787607068505e-09 -9.877392117774584e-08 6.1000229330235" Properties=species:S:1:pos:R:3:forces:R:3 energy=-48.12641525268555 free_energy=-48.12641525268555 stress="-5.570497887674719e-05 2.4126032283078302e-09 2.363846185460261e-08 2.4126032283078302e-09 -5.578474156209268e-05 3.2189770848845e-09 2.363846185460261e-08 3.2189770848845e-09 -5.575031173066236e-05" pbc="T T T"
Sc       1.76092517       1.24516170       3.05001067       0.00000225      -0.00000152      -0.00000553
Sc       5.28277490       3.73548619       9.15003444      -0.00000071       0.00000469       0.00000126
Si      -0.00000017       0.00000003      -0.00000013       0.00000078      -0.00000172       0.00000203
S        1.78744196       1.26391213       6.10002356       0.00059944       0.00042373       0.00000393
S        5.25625781       3.71673488       6.10002260      -0.00059992      -0.00042534      -0.00000188
S        4.38905338       1.26391151       4.59798186      -0.00030231       0.00042248       0.00051975
S        2.65464618       3.71673518       7.60206408       0.00029907      -0.00042343      -0.00051796
S        2.65464607       3.71673540       4.59798176       0.00030139      -0.00042254       0.00051737
S        4.38905359       1.26391220       7.60206431      -0.00030008       0.00042343      -0.00051957
