9
Lattice="4.221433365612932 1.0152868523289353e-07 2.4372456443008135 1.4071445227644108 3.980005642004568 2.437245693078922 -3.1360914338629086e-08 3.756523935612584e-08 4.874491342920305" Properties=species:S:1:pos:R:3:forces:R:3 energy=-67.82756805419922 free_energy=-67.82756805419922 stress="-0.00045281709753908217 -2.362972573166644e-08 -2.245846886239633e-08 -2.362972573166644e-08 -0.00045306322863325477 -1.6109710543332767e-07 -2.245846886239633e-08 -1.6109710543332767e-07 -0.00045263409265317023" pbc="T T T"
Sc       1.40714497       0.99500189       2.43724572      -0.00000042       0.00000151       0.00000271
Sc       4.22143311       2.98500408       7.31173742       0.00000065      -0.00000017       0.00000071
Si       0.00000014      -0.00000021      -0.00000008      -0.00000242       0.00001318       0.00000218
O        1.41719558       1.00210834       4.87449128      -0.00125551      -0.00089163       0.00000287
O        4.21138218       2.97789735       4.87449123       0.00125337       0.00088954      -0.00000391
O        3.51283572       1.00210864       3.66457246       0.00063026      -0.00089067      -0.00109112
O        2.11574193       2.97789747       6.08441006      -0.00062585       0.00088108       0.00108218
O        2.11574205       2.97789703       3.66457256      -0.00062782       0.00088775      -0.00108457
O        3.51283596       1.00210856       6.08440987       0.00062734      -0.00089025       0.00109005
