9
Lattice="5.568462644766432 -1.055744961540474e-09 3.2149534381069516 1.8561541913774435 5.249997108268065 3.21495347716357 3.559105102266738e-08 7.300107949538823e-08 6.429906814568453" Properties=species:S:1:pos:R:3:forces:R:3 energy=-44.017024993896484 free_energy=-44.017024993896484 stress="0.00016236981900874525 -4.099734240980979e-08 4.1129273320450466e-09 -4.099734240980979e-08 0.00016239711840171367 9.10757247396532e-09 4.1129273320450466e-09 9.10757247396532e-09 0.00016236100054811686" pbc="T T T"
Sc       1.85615421       1.31249962       3.21495401       0.00000119       0.00000436       0.00000586
Sc       5.56846205       3.93749669       9.64485966      -0.00000615      -0.00001186      -0.00000739
Sn      -0.00000015       0.00000004       0.00000019      -0.00000001      -0.00000027       0.00000285
S        1.96717430       1.39100263       6.42990649      -0.00458622      -0.00323984      -0.00000296
S        5.45744234       3.85899482       6.42990658       0.00458542       0.00324270      -0.00000026
S        4.58487515       1.39100285       4.91857653       0.00229378      -0.00324348      -0.00397432
S        2.83974194       3.85899428       7.94123738      -0.00228919       0.00324139       0.00397596
S        2.83974158       3.85899411       4.91857664      -0.00229678       0.00324190      -0.00397548
S        4.58487601       1.39100371       7.94123752       0.00229783      -0.00323528       0.00397569
