9
Lattice="4.410389568396674 2.895372323154599e-08 2.546339666859014 1.4701298469089834 4.158155627124054 2.546339730115385 -7.139110505101775e-08 2.6991761734317675e-08 5.092679457371064" Properties=species:S:1:pos:R:3:forces:R:3 energy=-68.37824249267578 free_energy=-68.37824249267578 stress="-0.0001756100682541728 1.391765702685177e-09 -2.310364521918018e-08 1.391765702685177e-09 -0.00017598143313080072 4.307142376092088e-08 -2.310364521918018e-08 4.307142376092088e-08 -0.0001754575496306643" pbc="T T T"
Sc       1.47012984       1.03953969       2.54633961      -0.00000048       0.00000371      -0.00000214
Sc       4.41038957       3.11861580       7.63901882       0.00000276      -0.00000619      -0.00000281
Ti      -0.00000004       0.00000006       0.00000003       0.00000131       0.00000065       0.00000081
O        1.52925923       1.08134998       5.09267945       0.00607669       0.00429773       0.00000082
O        4.35126010       3.07680580       5.09267951      -0.00607657      -0.00429857       0.00000149
O        3.64575996       1.08135007       3.87071722      -0.00303704       0.00429744       0.00526077
O        2.23475949       3.07680561       6.31464162       0.00303540      -0.00429606      -0.00525689
O        2.23475944       3.07680568       3.87071750       0.00303671      -0.00429726       0.00525862
O        3.64575977       1.08135005       6.31464173      -0.00303799       0.00429928      -0.00526118
