9
Lattice="5.490306064047972 -9.632994316440457e-09 3.1698296829567867 1.8301019914000363 5.176310099473523 3.169829719099865 -4.035415352447278e-08 1.5731337440369384e-08 6.339659435809038" Properties=species:S:1:pos:R:3:forces:R:3 energy=-55.964813232421875 free_energy=-55.964813232421875 stress="-6.301490793703124e-05 -1.2066796450938e-08 -4.5830322648043875e-08 -1.2066796450938e-08 -6.294518243521452e-05 3.876126797308643e-08 -4.5830322648043875e-08 3.876126797308643e-08 -6.294601917034015e-05" pbc="T T T"
Sc       1.83010133       1.29407812       3.16982958      -0.00000367       0.00000313       0.00000009
Sc       5.49030569       3.88223215       9.50948864      -0.00000147      -0.00000282       0.00000016
Ta      -0.00000021       0.00000011       0.00000038       0.00000163      -0.00000470      -0.00000552
S        1.92366173       1.36023445       6.33965917      -0.00285603      -0.00202003      -0.00000031
S        5.39674620       3.81607559       6.33965955       0.00286035       0.00201990      -0.00000021
S        4.52847535       1.36023465       4.83576973       0.00143028      -0.00201994      -0.00247394
S        2.79193336       3.81607518       7.84354946      -0.00143348       0.00202547       0.00248373
S        2.79193301       3.81607579       4.83576975      -0.00142869       0.00202101      -0.00247562
S        4.52847565       1.36023439       7.84354912       0.00143119      -0.00202200       0.00247219
