9
Lattice="4.520780592242612 9.204768305511495e-09 2.6100738920534448 1.5069268701039704 4.262232941301463 2.6100738966524237 -5.99337600955474e-08 -3.674697892165509e-08 5.220147887915191" Properties=species:S:1:pos:R:3:forces:R:3 energy=-60.78033447265625 free_energy=-60.78033447265625 stress="0.0001797284057829529 -4.846535972546917e-08 6.7798580083433535e-09 -4.846535972546917e-08 0.0001797521545086056 9.772174180966431e-09 6.7798580083433535e-09 9.772174180966431e-09 0.00017988600302487612" pbc="T T T"
Sc       1.50692673       1.06555837       2.61007395      -0.00000018      -0.00000020      -0.00000022
Sc       4.52078061       3.19667474       7.83022114       0.00000202       0.00000159      -0.00000597
Te      -0.00000004       0.00000004       0.00000005      -0.00000197       0.00000378      -0.00001258
O        1.53472322       1.08521339       5.22014804      -0.00023351      -0.00016303       0.00000166
O        4.49298415       3.17701943       5.22014788       0.00023205       0.00016393       0.00000078
O        3.75341874       1.08521309       3.93918354       0.00011636      -0.00016814      -0.00020300
O        2.27428874       3.17701963       6.50111233      -0.00011735       0.00016710       0.00020775
O        2.27428847       3.17701949       3.93918332      -0.00011464       0.00016281      -0.00019761
O        3.75341890       1.08521347       6.50111256       0.00011738      -0.00016801       0.00020851
