9
Lattice="6.278187029771711 5.0965704866580376e-08 3.624712988848264 2.0927290365827487 5.919131525630019 3.624713025900451 -2.8711792530408563e-08 2.5077144651970696e-08 7.249426027426779" Properties=species:S:1:pos:R:3:forces:R:3 energy=-45.71184539794922 free_energy=-45.71184539794922 stress="-0.00021992137772031128 1.0391390858899285e-08 -9.147479218540866e-09 1.0391390858899285e-08 -0.00021993326663505286 -2.60749222213974e-09 -9.147479218540866e-09 -2.60749222213974e-09 -0.00021994249254930764" pbc="T T T"
Sc       2.09272905       1.47978293       3.62471311       0.00000018       0.00000167      -0.00000005
Sc       6.27818704       4.43934864      10.87413891      -0.00000007      -0.00000031       0.00000027
Ta      -0.00000011       0.00000003      -0.00000013      -0.00000019      -0.00000093       0.00000162
Te       2.19668513       1.55329092       7.24942602      -0.00805734      -0.00569858       0.00000031
Te       6.17423084       4.36584059       7.24942608       0.00805900       0.00569826       0.00000090
Te       5.17984444       1.55329110       5.52709800       0.00402874      -0.00569832      -0.00697730
Te       3.19107162       4.36584066       8.97175403      -0.00402799       0.00569510       0.00697654
Te       3.19107155       4.36584058       5.52709806      -0.00402936       0.00569896      -0.00697784
Te       5.17984459       1.55329094       8.97175409       0.00402717      -0.00569578       0.00697555
