9
Lattice="4.541667125276138 6.17514630872924e-08 2.622132703320319 1.5138890991965788 4.281924788476912 2.622132704674723 2.3201920256002734e-08 1.8065025873266925e-08 5.2442653664537495" Properties=species:S:1:pos:R:3:forces:R:3 energy=-72.84978485107422 free_energy=-72.84978485107422 stress="0.00043251339229755104 1.2671050342305534e-07 1.8978719040774195e-08 1.2671050342305534e-07 0.00043219944927841425 3.57606673162536e-08 1.8978719040774195e-08 3.57606673162536e-08 0.00043220838415436447" pbc="T T T"
Sc       1.51388882       1.07048147       2.62213251      -0.00000300      -0.00000074       0.00000055
Sc       4.54166703       3.21144366       7.86639784      -0.00000210       0.00000066      -0.00000001
Ta       0.00000004      -0.00000010      -0.00000013       0.00000095      -0.00000078       0.00000151
O        1.57692951       1.11505733       5.24426523      -0.00675136      -0.00477812      -0.00000276
O        4.47862688       3.16686734       5.24426567       0.00675768       0.00477791       0.00000314
O        3.75320280       1.11505754       3.98779375       0.00337920      -0.00477546      -0.00584641
O        2.30235365       3.16686748       6.50073715      -0.00337771       0.00477153       0.00584880
O        2.30235392       3.16686739       3.98779356      -0.00337723       0.00477457      -0.00585103
O        3.75320234       1.11505748       6.50073753       0.00337303      -0.00476938       0.00584665
