9
Lattice="5.565603921682094 -6.086175427963489e-10 3.2133029280316623 1.8552013027168321 5.247301692140276 3.2133029348502573 -6.370509804908993e-09 3.846405387331866e-09 6.426605867097374" Properties=species:S:1:pos:R:3:forces:R:3 energy=-41.86986541748047 free_energy=-41.86986541748047 stress="0.0001114331535063684 3.8248987976885473e-08 -3.360801192897611e-09 3.8248987976885473e-08 0.00011140810238430277 -1.3725266256869872e-08 -3.360801192897611e-09 -1.3725266256869872e-08 0.0001113643593271263" pbc="T T T"
Sc       1.85520142       1.31182542       3.21330293      -0.00000025      -0.00000033      -0.00000013
Sc       5.56560396       3.93547633       9.63990893       0.00000038       0.00000007       0.00000089
Te       0.00000002       0.00000005       0.00000016      -0.00000019      -0.00000128      -0.00000347
S        1.93636661       1.36921800       6.42660588       0.00095341       0.00067291      -0.00000004
S        5.48443857       3.87808368       6.42660581      -0.00095251      -0.00067326      -0.00000094
S        4.59742058       1.36921796       4.89024555      -0.00047742       0.00067607       0.00082785
S        2.82338454       3.87808365       7.96296602       0.00047554      -0.00067398      -0.00082478
S        2.82338463       3.87808369       4.89024562       0.00047715      -0.00067440       0.00082660
S        4.59742054       1.36921800       7.96296605      -0.00047602       0.00067425      -0.00082588
