9
Lattice="5.369999429297718 -1.9810488678190436e-08 3.100370595188131 1.7899997920215076 5.062883859000239 3.1003705935719683 2.6106926474273483e-08 1.6480986910384304e-08 6.2007411451577665" Properties=species:S:1:pos:R:3:forces:R:3 energy=-52.119022369384766 free_energy=-52.119022369384766 stress="-0.00010826157085830346 2.9686772151649166e-08 2.3375701374561686e-08 2.9686772151649166e-08 -0.00010826738434843719 -5.797061053414154e-09 2.3375701374561686e-08 -5.797061053414154e-09 -0.00010829184611793607" pbc="T T T"
Sc       1.78999950       1.26572040       3.10037075      -0.00000218      -0.00000302       0.00000067
Sc       5.36999980       3.79716365       9.30111214       0.00000418       0.00000497       0.00000304
Ti      -0.00000001      -0.00000017      -0.00000018       0.00000122       0.00000088      -0.00000044
S        1.86585180       1.31935663       6.20074128      -0.00775917      -0.00548683      -0.00000012
S        5.29414731       3.74352779       6.20074104       0.00775225       0.00548403      -0.00000018
S        4.43707369       1.31935632       4.71624570       0.00387821      -0.00548418      -0.00671481
S        2.72292552       3.74352755       7.68523673      -0.00387603       0.00548375       0.00671488
S        2.72292564       3.74352725       4.71624563      -0.00387893       0.00548466      -0.00671715
S        4.43707372       1.31935593       7.68523630       0.00388039      -0.00548427       0.00671421
