9
Lattice="5.775318839122497 8.186304047300066e-08 3.334381825070366 1.9251063110032014 5.445022910399823 3.334381904546406 -3.0873480092048005e-08 7.550704524306572e-08 6.668763703615165" Properties=species:S:1:pos:R:3:forces:R:3 energy=-50.52239227294922 free_energy=-50.52239227294922 stress="-4.002311470685527e-05 3.5889737404204425e-08 -2.669714227465647e-08 3.5889737404204425e-08 -4.0054976125247777e-05 2.1087254609142292e-08 -2.669714227465647e-08 2.1087254609142292e-08 -4.003548383479938e-05" pbc="T T T"
Sc       1.92510624       1.36125567       3.33438211      -0.00000032      -0.00000145       0.00000230
Sc       5.77531881       4.08376721      10.00314644       0.00000112      -0.00000008       0.00000314
Ta       0.00000007      -0.00000001       0.00000007      -0.00000057      -0.00000022       0.00000392
Se       2.01248436       1.42304170       6.66876382      -0.00031753      -0.00022507      -0.00000134
Se       5.68794071       4.02198153       6.66876357       0.00031705       0.00022422      -0.00000163
Se       4.76907635       1.42304185       5.07724415       0.00015775      -0.00022303      -0.00027578
Se       2.93134836       4.02198160       8.26028274      -0.00015857       0.00022437       0.00027309
Se       2.93134886       4.02198149       5.07724413      -0.00015569       0.00022311      -0.00027347
Se       4.76907668       1.42304121       8.26028279       0.00015666      -0.00022186       0.00026992
