9
Lattice="4.541338677487186 -3.803465015034998e-08 2.6219430762967257 1.5137795066976345 4.2816152614293035 2.621943105058034 -5.59666275569985e-08 -4.349120945392214e-09 5.243886249530499" Properties=species:S:1:pos:R:3:forces:R:3 energy=-72.84979248046875 free_energy=-72.84979248046875 stress="7.545214612036943e-05 5.58540840245314e-08 -7.553727243703179e-08 5.58540840245314e-08 7.571191235911101e-05 -9.879919993238673e-09 -7.553727243703179e-08 -9.879919993238673e-09 7.580512465210631e-05" pbc="T T T"
Sc       1.51377960       1.07040417       2.62194340      -0.00000297       0.00000345       0.00000347
Sc       4.54133861       3.21121119       7.86582936       0.00000068      -0.00000128      -0.00000140
Ta      -0.00000004       0.00000002      -0.00000001      -0.00000136      -0.00000069      -0.00000226
O        1.57673886       1.11492259       5.24388621      -0.00010568      -0.00007671      -0.00000177
O        4.47837941       3.16669258       5.24388631       0.00010777       0.00007698      -0.00000025
O        3.75296933       1.11492293       3.98743873       0.00005594      -0.00007239      -0.00009415
O        2.30214876       3.16669253       6.50033348      -0.00005633       0.00007597       0.00009692
O        2.30214880       3.16669227       3.98743856      -0.00005108       0.00007352      -0.00009388
O        3.75296915       1.11492264       6.50033352       0.00005344      -0.00007924       0.00009403
