9
Lattice="5.490292565606228 -2.5805715440704683e-08 3.169821897487751 1.830097495828442 5.176297489837904 3.169821900450328 -4.751193594521633e-09 2.688060874447474e-10 6.339643803204851" Properties=species:S:1:pos:R:3:forces:R:3 energy=-55.964813232421875 free_energy=-55.964813232421875 stress="-7.052650471450761e-05 -1.5013423393384073e-08 6.915731542989079e-09 -1.5013423393384073e-08 -7.051163993310183e-05 -1.0582116516388851e-08 6.915731542989079e-09 -1.0582116516388851e-08 -7.053062290651724e-05" pbc="T T T"
Sc       1.83009779       1.29407375       3.16982199       0.00000258      -0.00000351      -0.00000019
Sc       5.49029246       3.88222370       9.50946609      -0.00000085       0.00000234       0.00000364
Ta      -0.00000014      -0.00000004      -0.00000019       0.00000299       0.00000061      -0.00000180
S        1.92365187       1.36022702       6.33964375      -0.00262718      -0.00185977      -0.00000069
S        5.39673828       3.81607046       6.33964371       0.00262658       0.00186087      -0.00000108
S        4.52846662       1.36022730       4.83575319       0.00131319      -0.00185969      -0.00227565
S        2.79192329       3.81607036       7.84353432      -0.00131579       0.00186040       0.00227793
S        2.79192363       3.81607033       4.83575320      -0.00131553       0.00185969      -0.00227803
S        4.52846652       1.36022705       7.84353438       0.00131409      -0.00186081       0.00227608
