9
Lattice="5.775315898278475 -1.0921121382657913e-08 3.3343801256702617 1.9251052942037319 5.445020017298246 3.334380116881653 5.643040616855397e-09 -6.773592458475402e-09 6.668760241566441" Properties=species:S:1:pos:R:3:forces:R:3 energy=-50.52238845825195 free_energy=-50.52238845825195 stress="-4.1194260120391846e-05 -2.2446167147194274e-09 1.6409398284622512e-08 -2.2446167147194274e-09 -4.120734956813976e-05 -2.0253454025009887e-08 1.6409398284622512e-08 -2.0253454025009887e-08 -4.116101990803145e-05" pbc="T T T"
Sc       1.92510520       1.36125522       3.33437983      -0.00000067       0.00000246      -0.00000187
Sc       5.77531547       4.08376554      10.00314081      -0.00000425       0.00000269       0.00000169
Ta       0.00000002      -0.00000006      -0.00000018      -0.00000044      -0.00000673       0.00000310
Se       2.01248274       1.42303997       6.66876047      -0.00028544      -0.00020554      -0.00000122
Se       5.68793857       4.02197960       6.66876004       0.00029033       0.00020363      -0.00000086
Se       4.76907479       1.42303995       5.07724114       0.00014314      -0.00020303      -0.00024634
Se       2.93134665       4.02197975       8.26027935      -0.00014069       0.00020219       0.00024994
Se       2.93134693       4.02197995       5.07724133      -0.00014434       0.00020590      -0.00025183
Se       4.76907444       1.42304002       8.26027920       0.00014243      -0.00020145       0.00024711
