9
Lattice="5.913052403252905 1.0186577079851025e-08 3.4139024616652662 1.971017369342994 5.574879549111314 3.413902648747507 -3.1964819466636956e-08 2.0652545804599807e-07 6.827804978695243" Properties=species:S:1:pos:R:3:forces:R:3 energy=-37.38728332519531 free_energy=-37.38728332519531 stress="0.00013452162966132164 -2.7806728031265493e-09 -1.0101134151341284e-08 -2.7806728031265493e-09 0.0001345031923847273 -1.6054748641636252e-08 -1.0101134151341284e-08 -1.6054748641636252e-08 0.00013459894398692995" pbc="T T T"
Sc       1.97101668       1.39372308       3.41390082      -0.00000861       0.00003177      -0.00001387
Sc       5.91305320       4.18115707      10.24170797       0.00000863      -0.00002904       0.00000496
Te       0.00000036       0.00000028      -0.00000132      -0.00000765      -0.00000279       0.00001651
Se       2.11534184       1.49577485       6.82780622      -0.00574656      -0.00404938       0.00000736
Se       5.76872760       4.07910477       6.82780568       0.00575098       0.00405122      -0.00000066
Se       4.85538166       1.49577472       5.24584304       0.00288009      -0.00405627      -0.00498196
Se       3.02868797       4.07910568       8.40976744      -0.00287386       0.00404854       0.00497530
Se       3.02868870       4.07910526       5.24584295      -0.00287550       0.00405866      -0.00498170
Se       4.85538095       1.49577343       8.40976759       0.00287245      -0.00405285       0.00497422
