9
Lattice="5.325806764601098 9.412238198307237e-08 3.0748558891840982 1.7752689678854896 5.021218996472292 3.07485596260163 -7.595445198242262e-08 3.620984703359029e-08 6.149711909925145" Properties=species:S:1:pos:R:3:forces:R:3 energy=-52.43008041381836 free_energy=-52.43008041381836 stress="-0.0001779980375431478 1.81899633133753e-08 -2.400874876684611e-08 1.81899633133753e-08 -0.0001779625308699906 4.184025215181464e-08 -2.400874876684611e-08 4.184025215181464e-08 -0.00017802616639528424" pbc="T T T"
Sc       1.77526939       1.25530487       3.07485617       0.00000344       0.00000032       0.00000257
Sc       5.32580670       3.76591416       9.22456788      -0.00000132      -0.00000116      -0.00000334
V        0.00000013      -0.00000013      -0.00000021      -0.00000156       0.00000052      -0.00000072
S        1.83235531       1.29567112       6.14971212      -0.00425512      -0.00300860       0.00000195
S        5.26871994       3.72554790       6.14971244       0.00425610       0.00301039       0.00000378
S        4.40962854       1.29567121       4.66172164       0.00212455      -0.00301030      -0.00368845
S        2.69144624       3.72554791       7.63770133      -0.00212966       0.00300911       0.00368401
S        2.69144704       3.72554813       4.66172189      -0.00212339       0.00300729      -0.00368375
S        4.40962933       1.29567131       7.63770169       0.00212708      -0.00300756       0.00368357
