9
Lattice="5.617383637921982 2.3242318948170702e-08 3.2431979612365027 1.8724612358653976 5.2961198082544385 3.2431979589646045 8.461484823943148e-08 5.70492634275026e-08 6.486395775915718" Properties=species:S:1:pos:R:3:forces:R:3 energy=-47.412757873535156 free_energy=-47.412757873535156 stress="-0.00013734008825849742 2.6271463227089953e-08 -1.1730767468520753e-08 2.6271463227089953e-08 -0.0001373547565890476 1.7906719662619253e-08 -1.1730767468520753e-08 1.7906719662619253e-08 -0.00013736754772253335" pbc="T T T"
Sc       1.87246151       1.32402921       3.24319782      -0.00000022      -0.00000512       0.00000137
Sc       5.61738428       3.97209196       9.72959333       0.00000464       0.00001550      -0.00000547
V       -0.00000007       0.00000021       0.00000022      -0.00000077      -0.00000305       0.00000146
Se       1.92694637       1.36255629       6.48639589       0.00095043       0.00066951       0.00000002
Se       5.56289870       3.93356284       6.48639616      -0.00094885      -0.00067046       0.00000112
Se       4.65390991       1.36255572       4.91198285      -0.00047760       0.00066552       0.00082338
Se       2.83593450       3.93356328       8.06080877       0.00047390      -0.00067078      -0.00082541
Se       2.83593439       3.93356347       4.91198253       0.00047551      -0.00067028       0.00082624
Se       4.65391024       1.36255656       8.06080927      -0.00047697       0.00066906      -0.00082248
