9
Lattice="6.104546398777217 7.51749846994698e-08 3.5244615485865083 2.034848858388559 5.75542169927571 3.5244615695088197 -2.106490099472832e-08 1.0729360529101185e-08 7.048923133658477" Properties=species:S:1:pos:R:3:forces:R:3 energy=-43.14433288574219 free_energy=-43.14433288574219 stress="8.914109457691666e-06 -9.605498618725505e-09 3.2062188459747176e-09 -9.605498618725505e-09 8.916297701944131e-06 -1.1220455675697849e-08 3.2062188459747176e-09 -1.1220455675697849e-08 8.917627383198123e-06" pbc="T T T"
Sc       2.03484921       1.43885583       3.52446166       0.00000259       0.00000182       0.00000131
Sc       6.10454591       4.31656537      10.57338419      -0.00000182      -0.00000428      -0.00000173
V       -0.00000014      -0.00000010      -0.00000029       0.00000054       0.00000042       0.00000476
Te       2.11211835       1.49349347       7.04892309       0.00058322       0.00041303       0.00000091
Te       6.02727689       4.26192839       7.04892302      -0.00058360      -0.00041285       0.00000163
Te       5.04848710       1.49349382       5.35360978      -0.00029087       0.00041148       0.00050360
Te       3.09090822       4.26192862       8.74423685       0.00029467      -0.00041491      -0.00050755
Te       3.09090812       4.26192818       5.35360983       0.00028867      -0.00040981       0.00050321
Te       5.04848730       1.49349357       8.74423690      -0.00029336       0.00041510      -0.00050612
