9
Lattice="4.382139383266562 -4.0607520350905264e-08 2.5300293569462946 1.4607131019323347 4.131520621494834 2.5300293353615833 -4.1347155791863454e-08 -5.5672643617885455e-08 5.060058785508" Properties=species:S:1:pos:R:3:forces:R:3 energy=-66.92029571533203 free_energy=-66.92029571533203 stress="-7.130143785616383e-05 2.2987611814073716e-08 -5.2092172353468413e-08 2.2987611814073716e-08 -7.134788029361516e-05 -9.955958546470356e-08 -5.2092172353468413e-08 -9.955958546470356e-08 -7.126545096980408e-05" pbc="T T T"
Sc       1.46071338       1.03287997       2.53002918       0.00000129      -0.00000129      -0.00000285
Sc       4.38213932       3.09864065       7.59008820       0.00000037       0.00000088      -0.00000062
V       -0.00000002      -0.00000008      -0.00000021      -0.00000120      -0.00000075       0.00000738
O        1.50704077       1.06563857       5.06005887       0.00051370       0.00035954       0.00000171
O        4.33581160       3.06588206       5.06005917      -0.00051123      -0.00035807      -0.00000083
O        3.62861896       1.06563872       3.83516489      -0.00025864       0.00036381       0.00044475
O        2.21423332       3.06588188       6.28495252       0.00025572      -0.00036374      -0.00044711
O        2.21423341       3.06588165       3.83516468       0.00025946      -0.00036216       0.00044405
O        3.62861903       1.06563860       6.28495260      -0.00025870       0.00036182      -0.00044765
