9
Lattice="4.556180884648138 8.057578609247558e-09 2.6305121717896736 1.5187269822459344 4.295608425263258 2.6305121491001517 4.3666889816255725e-08 3.088283607868128e-09 5.261024267946064" Properties=species:S:1:pos:R:3:forces:R:3 energy=-67.14478302001953 free_energy=-67.14478302001953 stress="0.0005107720498926938 -1.038018204724267e-08 -3.64762549054376e-08 -1.038018204724267e-08 0.0005107919569127262 3.026997674737686e-08 -3.64762549054376e-08 3.026997674737686e-08 0.0005107089527882636" pbc="T T T"
Sc       1.51872741       1.07390235       2.63051274       0.00000712       0.00000195       0.00000678
Sc       4.55618075       3.22170609       7.89153655       0.00000037      -0.00000256       0.00000334
W        0.00000014       0.00000004      -0.00000009      -0.00000182      -0.00000103      -0.00000334
O        1.55863794       1.10212341       5.26102415      -0.00313014      -0.00221074      -0.00000083
O        4.51626963       3.19348521       5.26102420       0.00313044       0.00221273      -0.00000296
O        3.77686175       1.10212347       3.98033197       0.00156489      -0.00221100      -0.00271034
O        2.29804614       3.19348501       6.54171649      -0.00156760       0.00221342       0.00270942
O        2.29804592       3.19348469       3.98033191      -0.00156808       0.00220993      -0.00270993
O        3.77686192       1.10212348       6.54171641       0.00156507      -0.00221211       0.00270891
