9
Lattice="5.782219712190391 9.605157235809027e-08 3.3383663614777728 1.9274067230861798 5.4515291000079795 3.3383662544409387 1.259077778374557e-07 -4.206255755758155e-08 6.676732504876894" Properties=species:S:1:pos:R:3:forces:R:3 energy=-50.100337982177734 free_energy=-50.100337982177734 stress="-5.886664075660519e-05 7.681161662276281e-08 -6.609675917701452e-09 7.681161662276281e-08 -5.889487511012703e-05 -5.278657955187782e-09 -6.609675917701452e-09 -5.278657955187782e-09 -5.8941292081726715e-05" pbc="T T T"
Sc       1.92740651       1.36288159       3.33836673       0.00000127      -0.00000389       0.00000266
Sc       5.78221978       4.08864719      10.01509981      -0.00000206       0.00000336       0.00000680
W        0.00000008       0.00000005       0.00000046       0.00000104      -0.00000413      -0.00000735
Se       1.98473332       1.40341820       6.67673255      -0.00229616      -0.00162660      -0.00000118
Se       5.72489299       4.04811091       6.67673201       0.00229940       0.00162783      -0.00000342
Se       4.78985338       1.40341812       5.05719494       0.00114332      -0.00161897      -0.00198284
Se       2.91977331       4.04811116       8.29626957      -0.00114875       0.00162657       0.00198759
Se       2.91977342       4.04811120       5.05719519      -0.00114531       0.00162105      -0.00198747
Se       4.78985347       1.40341820       8.29626921       0.00114742      -0.00162525       0.00198515
