9
Lattice="6.21119280186142 4.191240328476787e-09 3.586033860791638 2.070397615559345 5.855968782986642 3.5860338417610573 3.657645920677672e-08 2.5558308213474414e-09 7.1720676582309775" Properties=species:S:1:pos:R:3:forces:R:3 energy=-45.30143356323242 free_energy=-45.30143356323242 stress="-0.00011187048221472651 3.147327376495923e-08 1.9619918134594627e-08 3.147327376495923e-08 -0.00011187959898961708 -3.613249788259054e-08 1.9619918134594627e-08 -3.613249788259054e-08 -0.00011189023643964902" pbc="T T T"
Sc       2.07039757       1.46399224       3.58603373      -0.00000054       0.00000045      -0.00000033
Sc       6.21119276       4.39197649      10.75810176      -0.00000147      -0.00000081       0.00000020
W       -0.00000016      -0.00000011      -0.00000017       0.00000155       0.00000381       0.00000156
Te       2.16609396       1.53165964       7.17206762      -0.00344016      -0.00243221      -0.00000078
Te       6.11549677       4.32430931       7.17206761       0.00343659       0.00243027       0.00000032
Te       5.12814596       1.53165961       5.46192612       0.00171825      -0.00242858      -0.00297706
Te       3.15344451       4.32430920       8.88220935      -0.00171696       0.00242727       0.00297307
Te       3.15344469       4.32430913       5.46192616      -0.00171821       0.00243041      -0.00297590
Te       5.12814577       1.53165964       8.88220928       0.00172098      -0.00243058       0.00297905
