9
Lattice="5.468612222139117 -1.5110863554759198e-08 3.1573047049590492 1.8228707415263627 5.155856850432453 3.157304678874394 3.400091593527973e-09 -2.9542796929131764e-08 6.31460940402894" Properties=species:S:1:pos:R:3:forces:R:3 energy=-55.119136810302734 free_energy=-55.119136810302734 stress="-3.465768531896174e-05 -6.427536192177286e-08 -3.044688057229905e-08 -6.427536192177286e-08 -3.461439337115735e-05 6.731736590381843e-08 -3.044688057229905e-08 6.731736590381843e-08 -3.459837535046972e-05" pbc="T T T"
Sc       1.82287232       1.28896405       3.15730457       0.00000976       0.00000018      -0.00000144
Sc       5.46861271       3.86689294       9.47191424       0.00000239       0.00000279       0.00000139
W       -0.00000011       0.00000011      -0.00000016      -0.00000005       0.00000084       0.00000111
S        1.88931572       1.33594732       6.31460973      -0.00468519      -0.00331376       0.00000096
S        5.40216717       3.81990939       6.31460927       0.00468266       0.00331411      -0.00000101
S        4.52395385       1.33594832       4.79349993       0.00234391      -0.00331770      -0.00406340
S        2.76752859       3.81990885       7.83571874      -0.00234653       0.00331536       0.00406203
S        2.76752794       3.81990869       4.79349991      -0.00234699       0.00331225      -0.00405788
S        4.52395371       1.33594755       7.83571892       0.00233994      -0.00331412       0.00405803
