9
Lattice="5.936882347100466 -7.060685759123772e-08 3.427660513830932 1.9789606787636254 5.5973464350656394 3.4276605779764484 -1.3304223291721161e-07 -1.551321685326728e-08 6.855321258097773" Properties=species:S:1:pos:R:3:forces:R:3 energy=-43.318702697753906 free_energy=-43.318702697753906 stress="3.450478470767848e-05 -2.3926508774252397e-08 8.695085540466607e-09 -2.3926508774252397e-08 3.456520789768547e-05 -1.5834674016446115e-08 8.695085540466607e-09 -1.5834674016446115e-08 3.457714774413034e-05" pbc="T T T"
Sc       1.97896037       1.39933597       3.42766017      -0.00000115      -0.00000593      -0.00000179
Sc       5.93688136       4.19800939      10.28298110      -0.00000730      -0.00000135      -0.00000902
Y       -0.00000059      -0.00000038       0.00000040       0.00000772       0.00001532      -0.00000275
Se       2.13801651       1.51180555       6.85532151      -0.00122377      -0.00086634       0.00000240
Se       5.77782718       4.08554072       6.85532128       0.00121641       0.00085990       0.00000225
Se       4.86787386       1.51180614       5.27923688       0.00060861      -0.00086437      -0.00106092
Se       3.04796933       4.08554056       8.43140564      -0.00060715       0.00086217       0.00105827
Se       3.04796887       4.08554103       5.27923707      -0.00060879       0.00086561      -0.00105114
Se       4.86787472       1.51180632       8.43140525       0.00061531      -0.00086488       0.00106241
