9
Lattice="5.64212651995871 4.288967862430786e-08 3.2574832512517644 1.8807089069935619 5.319447775615712 3.257483205230289 3.455643233001354e-08 -3.192952377517004e-08 6.514966442650042" Properties=species:S:1:pos:R:3:forces:R:3 energy=-47.27782440185547 free_energy=-47.27782440185547 stress="-2.164952820749022e-05 7.093117915246694e-08 -3.831878814253287e-08 7.093117915246694e-08 -2.1766260033473372e-05 1.3739469117979297e-08 -3.831878814253287e-08 1.3739469117979297e-08 -2.1797970475745387e-05" pbc="T T T"
Sc       1.88070837       1.32986110       3.25748325      -0.00000354      -0.00000587       0.00000094
Sc       5.64212696       3.98958613       9.77244766       0.00000342       0.00000313      -0.00001953
Y       -0.00000001       0.00000027      -0.00000057      -0.00000211      -0.00000828       0.00001235
S        2.03473925       1.43877703       6.51496647      -0.00317127      -0.00224626      -0.00000017
S        5.48809631       3.88067064       6.51496731       0.00317827       0.00224719       0.00001076
S        4.62475712       1.43877732       5.01961909       0.00158877      -0.00224727      -0.00274296
S        2.89807870       3.88067051       8.01031415      -0.00158206       0.00224346       0.00274473
S        2.89807773       3.88067045       5.01961909      -0.00159431       0.00224612      -0.00274589
S        4.62475739       1.43877753       8.01031492       0.00158251      -0.00223198       0.00273927
