9
Lattice="6.420556577889502 -4.020724107628245e-08 3.706910049602191 2.1401855197080155 6.053358560034687 3.7069099947782798 3.3040377270298994e-08 -4.3782230708458935e-08 7.41382004197675" Properties=species:S:1:pos:R:3:forces:R:3 energy=-40.60383987426758 free_energy=-40.60383987426758 stress="-2.5646595531725325e-05 -8.598624923195075e-09 -4.258857710937036e-09 -8.598624923195075e-09 -2.564361784607172e-05 6.078905823159175e-09 -4.258857710937036e-09 6.078905823159175e-09 -2.5638524675741792e-05" pbc="T T T"
Sc       2.14018573       1.51333961       3.70690981       0.00000045       0.00000045      -0.00000023
Sc       6.42055646       4.54001914      11.12072960       0.00000012      -0.00000039      -0.00000154
Y       -0.00000010      -0.00000014      -0.00000012      -0.00000021      -0.00000095      -0.00000087
Te       2.33009702       1.64762708       7.41381999       0.00046375       0.00032830      -0.00000034
Te       6.23064519       4.40573140       7.41382014      -0.00046302      -0.00032708       0.00000109
Te       5.25550818       1.64762717       5.72483334      -0.00023247       0.00032742       0.00040196
Te       3.30523417       4.40573108       9.10280709       0.00023136      -0.00032800      -0.00040083
Te       3.30523386       4.40573118       5.72483336       0.00023126      -0.00032666       0.00040083
Te       5.25550805       1.64762734       9.10280710      -0.00023116       0.00032706      -0.00040012
