9
Lattice="4.6575214224494665 -1.3768357506683624e-07 2.689021231857285 1.552507005346086 4.3911534637637875 2.689021241662557 -1.0132007133196271e-07 -5.963512589502596e-08 5.37804263920609" Properties=species:S:1:pos:R:3:forces:R:3 energy=-60.7353515625 free_energy=-60.7353515625 stress="5.707036689273082e-05 -8.92100118221606e-08 3.1441125258879765e-08 -8.92100118221606e-08 5.704144496121444e-05 -3.144996085779894e-08 3.1441125258879765e-08 -3.144996085779894e-08 5.7274330174550414e-05" pbc="T T T"
Sc       1.55250719       1.09778899       2.68902170       0.00000002       0.00000585       0.00000655
Sc       4.65752120       3.29336468       8.06706460      -0.00000078      -0.00000167       0.00000385
Y        0.00000008       0.00000011      -0.00000013       0.00000148       0.00000291      -0.00000430
O        1.70714956       1.20713713       5.37804192      -0.00022772      -0.00016157      -0.00000412
O        4.50287896       3.18401592       5.37804183       0.00022721       0.00015625      -0.00000577
O        3.80394641       1.20713681       4.16745620       0.00011367      -0.00016102      -0.00019619
O        2.40608188       3.18401615       6.58862908      -0.00011376       0.00016135       0.00019798
O        2.40608156       3.18401588       4.16745607      -0.00011501       0.00015961      -0.00019935
O        3.80394629       1.20713734       6.58862935       0.00011504      -0.00016180       0.00020090
