9
Lattice="6.329843491819709 8.548404305285042e-08 3.6545367749753446 2.109947867273308 5.967833745743381 3.6545368510615632 -6.328668600642778e-08 4.843574075081947e-08 7.309073659566462" Properties=species:S:1:pos:R:3:forces:R:3 energy=-43.2823600769043 free_energy=-43.2823600769043 stress="-8.015555795282125e-05 4.1079601942328736e-08 -7.189751460856542e-09 4.1079601942328736e-08 -8.017360232770443e-05 2.378332553121254e-08 -7.189751460856542e-09 2.378332553121254e-08 -8.017891377676278e-05" pbc="T T T"
Sc       2.10994786       1.49195841       3.65453660       0.00000088      -0.00000046      -0.00000104
Sc       6.32984333       4.47587535      10.96361016      -0.00000022       0.00000047      -0.00000224
Zr      -0.00000009      -0.00000006      -0.00000050       0.00000208       0.00000158       0.00001539
Te       2.24806542       1.58962251       7.30907358      -0.00227769      -0.00161023       0.00000194
Te       6.19172619       4.37821176       7.30907371       0.00227441       0.00160785       0.00000273
Te       5.20581063       1.58962248       5.60141856       0.00114086      -0.00161246      -0.00197192
Te       3.23398021       4.37821186       9.01672917      -0.00113251       0.00160192       0.00196406
Te       3.23398056       4.37821140       5.60141854      -0.00113910       0.00161148      -0.00197065
Te       5.20581104       1.58962180       9.01672930       0.00113118      -0.00159999       0.00196169
