9
Lattice="5.499811735138982 2.914305966964276e-08 3.1753177613335946 1.8332705960026667 5.185272077913114 3.1753177784001254 -1.7990191514323434e-08 8.181117867575394e-09 6.350635553827125" Properties=species:S:1:pos:R:3:forces:R:3 energy=-52.09979248046875 free_energy=-52.09979248046875 stress="-3.3529202482895926e-05 1.9898463321510462e-08 3.717252505808233e-09 1.9898463321510462e-08 -3.353241118020378e-05 -4.059654834520643e-09 3.717252505808233e-09 -4.059654834520643e-09 -3.353861757204868e-05" pbc="T T T"
Sc       1.83327022       1.29631804       3.17531780      -0.00000494       0.00000089       0.00000032
Sc       5.49981221       3.88895435       9.52595333       0.00000494       0.00000154      -0.00000072
Zr      -0.00000009       0.00000009       0.00000015       0.00000392      -0.00000187       0.00000066
S        1.95852555       1.38488682       6.35063556      -0.00097361      -0.00068848       0.00000125
S        5.37455697       3.80038530       6.35063541       0.00097024       0.00068533      -0.00000085
S        4.52054892       1.38488636       4.87145071       0.00048675      -0.00068778      -0.00084031
S        2.81253317       3.80038543       7.82982036      -0.00048751       0.00068824       0.00084150
S        2.81253317       3.80038531       4.87145079      -0.00048713       0.00068912      -0.00084177
S        4.52054907       1.38488676       7.82982026       0.00048751      -0.00068717       0.00084007
