9
Lattice="5.811451890002768 -9.032102479884379e-08 3.3552434205268495 1.9371505609863529 5.4790894905141885 3.3552433925698746 6.536502976379404e-08 1.197996410043223e-08 6.710486727838159" Properties=species:S:1:pos:R:3:forces:R:3 energy=-47.140052795410156 free_energy=-47.140052795410156 stress="-9.149513789452612e-05 1.966270879449894e-08 4.906853590114224e-08 1.966270879449894e-08 -9.148313984042034e-05 -3.054375596889258e-08 4.906853590114224e-08 -3.054375596889258e-08 -9.151727863354608e-05" pbc="T T T"
Sc       1.93715138       1.36977269       3.35524281       0.00000699       0.00000227      -0.00000746
Sc       5.81145130       4.10931663      10.06573148      -0.00000377       0.00000016       0.00000797
Zr       0.00000009       0.00000007      -0.00000008      -0.00000305       0.00000563       0.00000041
Se       2.05612936       1.45390299       6.71048676      -0.00342545      -0.00242204      -0.00000047
Se       5.69247291       4.02518667       6.71048630       0.00342441       0.00242426      -0.00000158
Se       4.78338747       1.45390333       5.13590347       0.00171245      -0.00242072      -0.00296965
Se       2.96521508       4.02518598       8.28507003      -0.00171253       0.00241748       0.00296397
Se       2.96521553       4.02518636       5.13590355      -0.00171105       0.00242024      -0.00296586
Se       4.78338691       1.45390294       8.28506989       0.00171179      -0.00242732       0.00297244
