9
Lattice="4.564306332242698 1.0233964140586769e-07 2.635203670357699 1.5214355097547931 4.303269422338339 2.6352037237271277 -5.542501929302861e-09 6.144477176603465e-08 5.27040735031529" Properties=species:S:1:pos:R:3:forces:R:3 energy=-66.805419921875 free_energy=-66.805419921875 stress="0.0002617343270685524 -1.2070860577750864e-07 8.389886119175571e-08 -1.2070860577750864e-07 0.0002613968390505761 3.095115630458167e-08 8.389886119175571e-08 3.095115630458167e-08 0.0002612920943647623" pbc="T T T"
Sc       1.52143500       1.07581750       2.63520345      -0.00000520       0.00000336      -0.00000537
Sc       4.56430746       3.22745227       7.90561070       0.00001431       0.00000153      -0.00000152
Zr       0.00000012       0.00000017      -0.00000020      -0.00000402      -0.00000329      -0.00000100
O        1.62716764       1.15058166       5.27040755      -0.00384152      -0.00271666       0.00000301
O        4.45857381       3.15268806       5.27040779       0.00384557       0.00271851       0.00000305
O        3.75072256       1.15058157       4.04437246       0.00192267      -0.00271955      -0.00332516
O        2.33501897       3.15268791       6.49644245      -0.00192592       0.00271565       0.00332737
O        2.33501898       3.15268801       4.04437291      -0.00192827       0.00271875      -0.00332516
O        3.75072266       1.15058132       6.49644221       0.00192234      -0.00271758       0.00332421
