9
Lattice="5.514679715977928 4.122183984159965e-08 3.183901570131853 1.8382266146603075 5.199290044796257 3.1839015635443255 -1.6294025407400145e-07 -1.2328422298307874e-07 6.367803422484543" Properties=species:S:1:pos:R:3:forces:R:3 energy=-28.2670841217041 free_energy=-28.2670841217041 stress="-7.312739762710407e-05 2.0019037094698433e-08 -3.0066622969116e-08 2.0019037094698433e-08 -7.32537591829896e-05 -7.373754495887397e-09 -3.0066622969116e-08 -7.373754495887397e-09 -7.31792752048932e-05" pbc="T T T"
Se       1.83822658       1.29982302       3.18390171       0.00000095       0.00000776       0.00000453
Se       5.51467990       3.89946904       9.55170503      -0.00000145       0.00000909       0.00000351
As       0.00000030       0.00000020       0.00000022      -0.00000750      -0.00000727       0.00000082
S        1.92581045       1.36175359       6.36780368      -0.00182992      -0.00129366       0.00000345
S        5.42709507       3.83753499       6.36780329       0.00183916       0.00129765       0.00000087
S        4.55177424       1.36175397       4.85170240       0.00091591      -0.00129694      -0.00158697
S        2.80113174       3.83753690       7.88390407      -0.00091493       0.00129554       0.00158411
S        2.80113185       3.83753536       4.85170170      -0.00091410       0.00129128      -0.00159115
S        4.55177442       1.36175275       7.88390415       0.00091186      -0.00130326       0.00158054
