9
Lattice="5.514621036903332 1.7957183836742588e-07 3.183868038614794 1.8382071815071952 5.199234111469306 3.1838680387807643 3.20755349177641e-08 2.2884140265893618e-08 6.367736021673132" Properties=species:S:1:pos:R:3:forces:R:3 energy=-28.267087936401367 free_energy=-28.267087936401367 stress="-9.43310878938064e-05 -6.198408009083778e-09 -3.60960221712503e-08 -6.198408009083778e-09 -9.447563206776977e-05 -1.0315123866178055e-08 -3.60960221712503e-08 -1.0315123866178055e-08 -9.445274918107316e-05" pbc="T T T"
Se       1.83820491       1.29980755       3.18386963      -0.00001117      -0.00000464       0.00001087
Se       5.51461938       3.89942614       9.55160453      -0.00001151       0.00000240       0.00000037
As       0.00000015       0.00000051       0.00000024       0.00000364      -0.00000438      -0.00000440
S        1.92575973       1.36171637       6.36773638      -0.00129205      -0.00091976      -0.00000168
S        5.42707030       3.83751627       6.36773671       0.00129646       0.00091118       0.00000046
S        4.55174176       1.36171806       4.85162300       0.00064689      -0.00091031      -0.00111952
S        2.80108719       3.83751792       7.88384625      -0.00064525       0.00092369       0.00112304
S        2.80108745       3.83751683       4.85162391      -0.00064108       0.00091606      -0.00112417
S        4.55174221       1.36171765       7.88384754       0.00065395      -0.00091401       0.00111458
