9
Lattice="4.491979683482966 3.955584687336094e-08 2.5934457016631534 1.4973266068208755 4.235079052453292 2.593445687172328 7.005211997935762e-09 -1.279411952402923e-08 5.186891391192931" Properties=species:S:1:pos:R:3:forces:R:3 energy=-42.34123992919922 free_energy=-42.34123992919922 stress="2.337031764909625e-05 -1.2743477384447033e-07 -2.6651811424471816e-08 -1.2743477384447033e-07 2.326608228031546e-05 7.53338724734931e-09 -2.6651811424471816e-08 7.53338724734931e-09 2.316043719474692e-05" pbc="T T T"
Se       1.49732628       1.05876981       2.59344535      -0.00000997       0.00000490      -0.00000564
Se       4.49198126       3.17630886       7.78033711       0.00002786      -0.00000821       0.00000011
As       0.00000012       0.00000013       0.00000011      -0.00000273      -0.00000135      -0.00000220
N        1.55661721       1.10069534       5.18689149       0.00085706       0.00061804       0.00000272
N        4.43268869       3.13438393       5.18689135      -0.00085938      -0.00061321      -0.00000027
N        3.71367123       1.10069491       3.94151633      -0.00042662       0.00061083       0.00074857
N        2.27563468       3.13438402       6.43226635       0.00041956      -0.00061107      -0.00074917
N        2.27563472       3.13438437       3.94151657       0.00042230      -0.00060833       0.00075388
N        3.71367112       1.10069498       6.43226646      -0.00042757       0.00060856      -0.00074863
