9
Lattice="4.723864362168785 -7.760559672942937e-08 2.7273242844758974 1.5746213630164658 4.453702200821794 2.727324315432088 -7.637064351044899e-08 -1.6088764039131384e-08 5.4546487012296385" Properties=species:S:1:pos:R:3:forces:R:3 energy=-39.12902069091797 free_energy=-39.12902069091797 stress="0.0002234347048215568 -2.0124321764569686e-08 4.8114934259047004e-08 -2.0124321764569686e-08 0.00022351625375449657 6.492490456366795e-08 4.8114934259047004e-08 6.492490456366795e-08 0.00022330560022965074" pbc="T T T"
Se       1.57461936       1.11342599       2.72732543      -0.00002020       0.00000180       0.00001370
Se       4.72386267       3.34027455       8.18197593      -0.00001889      -0.00001997       0.00003305
As      -0.00000004      -0.00000006      -0.00000032       0.00000383       0.00000053       0.00001923
O        1.48757979       1.05187813       5.45464824      -0.00371397      -0.00262564      -0.00000627
O        4.81090651       3.40182398       5.45464707       0.00372016       0.00262356      -0.00001322
O        3.98007532       1.05187868       4.01560563       0.00186884      -0.00262171      -0.00322562
O        2.31841163       3.40182475       6.89369071      -0.00185043       0.00262630       0.00320518
O        2.31841205       3.40182424       4.01560553      -0.00185025       0.00263083      -0.00322831
O        3.98007522       1.05187809       6.89369083       0.00186092      -0.00261545       0.00320101
