9
Lattice="4.4553019263895015 -4.388075042762038e-07 2.5722701815187334 1.4851006091339327 4.200497325454915 2.572269522099394 1.0353564689789729e-06 -7.551265783784901e-08 5.1445385697472" Properties=species:S:1:pos:R:3:forces:R:3 energy=-40.006805419921875 free_energy=-40.006805419921875 stress="0.00043716689106076956 9.282911150876316e-07 9.88831061476958e-07 9.282911150876316e-07 0.00043666912824846804 6.316766416603059e-07 9.88831061476958e-07 6.316766416603059e-07 0.0004415491421241313" pbc="T T T"
Se       1.48508624       1.05011837       2.57226690      -0.00012943       0.00001596      -0.00006910
Se       4.45530360       3.15038762       7.71679938      -0.00001947       0.00010367      -0.00005493
B        0.00000208       0.00000237       0.00000633       0.00002852      -0.00004533      -0.00010962
O        1.28856739       0.91115060       5.14454346       0.00163120       0.00112444      -0.00003419
O        4.65185263       3.28934195       5.14453888      -0.00176054      -0.00123352       0.00009574
O        3.81101907       0.91114847       3.68819925      -0.00082278       0.00113842       0.00147623
O        2.12937730       3.28934221       6.60088034       0.00094000      -0.00109899      -0.00142226
O        2.12938594       3.28934956       3.68819966       0.00087410      -0.00116247       0.00151294
O        3.81102143       0.91114731       6.60087866      -0.00074220       0.00115848      -0.00139520
