9
Lattice="5.466311986386113 -4.052819192505847e-08 3.1559775507423242 1.82210408412478 5.153689036258544 3.1559773309918207 6.078001642408874e-07 1.606413549594066e-07 6.311954048743983" Properties=species:S:1:pos:R:3:forces:R:3 energy=-30.59765625 free_energy=-30.59765625 stress="-0.00020928234152961522 1.5401693076455558e-07 1.7227509374606598e-07 1.5401693076455558e-07 -0.00020929514721501619 -7.874453311629281e-10 1.7227509374606598e-07 -7.874453311629281e-10 -0.0002093087969115004" pbc="T T T"
Se       1.82209694       1.28842012       3.15597897      -0.00005441      -0.00001450       0.00000885
Se       5.46630748       3.86526432       9.46793708      -0.00003512      -0.00001418       0.00004287
B       -0.00000097      -0.00000051      -0.00000052      -0.00000997       0.00000403       0.00001396
S        1.65754638       1.17206122       6.31195500       0.00624824       0.00442284       0.00000141
S        5.63087188       3.98162667       6.31195039      -0.00622517      -0.00439680      -0.00001108
S        4.63754488       1.17206237       4.59145429      -0.00310010       0.00441307       0.00539261
S        2.65087631       3.98163369       8.03245831       0.00315166      -0.00442743      -0.00544351
S        2.65087950       3.98162827       4.59145018       0.00313231      -0.00441039       0.00540131
S        4.63754360       1.17205999       8.03245229      -0.00310746       0.00442332      -0.00540680
