9
Lattice="4.6351776902793675 7.66632957576965e-08 2.676121196727739 1.5450592821013667 4.370087756251849 2.67612123183746 -2.391813888092735e-08 2.608776273732098e-08 5.352242434882917" Properties=species:S:1:pos:R:3:forces:R:3 energy=-43.677513122558594 free_energy=-43.677513122558594 stress="-0.00016521058569196612 -8.481362101520062e-08 -6.18389393025609e-08 -8.481362101520062e-08 -0.000165109260706231 4.8133948382655944e-08 -6.18389393025609e-08 4.8133948382655944e-08 -0.00016484454681631178" pbc="T T T"
Se       1.54506388       1.09252302       2.67612081       0.00007844       0.00001765      -0.00000694
Se       4.63517633       3.27756535       8.02836401      -0.00002904      -0.00001162       0.00000527
Cr      -0.00000042       0.00000023      -0.00000001       0.00000577      -0.00000739       0.00000179
O        1.56203662       1.10452681       5.35224229      -0.00248861      -0.00176543       0.00000214
O        4.61819928       3.26556117       5.35224236       0.00247777       0.00176340      -0.00000041
O        3.85415846       1.10452734       4.02888420       0.00122714      -0.00175679      -0.00216734
O        2.32607749       3.26555997       6.67560061      -0.00125265       0.00176072       0.00217927
O        2.32607758       3.26556050       4.02888491      -0.00124532       0.00176030      -0.00217509
O        3.85415855       1.10452711       6.67560029       0.00122786      -0.00176036       0.00216126
