9
Lattice="4.4919579102790745 5.59722778549694e-08 2.593433181779923 1.497319437007982 4.235057123858954 2.593433041812162 3.2569249402157234e-07 5.8874540769806864e-08 5.186865799443945" Properties=species:S:1:pos:R:3:forces:R:3 energy=-38.98726272583008 free_energy=-38.98726272583008 stress="3.2940581149887294e-05 -8.21302066356111e-08 -2.5910136969287123e-07 -8.21302066356111e-08 3.4059987228829414e-05 -1.5042218137750751e-07 -2.5910136969287123e-07 -1.5042218137750751e-07 3.301289689261466e-05" pbc="T T T"
Se       1.49731986       1.05876863       2.59343208       0.00000631       0.00004182      -0.00002593
Se       4.49195850       3.17628964       7.78029477       0.00000249      -0.00002196      -0.00005367
C       -0.00000006       0.00000084      -0.00000011       0.00000431      -0.00000142      -0.00000520
O        1.29318306       0.91441742       5.18686652      -0.00286996      -0.00201833       0.00000841
O        4.69609390       3.32063916       5.18686761       0.00286424       0.00201201       0.00001923
O        3.84536694       0.91441817       3.71336288       0.00143623      -0.00201702      -0.00246620
O        2.14391080       3.32063867       6.66037059      -0.00143683       0.00201035       0.00249219
O        2.14391052       3.32063837       3.71336240      -0.00144029       0.00200689      -0.00246477
O        3.84536722       0.91441807       6.66037137       0.00143343      -0.00201190       0.00249636
