9
Lattice="5.3195697554869374 -2.1326310444783098e-07 3.071254871724522 1.7731897923045374 5.015338268617472 3.0712547420368117 -4.009899994620218e-08 -1.8718873570201266e-07 6.1425098129025475" Properties=species:S:1:pos:R:3:forces:R:3 energy=-35.797332763671875 free_energy=-35.797332763671875 stress="-1.8513548639020883e-05 -1.674227090298075e-09 1.6984451178814197e-08 -1.674227090298075e-09 -1.8757831639959477e-05 2.344535410259141e-08 1.6984451178814197e-08 2.344535410259141e-08 -1.8654225641512312e-05" pbc="T T T"
Se       1.77318860       1.25383787       3.07125632      -0.00000975       0.00002555       0.00001576
Se       5.31956921       3.76150163       9.21376550      -0.00000874      -0.00001245       0.00000791
Cr      -0.00000071       0.00000026       0.00000168       0.00000802      -0.00000372      -0.00002206
S        1.81628300       1.28430653       6.14250952      -0.00259314      -0.00182988      -0.00000843
S        5.27647709       3.73103111       6.14250945       0.00259827       0.00182045      -0.00000562
S        4.41142775       1.28430495       4.64420016       0.00128845      -0.00182057      -0.00223450
S        2.68133236       3.73103150       7.64081703      -0.00129750       0.00183514       0.00225136
S        2.68133268       3.73103214       4.64420089      -0.00128968       0.00182186      -0.00224533
S        4.41142827       1.28430538       7.64081697       0.00130408      -0.00183634       0.00224072
