9
Lattice="4.984847965222306 -5.41610576380385e-07 2.8780026017365157 1.6616154315880702 4.699761060545641 2.8780026817297797 -9.861093975675494e-07 -5.993135482136321e-07 5.756006911464518" Properties=species:S:1:pos:R:3:forces:R:3 energy=-29.612655639648438 free_energy=-29.612655639648438 stress="4.092762537766248e-05 4.6924601093678575e-08 -9.879762785658386e-08 4.6924601093678575e-08 4.114679904887453e-05 -2.548975785998664e-08 -9.879762785658386e-08 -2.548975785998664e-08 4.105420521227643e-05" pbc="T T T"
Se       1.66163237       1.17496737       2.87798008       0.00031604       0.00054562      -0.00031123
Se       4.98486691       3.52484533       8.63402335       0.00035214       0.00052129      -0.00001489
C        0.00012791       0.00024349      -0.00011122       0.00128701       0.00242659      -0.00109032
S        1.70249038       1.20382581       5.75601952      -0.00304523      -0.00243039       0.00019300
S        4.94383186       3.49579672       5.75601187       0.00188506       0.00105398       0.00014263
S        4.13355628       1.20387181       4.35246880       0.00100473      -0.00215816      -0.00198635
S        2.51287248       3.49583297       7.15955555      -0.00152822       0.00126015       0.00230230
S        2.51290403       3.49581993       4.35251315      -0.00134642       0.00117091      -0.00174493
S        4.13356653       1.20383702       7.15958890       0.00107489      -0.00238991       0.00250980
