9
Lattice="4.762180778694658 4.014901229889612e-08 2.7494464424020357 1.587393595054798 4.489826782459938 2.749446504229723 -6.559307102113934e-08 2.9341877143635734e-08 5.498892998414583" Properties=species:S:1:pos:R:3:forces:R:3 energy=-38.15053176879883 free_energy=-38.15053176879883 stress="-1.8915726514023845e-06 -4.9116152922579204e-08 -1.35430099135192e-07 -4.9116152922579204e-08 -1.462521254325111e-06 -6.376858863177404e-08 -1.35430099135192e-07 -6.376858863177404e-08 -2.2057599835534347e-06" pbc="T T T"
Se       1.58739770       1.12246089       2.74944753       0.00004689       0.00004763       0.00001258
Se       4.76218058       3.36736664       8.24833759      -0.00000116      -0.00004081      -0.00001899
Co      -0.00000017      -0.00000002       0.00000020      -0.00000821      -0.00000104       0.00000898
O        1.47454456       1.04266207       5.49889241      -0.00003761      -0.00000882      -0.00000479
O        4.87502887       3.44716534       5.49889340       0.00003344       0.00001734       0.00000515
O        4.02490662       1.04266153       4.02643931       0.00000012      -0.00001508      -0.00003648
O        2.32466649       3.44716429       6.97134673      -0.00001487       0.00000280       0.00003117
O        2.32466547       3.44716450       4.02643986      -0.00002405       0.00000346      -0.00003219
O        4.02490706       1.04266229       6.97134686       0.00000584      -0.00000614       0.00003541
