9
Lattice="4.576398006656225 -1.40384228812046e-10 2.642184719785429 1.5254660029924962 4.314669538290282 2.642184718215959 1.7198499700797543e-08 1.0238994567519974e-08 5.284369409782176" Properties=species:S:1:pos:R:3:forces:R:3 energy=-38.716209411621094 free_energy=-38.716209411621094 stress="0.00010233420471195132 -2.0824080237957787e-08 -1.9954198648974852e-07 -2.0824080237957787e-08 0.0001019267801893875 -1.6238712419180956e-07 -1.9954198648974852e-07 -1.6238712419180956e-07 0.00010247423779219389" pbc="T T T"
Se       1.52546781       1.07866567       2.64218381       0.00002973      -0.00002622      -0.00000916
Se       4.57640003       3.23600546       7.92654665       0.00002801       0.00005164      -0.00011598
Fe      -0.00000023       0.00000002       0.00000047       0.00000027      -0.00000558       0.00000719
O        1.53112845       1.08267075       5.28436971      -0.00108808      -0.00078303       0.00000302
O        4.57073495       3.23199909       5.28437263       0.00107563       0.00078207       0.00004713
O        3.81083262       1.08266951       3.96818218       0.00052425      -0.00080127      -0.00092340
O        2.29103032       3.23199804       6.60055885      -0.00053880       0.00077894       0.00095779
O        2.29102868       3.23199853       3.96818222      -0.00057000       0.00077692      -0.00092214
O        3.81083333       1.08267119       6.60055893       0.00053838      -0.00077355       0.00095469
