9
Lattice="5.400636464374838 2.2344589158191026e-07 3.1180588568591134 1.8002123703165793 5.09176888875278 3.118058848444656 7.818058618791267e-08 4.4976425586608914e-08 6.236117578305492" Properties=species:S:1:pos:R:3:forces:R:3 energy=-35.01847839355469 free_energy=-35.01847839355469 stress="6.763239798601717e-05 1.314957103204506e-07 2.4259662723125075e-08 1.314957103204506e-07 6.744293204974383e-05 -4.491459293376465e-08 2.4259662723125075e-08 -4.491459293376465e-08 6.748773012077436e-05" pbc="T T T"
Se       1.80021182       1.27294234       3.11805805      -0.00000272      -0.00000333      -0.00000765
Se       5.40063744       3.81882716       9.35417621       0.00000758       0.00000283      -0.00000065
Fe       0.00000050      -0.00000108      -0.00000115      -0.00000458       0.00002483       0.00002019
S        1.79326475       1.26802999       6.23611792      -0.00232095      -0.00163922       0.00000314
S        5.40758493       3.82374000       6.23611804       0.00230831       0.00162998       0.00000144
S        4.50400450       1.26802885       4.67107124       0.00115979      -0.00163710      -0.00200325
S        2.69684297       3.82374112       7.80116529      -0.00114650       0.00162005       0.00198451
S        2.69684403       3.82373996       4.67107093      -0.00115314       0.00163168      -0.00199625
S        4.50400477       1.26802830       7.80116483       0.00115252      -0.00162962       0.00199842
