9
Lattice="5.406639655976555 2.9105292601382334e-07 3.1215250657861104 1.8022133693669153 5.097429122047488 3.12152528003949 9.922637779303977e-08 3.3256938658159407e-07 6.243049959707087" Properties=species:S:1:pos:R:3:forces:R:3 energy=-26.456947326660156 free_energy=-26.456947326660156 stress="2.891437179641798e-05 2.274982335848108e-08 -3.567194184483924e-08 2.274982335848108e-08 2.8855580239905976e-05 8.52198844825125e-09 -3.567194184483924e-08 8.52198844825125e-09 2.8990149075980298e-05" pbc="T T T"
Se       1.80221477       1.27435849       3.12152449       0.00001372       0.00001556      -0.00000733
Se       5.40663973       3.82307293       9.36457675      -0.00000304       0.00000625       0.00001198
Ga       0.00000029       0.00000005      -0.00000032      -0.00000206      -0.00000159       0.00000438
S        1.93382626       1.36742185       6.24304896      -0.00102412      -0.00072796      -0.00000262
S        5.27502704       3.73000696       6.24304890       0.00102884       0.00071862      -0.00000712
S        4.43972575       1.36742238       4.79626760       0.00050995      -0.00072920      -0.00089122
S        2.76912658       3.73000661       7.68983301      -0.00051234       0.00071690       0.00088946
S        2.76912665       3.73000746       4.79626857      -0.00051483       0.00072664      -0.00088691
S        4.43972543       1.36742230       7.68983322       0.00050387      -0.00072518       0.00088952
