9
Lattice="5.257811514150953 -0.19097921704889184 2.9520139338866076 1.3187574575183163 4.966020869243315 3.367703330165836 -0.5416522230641131 0.14098194101196654 6.784979299910976" Properties=species:S:1:pos:R:3:forces:R:3 energy=-54.91915512084961 free_energy=-54.91915512084961 stress="7.631775224581361e-05 -8.52485973155126e-05 -5.2510571549646556e-05 -8.52485973155126e-05 -0.00010231108899461105 3.281622412032448e-05 -5.2510571549646556e-05 3.281622412032448e-05 -4.1284514736616984e-05" pbc="T T T"
Se       2.63119378       1.70160544       2.48292230      -0.00175355      -0.00021726      -0.00118153
Se       4.04448519       2.75920351      10.10678071      -0.00067970       0.00141762       0.00054714
Ga      -0.56169550       0.38946853      -0.51311226       0.00053950      -0.00046021      -0.00062646
N        1.81041082       1.15643786       6.03209901      -0.00616300       0.00061937       0.00055360
N        4.18752012       3.02079676       7.06612786       0.00317359      -0.00051132      -0.00097880
N        2.88475531       1.39018579       6.37242154       0.00258887      -0.00043851       0.00072073
N        3.05833382       3.55080081       7.03937435      -0.00643861       0.00280063      -0.00118364
N        2.04065373       4.08807017       7.04460297       0.00613713      -0.00237875       0.00213109
N        4.04409843       1.60778676       6.78763148       0.00259542      -0.00083119       0.00001800
