9
Lattice="4.6332831869683755 8.534095187753499e-08 2.6750273137237377 1.5444278151317294 4.3683012921848405 2.6750273038821186 5.1986092906299825e-08 2.4706260157776142e-08 5.350054537404915" Properties=species:S:1:pos:R:3:forces:R:3 energy=-35.8702392578125 free_energy=-35.8702392578125 stress="0.00045646625221706927 -4.922263041606811e-09 1.7688317477393412e-09 -4.922263041606811e-09 0.0004563120601233095 -3.114240243462518e-08 1.7688317477393412e-09 -3.114240243462518e-08 0.000456207460956648" pbc="T T T"
Se       1.54442878       1.09207250       2.67502785       0.00001511      -0.00003775       0.00000982
Se       4.63328760       3.27622421       8.02508302       0.00006065      -0.00002651       0.00001050
Ga       0.00000025      -0.00000008      -0.00000009       0.00000157      -0.00000432       0.00000558
O        1.56420197       1.10605992       5.35005389      -0.00180602      -0.00124392      -0.00000641
O        4.61350712       3.26224427       5.35005386       0.00177771       0.00128353      -0.00000676
O        3.85118180       1.10605868       4.02966626       0.00088987      -0.00126123      -0.00155360
O        2.32652742       3.26224394       6.67044101      -0.00091481       0.00127664       0.00152373
O        2.32652768       3.26224362       4.02966782      -0.00091320       0.00127476      -0.00153151
O        3.85118158       1.10605862       6.67044300       0.00088891      -0.00126123       0.00154927
