9
Lattice="4.6419100819186285 1.6162879972915826e-07 2.680008170783577 1.5473034375611103 4.3764352403686555 2.680008301490172 5.3549534058716704e-08 1.9794751675984868e-07 5.360016248816591" Properties=species:S:1:pos:R:3:forces:R:3 energy=-38.60886001586914 free_energy=-38.60886001586914 stress="0.00017219963774550706 6.12214066109118e-08 5.974612804493518e-08 6.12214066109118e-08 0.00017196622502524406 -1.5367787398190558e-07 5.974612804493518e-08 -1.5367787398190558e-07 0.0001720311411190778" pbc="T T T"
Se       1.54730188       1.09410868       2.68000814      -0.00001732      -0.00000144       0.00000271
Se       4.64191073       3.28232601       8.04002439       0.00000415      -0.00000893       0.00000208
Ge      -0.00000006      -0.00000007       0.00000045      -0.00001093       0.00000240      -0.00001250
O        1.53219593       1.08342742       5.36001624       0.00095749       0.00068277       0.00000075
O        4.65701734       3.29300821       5.36001634      -0.00094879      -0.00067544      -0.00000182
O        3.87581225       1.08342692       4.00692936      -0.00047714       0.00068051       0.00083232
O        2.31340181       3.29300927       6.71310358       0.00048161      -0.00067598      -0.00083411
O        2.31340167       3.29300887       4.00692995       0.00048018      -0.00067621       0.00083447
O        3.87581271       1.08342704       6.71310297      -0.00046921       0.00067222      -0.00082469
