9
Lattice="4.6332833262866595 2.228649980332347e-08 2.675027349133635 1.5444278038604153 4.368301417808132 2.675027336282539 3.669045802421848e-08 1.0204716610139779e-08 5.350054634717548" Properties=species:S:1:pos:R:3:forces:R:3 energy=-35.8702392578125 free_energy=-35.8702392578125 stress="0.00045634128036908805 5.971735106413689e-08 -8.048336042065785e-08 5.971735106413689e-08 0.00045615999260917306 -1.1288955192867434e-07 -8.048336042065785e-08 -1.1288955192867434e-07 0.0004564091213978827" pbc="T T T"
Se       1.54443027       1.09207980       2.67502551       0.00003401       0.00006091      -0.00002614
Se       4.63328269       3.27622449       8.02508822      -0.00000796      -0.00002357       0.00008659
Ga       0.00000003       0.00000014       0.00000016       0.00000199      -0.00000017       0.00000604
O        1.56420254       1.10605873       5.35005538      -0.00179434      -0.00125939       0.00001179
O        4.61350887       3.26224237       5.35005122       0.00179785       0.00125474      -0.00004542
O        3.85118281       1.10606047       4.02966544       0.00090051      -0.00123611      -0.00156981
O        2.32652718       3.26224047       6.67044360      -0.00092259       0.00123152       0.00155923
O        2.32653017       3.26224160       4.02966493      -0.00087962       0.00124514      -0.00157565
O        3.85118000       1.10605771       6.67044285       0.00087029      -0.00127301       0.00155389
