9
Lattice="5.493914597341427 -1.3779052320066818e-08 3.171912915028396 1.8313047099808384 5.179712662752029 3.1719131623801795 -1.34107285352141e-07 2.081146911249326e-07 6.343826062337398" Properties=species:S:1:pos:R:3:forces:R:3 energy=-28.207786560058594 free_energy=-28.207786560058594 stress="-8.037763473112136e-05 8.196246170655286e-08 4.896492544759212e-09 8.196246170655286e-08 -8.048283780226484e-05 1.0795583449407786e-07 4.896492544759212e-09 1.0795583449407786e-07 -8.025003626244143e-05" pbc="T T T"
Se       1.83130463       1.29492770       3.17191513      -0.00000009      -0.00000511       0.00001011
Se       5.49391478       3.88478675       9.51573777       0.00000146       0.00001491      -0.00000846
Ge       0.00000033       0.00000015      -0.00000045      -0.00000927      -0.00000284       0.00000277
S        1.91543132       1.35441347       6.34382685      -0.00006691      -0.00005503      -0.00000266
S        5.40978828       3.82529745       6.34382715       0.00008038       0.00005336       0.00000883
S        4.53619827       1.35441511       4.83072481       0.00003375      -0.00005820      -0.00006902
S        2.78902052       3.82529956       7.85692607      -0.00003421       0.00005978       0.00006303
S        2.78901998       3.82529789       4.83072481      -0.00004354       0.00004952      -0.00006485
S        4.53619855       1.35441346       7.85692633       0.00003810      -0.00005636       0.00006038
