9
Lattice="5.5933284252965585 -1.7145652237032573e-07 3.229309878002893 1.86444267413554 5.273440384269382 3.2293098306241874 -5.5454710776298724e-08 -9.723925567734115e-08 6.458619852056173" Properties=species:S:1:pos:R:3:forces:R:3 energy=-36.333396911621094 free_energy=-36.333396911621094 stress="-6.379025580827147e-05 -1.670120752805815e-08 1.761922696630336e-08 -1.670120752805815e-08 -6.392197974491864e-05 -1.841003083313808e-08 1.761922696630336e-08 -1.841003083313808e-08 -6.389169720932841e-05" pbc="T T T"
Se       1.86444258       1.31835940       3.22930989      -0.00000163      -0.00000414      -0.00000139
Se       5.59332884       3.95508018       9.68792895       0.00000399       0.00000110      -0.00000350
Hf      -0.00000014       0.00000027       0.00000020       0.00000078      -0.00000276       0.00000003
S        2.01586226       1.42543029       6.45861986      -0.00560480      -0.00396368       0.00000066
S        5.44190864       3.84801010       6.45861990       0.00560468       0.00396503       0.00000209
S        4.58539715       1.42542965       4.97509800       0.00280284      -0.00395948      -0.00484985
S        2.87237385       3.84801027       7.94214138      -0.00280336       0.00396520       0.00485358
S        2.87237392       3.84801022       4.97509837      -0.00280552       0.00396525      -0.00485504
S        4.58539709       1.42543006       7.94214168       0.00280292      -0.00396653       0.00485361
