9
Lattice="4.712282757739686 3.429630525246219e-08 2.720637762089249 1.570760941234994 4.442782748765397 2.720637780009818 1.4466888902166232e-09 2.2971089711991543e-08 5.441275521672702" Properties=species:S:1:pos:R:3:forces:R:3 energy=-48.78974914550781 free_energy=-48.78974914550781 stress="3.2525716960662976e-05 -2.2212237382746025e-08 1.2444165697900189e-08 -2.2212237382746025e-08 3.255642513977364e-05 6.798418894504721e-08 1.2444165697900189e-08 6.798418894504721e-08 3.2273397664539516e-05" pbc="T T T"
Se       1.57076089       1.11069593       2.72063820      -0.00000319       0.00000362       0.00000473
Se       4.71228425       3.33208893       8.16191312       0.00001470       0.00001952      -0.00000179
Hf       0.00000004       0.00000008       0.00000020       0.00000025       0.00000145      -0.00000015
O        1.67495765       1.18437326       5.44127514      -0.00105929      -0.00075588      -0.00000380
O        4.60808595       3.25840883       5.44127574       0.00106382       0.00074995       0.00000245
O        3.87480401       1.18437327       4.17119380       0.00052699      -0.00075734      -0.00091344
O        2.40823903       3.25840887       6.71135718      -0.00053564       0.00074866       0.00091588
O        2.40823906       3.25840902       4.17119362      -0.00053665       0.00074694      -0.00091457
O        3.87480400       1.18437307       6.71135714       0.00052896      -0.00075734       0.00091046
