9
Lattice="5.40821314435871 1.1352196526113243e-08 3.122433345587891 1.8027377127754454 5.098912316065073 3.1224333676087497 -5.944074797280978e-08 -1.506101075753218e-08 6.244866794130199" Properties=species:S:1:pos:R:3:forces:R:3 energy=-35.84440231323242 free_energy=-35.84440231323242 stress="-0.0003918189322575927 -2.1466986410700883e-08 1.1288111556595481e-09 -2.1466986410700883e-08 -0.0003918829606845975 1.5972906552974564e-08 1.1288111556595481e-09 1.5972906552974564e-08 -0.00039183261105790734" pbc="T T T"
Se       1.80273728       1.27472747       3.12243355      -0.00000217      -0.00000259       0.00000263
Se       5.40821293       3.82418464       9.36729981      -0.00000120      -0.00000015      -0.00000169
Ir      -0.00000034      -0.00000028       0.00000000       0.00000099       0.00000068      -0.00000008
S        1.88191964       1.33071779       6.24486661      -0.00619018      -0.00437918      -0.00000081
S        5.32903164       3.76819475       6.24486711       0.00618976       0.00438046       0.00000055
S        4.46725380       1.33071803       4.75222339       0.00309777      -0.00437737      -0.00536108
S        2.74369746       3.76819469       7.73751035      -0.00309592       0.00438002       0.00536090
S        2.74369720       3.76819435       4.75222318      -0.00309595       0.00437778      -0.00536156
S        4.46725349       1.33071781       7.73750998       0.00309682      -0.00437960       0.00536090
