9
Lattice="5.408638226988611 -1.7498823185955486e-08 3.1226786572536835 1.8028793860496213 5.099312868940208 3.1226786684228696 -1.2852770344673336e-07 -7.720341463734097e-08 6.245357537123885" Properties=species:S:1:pos:R:3:forces:R:3 energy=-35.844425201416016 free_energy=-35.844425201416016 stress="-0.00029232853557914495 2.6692483778845144e-09 3.489023114866541e-08 2.6692483778845144e-09 -0.00029232463566586375 4.1427714592146e-09 3.489023114866541e-08 4.1427714592146e-09 -0.00029231360531412065" pbc="T T T"
Se       1.80287992       1.27482803       3.12267859       0.00000376      -0.00000142      -0.00000112
Se       5.40863767       3.82448457       9.36803567      -0.00000405      -0.00000132      -0.00000562
Ir       0.00000003      -0.00000003       0.00000024      -0.00000001       0.00000019      -0.00000199
S        1.88188945       1.33069675       6.24535720      -0.00476182      -0.00336662       0.00000104
S        5.32962806       3.76861617       6.24535740       0.00476193       0.00336790       0.00000124
S        4.46769335       1.33069662       4.75244306       0.00237873      -0.00336531      -0.00412267
S        2.74382427       3.76861576       7.73827232      -0.00237978       0.00336719       0.00412643
S        2.74382393       3.76861637       4.75244288      -0.00237983       0.00336605      -0.00412399
S        4.46769326       1.33069689       7.73827225       0.00238135      -0.00336662       0.00412679
