9
Lattice="4.7577646913419445 6.930781176981172e-08 2.7468967583481128 1.585921620540006 4.485663431719955 2.7468967732172156 5.8089248552777716e-08 5.928616290117951e-08 5.493793416082697" Properties=species:S:1:pos:R:3:forces:R:3 energy=-43.044105529785156 free_energy=-43.044105529785156 stress="-0.0003153556026518345 -3.4605363907758147e-08 -1.1340550543081918e-07 -3.4605363907758147e-08 -0.0003146814415231347 -1.1568819502372207e-07 -1.1340550543081918e-07 -1.1568819502372207e-07 -0.0003154900623485446" pbc="T T T"
Se       1.58591838       1.12142667       2.74689781      -0.00005442       0.00016216       0.00001218
Se       4.75776019       3.36425017       8.24068805      -0.00007327       0.00005197      -0.00002828
Ir       0.00000059      -0.00000085      -0.00000010       0.00000726      -0.00002202       0.00000971
O        1.54309993       1.09113334       5.49379284       0.00273754       0.00188851      -0.00000347
O        4.80059007       3.39452490       5.49379434      -0.00268281      -0.00196700       0.00000923
O        3.98621651       1.09113448       4.08325969      -0.00133914       0.00189864       0.00235825
O        2.35747172       3.39452547       6.90432922       0.00137467      -0.00196105      -0.00233080
O        2.35747122       3.39452510       4.08325802       0.00136817      -0.00195928       0.00233088
O        3.98621691       1.09113495       6.90432788      -0.00133805       0.00190810      -0.00235744
