9
Lattice="4.757409085972716 -8.115477631606311e-08 2.7466914429386984 1.5858029899961303 4.485327766257847 2.746691377377095 -4.9563509861949845e-08 -1.1534292841878147e-07 5.4933829717239195" Properties=species:S:1:pos:R:3:forces:R:3 energy=-43.044097900390625 free_energy=-43.044097900390625 stress="-0.0004911494324915111 -1.526569626264518e-08 1.5753771265281102e-07 -1.526569626264518e-08 -0.0004905438981950283 7.067272633776156e-08 1.5753771265281102e-07 7.067272633776156e-08 -0.0004913020529784262" pbc="T T T"
Se       1.58580654       1.12133141       2.74668884       0.00005263      -0.00001823      -0.00003554
Se       4.75741107       3.36398658       8.24007635       0.00003608      -0.00013681       0.00002336
Ir      -0.00000038       0.00000072       0.00000040      -0.00000535       0.00000910      -0.00000412
O        1.54302270       1.09108548       5.49338323       0.00466745       0.00335481       0.00000906
O        4.80018669       3.39424613       5.49338237      -0.00470471      -0.00329713      -0.00000346
O        3.98589723       1.09108524       4.08298900      -0.00234848       0.00335677       0.00405184
O        2.35731322       3.39424444       6.90377612       0.00232485      -0.00331309      -0.00406235
O        2.35731505       3.39424516       4.08298950       0.00233905      -0.00330753       0.00406550
O        3.98589603       1.09108509       6.90377753      -0.00236166       0.00335228      -0.00404453
