9
Lattice="4.608776340341277 -7.039135899710033e-09 2.660878229315738 1.5362587102039462 4.34519604249472 2.6608783389082364 -1.2471434695667726e-07 4.6036480462058064e-08 5.3217566746430744" Properties=species:S:1:pos:R:3:forces:R:3 energy=-55.93754959106445 free_energy=-55.93754959106445 stress="-6.198879873409169e-06 -4.5908745960332453e-07 -1.8622944253365858e-06 -4.5908745960332453e-07 -6.732093424943741e-06 2.384430899837753e-06 -1.8622944253365858e-06 2.384430899837753e-06 -6.4161454247368965e-06" pbc="T T T"
Se       1.53625924       1.08629916       2.66087812      -0.00000722       0.00000316       0.00000688
Se       4.60877592       3.25889695       7.98263513      -0.00001582       0.00000266       0.00002432
Mn       0.00000000      -0.00000033      -0.00000024      -0.00004158       0.00001986       0.00008719
O        1.55884906       1.10227307       5.32175647       0.00061858       0.00043166       0.00002126
O        4.58618569       3.24292304       5.32175674      -0.00057179      -0.00039107      -0.00001212
O        3.82935112       1.10227368       4.01088208      -0.00022048       0.00030285       0.00040728
O        2.31568369       3.24292269       6.63263110       0.00026318      -0.00039345      -0.00046921
O        2.31568315       3.24292345       4.01088109       0.00032154      -0.00046235       0.00056297
O        3.82935178       1.10227258       6.63263257      -0.00034666       0.00048715      -0.00062972
