9
Lattice="4.653024486494532 -1.0713073993323222e-07 2.6864251283441387 1.5510080904028576 4.386913408752881 2.686425077695778 4.318295936917924e-08 -3.1496351562432235e-08 5.372850181893188" Properties=species:S:1:pos:R:3:forces:R:3 energy=-43.542015075683594 free_energy=-43.542015075683594 stress="1.7605736502446234e-05 -2.593482939516889e-08 -4.267802466983994e-08 -2.593482939516889e-08 1.756031451805029e-05 1.6407173397681163e-09 -4.267802466983994e-08 1.6407173397681163e-09 1.782608342182357e-05" pbc="T T T"
Se       1.55100805       1.09672649       2.68642588      -0.00000085      -0.00001589       0.00000823
Se       4.65302509       3.29018729       8.05927368       0.00000639       0.00002265      -0.00001442
Mo      -0.00000002       0.00000003       0.00000015      -0.00000199       0.00000081      -0.00000146
O        1.54508398       1.09253819       5.37284940       0.00194091       0.00136554      -0.00000439
O        4.65894868       3.29437470       5.37285103      -0.00194019      -0.00136483       0.00000666
O        3.88048268       1.09253836       4.02450737      -0.00096920       0.00135928       0.00167692
O        2.32354979       3.29437477       6.72119348       0.00096709      -0.00136352      -0.00167680
O        2.32354970       3.29437472       4.02450695       0.00096425      -0.00136584       0.00167918
O        3.88048257       1.09253864       6.72119351      -0.00096625       0.00136191      -0.00167394
