9
Lattice="4.652964491264904 -4.7081681031761444e-08 2.6863903488768113 1.5509881343855636 4.386856899079017 2.6863903228620862 4.687560461142173e-08 1.2846252882494365e-09 5.372780616562704" Properties=species:S:1:pos:R:3:forces:R:3 energy=-43.542015075683594 free_energy=-43.542015075683594 stress="5.827832865179516e-06 -5.177832562708318e-08 -1.1067371907813595e-08 -5.177832562708318e-08 5.794297067041043e-06 1.7732828538896683e-08 -1.1067371907813595e-08 1.7732828538896683e-08 5.7617257880338e-06" pbc="T T T"
Se       1.55098840       1.09671422       2.68639173       0.00000244       0.00000274       0.00001709
Se       4.65296238       3.29014319       8.05917288      -0.00002425       0.00000629       0.00001972
Mo       0.00000014       0.00000014      -0.00000010      -0.00000293      -0.00000188      -0.00000456
O        1.54507962       1.09253542       5.37278021       0.00182092       0.00127912      -0.00000761
O        4.65887356       3.29432106       5.37277990      -0.00181079      -0.00128359      -0.00000839
O        3.88042494       1.09253571       4.02446765      -0.00090903       0.00128573       0.00156802
O        2.32352821       3.29432118       6.72109316       0.00091070      -0.00127959      -0.00157124
O        2.32352850       3.29432050       4.02446701       0.00091591      -0.00128865       0.00156194
O        3.88042504       1.09253564       6.72109298      -0.00090262       0.00127977      -0.00157392
