9
Lattice="5.49847620421058 1.9457702151198983e-08 3.1745467587569056 1.8328254027270543 5.184013061474989 3.174546788238864 1.5597653513885082e-08 4.713702660135434e-08 6.349093490497952" Properties=species:S:1:pos:R:3:forces:R:3 energy=-38.59968185424805 free_energy=-38.59968185424805 stress="-0.00011440619709901512 2.8420448217048033e-08 -2.0016129198552335e-08 2.8420448217048033e-08 -0.00011437357898103073 5.555631954479168e-09 -2.0016129198552335e-08 5.555631954479168e-09 -0.00011450307647464797" pbc="T T T"
Se       1.83282532       1.29600333       3.17454674      -0.00000010       0.00000103       0.00000009
Se       5.49847634       3.88800975       9.52364012       0.00000057      -0.00000213      -0.00000165
Mo      -0.00000007       0.00000001       0.00000007       0.00000304       0.00000203       0.00000226
S        1.87926818       1.32884352       6.34909368      -0.00107500      -0.00075933       0.00000115
S        5.45203381       3.85516980       6.34909380       0.00106990       0.00075619       0.00000083
S        4.55884206       1.32884335       4.80204068       0.00053485      -0.00075673      -0.00092718
S        2.77245937       3.85516981       7.89614630      -0.00053419       0.00075780       0.00092614
S        2.77245939       3.85516985       4.80204049      -0.00053373       0.00075698      -0.00092721
S        4.55884207       1.32884317       7.89614623       0.00053455      -0.00075580       0.00092554
