9
Lattice="5.473061611867964 -1.0058776661610667e-07 3.159873599615912 1.8243537433213937 5.160051920549826 3.15987365584894 -6.250659452868885e-08 2.4672303578417622e-08 6.319747307496415" Properties=species:S:1:pos:R:3:forces:R:3 energy=-36.20673751831055 free_energy=-36.20673751831055 stress="-0.0002331641298951581 3.5018793420604766e-10 -7.445281891005351e-11 3.5018793420604766e-10 -0.00023322831839323044 -8.099521942028787e-09 -7.445281891005351e-11 -8.099521942028787e-09 -0.00023321504704654217" pbc="T T T"
Se       1.82435350       1.29001308       3.15987323      -0.00000161      -0.00000036      -0.00000097
Se       5.47306172       3.87003851       9.47962141       0.00000025      -0.00000237      -0.00000033
Mn       0.00000005      -0.00000018      -0.00000012      -0.00000077       0.00000759      -0.00000479
S        1.80967226       1.27963134       6.31974759       0.00588241       0.00416014      -0.00000072
S        5.48774299       3.88042075       6.31974723      -0.00588670      -0.00416011      -0.00000023
S        4.56822568       1.27963134       4.72709571      -0.00294112       0.00416148       0.00509706
S        2.72918970       3.88042013       7.91239883       0.00294165      -0.00416124      -0.00509751
S        2.72918999       3.88042077       4.72709580       0.00294371      -0.00416330       0.00509828
S        4.56822530       1.27963176       7.91239847      -0.00293778       0.00415835      -0.00509039
