9
Lattice="5.498424555318294 -5.282168022107015e-08 3.1745168271615207 1.8328081555648936 5.183964180847711 3.1745167920709587 5.186667569017989e-08 -6.3017218148506645e-09 6.349033564487274" Properties=species:S:1:pos:R:3:forces:R:3 energy=-38.59968566894531 free_energy=-38.59968566894531 stress="-0.00011254964920226485 1.556699480431689e-08 2.2655065379240114e-08 1.556699480431689e-08 -0.00011249668023083359 -3.333503073577049e-08 2.2655065379240114e-08 -3.333503073577049e-08 -0.00011255088611505926" pbc="T T T"
Se       1.83280769       1.29599094       3.17451732      -0.00000246      -0.00000013       0.00000294
Se       5.49842471       3.88797325       9.52355016      -0.00000031       0.00000133      -0.00000183
Mo      -0.00000018      -0.00000000       0.00000015       0.00000375      -0.00000156      -0.00000135
S        1.87929238       1.32885958       6.34903335      -0.00154409      -0.00109375      -0.00000181
S        5.45194079       3.85510405       6.34903355       0.00154296       0.00109193       0.00000029
S        4.55877859       1.32885990       4.80203106       0.00077003      -0.00108945      -0.00133345
S        2.77245423       3.85510425       7.89603566      -0.00077106       0.00109176       0.00133696
S        2.77245397       3.85510437       4.80203166      -0.00077353       0.00109157      -0.00133818
S        4.55877884       1.32886017       7.89603580       0.00077467      -0.00109172       0.00133628
