9
Lattice="4.558551870056624 3.997375406547797e-07 2.6318815238242865 1.5195176218427577 4.297842113898255 2.631881601857045 1.4717396402484831e-07 1.996379731228093e-07 5.263762792735764" Properties=species:S:1:pos:R:3:forces:R:3 energy=-34.652854919433594 free_energy=-34.652854919433594 stress="0.00011964880832238123 -7.249414011312183e-07 -4.776056812261231e-07 -7.249414011312183e-07 0.00012428789341356605 -3.097512433214433e-07 -4.776056812261231e-07 -3.097512433214433e-07 0.00011776577593991533" pbc="T T T"
Se       1.51950467       1.07447893       2.63187512      -0.00027242       0.00016140      -0.00014156
Se       4.55852172       3.22334951       7.89562929      -0.00046939      -0.00040437      -0.00023817
N        0.00001136       0.00000233       0.00001009       0.00023323       0.00004816       0.00019642
O        1.41383356       0.99973182       5.26376623      -0.00136185      -0.00097680       0.00007855
O        4.66423467       3.29810162       5.26377085       0.00129151       0.00079167       0.00011858
O        3.85164569       0.99973992       3.85629812       0.00085431      -0.00084805      -0.00112772
O        2.22644703       3.29810470       6.67123310      -0.00044763       0.00087142       0.00122237
O        2.22644026       3.29811259       3.85629255      -0.00056845       0.00103045      -0.00123096
O        3.85163960       0.99974940       6.67122827       0.00074041      -0.00067413       0.00112331
