9
Lattice="5.526204755851708 -4.898255951606819e-08 3.1905557784506353 1.8420682039779126 5.210155886964968 3.190555781553529 -8.407545609290589e-08 -5.565007203289995e-08 6.381111702524206" Properties=species:S:1:pos:R:3:forces:R:3 energy=-37.61272430419922 free_energy=-37.61272430419922 stress="-0.00011537221871549264 2.2918330344623428e-08 -2.6229512783970677e-08 2.2918330344623428e-08 -0.00011540812556631863 -2.833062673346376e-08 -2.6229512783970677e-08 -2.833062673346376e-08 -0.00011545296729309484" pbc="T T T"
Se       1.84206917       1.30254022       3.19055609       0.00000606       0.00000623       0.00000563
Se       5.52620550       3.90761847       9.57166805       0.00000678       0.00000890       0.00000089
Nb      -0.00000033      -0.00000049      -0.00000023       0.00000183      -0.00000167      -0.00000140
S        1.94800015       1.37744404       6.38111167      -0.00180402      -0.00127919      -0.00000028
S        5.42027210       3.83271104       6.38111121       0.00180487       0.00127620      -0.00000162
S        4.55220433       1.37744399       4.87757361       0.00089610      -0.00127749      -0.00156069
S        2.81606816       3.83271095       7.88464977      -0.00090486       0.00127272       0.00156231
S        2.81606794       3.83271090       4.87757355      -0.00090598       0.00127287      -0.00156333
S        4.55220445       1.37744401       7.88464932       0.00089927      -0.00127864       0.00155878
