9
Lattice="4.566478516933983 6.040073851806785e-08 2.6364576500917423 1.5221595679343862 4.305317167163754 2.6364576408367713 -7.636245598507809e-08 -6.533138989248353e-08 5.272915432447131" Properties=species:S:1:pos:R:3:forces:R:3 energy=-33.886070251464844 free_energy=-33.886070251464844 stress="0.0002596102422103286 -1.819155244220383e-07 1.8553460279235878e-07 -1.819155244220383e-07 0.00025971574359573424 5.106963740786341e-08 1.8553460279235878e-07 5.106963740786341e-08 0.000259071821346879" pbc="T T T"
Se       1.52216549       1.07633415       2.63645757       0.00009867       0.00008275      -0.00000084
Se       4.56647702       3.22898875       7.90937744      -0.00003001       0.00000750       0.00007445
Ni      -0.00000006      -0.00000038       0.00000016      -0.00000990      -0.00000131      -0.00001330
O        1.46306198       1.03454026       5.27291529      -0.00221929      -0.00158381       0.00000138
O        4.62557630       3.27077578       5.27291363       0.00222391       0.00156747      -0.00003113
O        3.83494598       1.03454201       3.90350437       0.00108470      -0.00155908      -0.00195549
O        2.25368901       3.27077384       6.64232527      -0.00112742       0.00153631       0.00194393
O        2.25369131       3.27077410       3.90350422      -0.00109780       0.00153784      -0.00195862
O        3.83494510       1.03454007       6.64232475       0.00107679      -0.00158796       0.00194000
