9
Lattice="4.6393729118928695 -5.556462095976332e-08 2.6785431599504963 1.5464575897511124 4.374042664314391 2.67854315156683 -6.885124320326995e-08 -5.8953070123316484e-08 5.357086439154849" Properties=species:S:1:pos:R:3:forces:R:3 energy=-48.078521728515625 free_energy=-48.078521728515625 stress="0.00012937244900967926 3.8903582577631823e-08 -2.0945729595212015e-09 3.8903582577631823e-08 0.0001294591202167794 2.3282872518848308e-08 -2.0945729595212015e-09 2.3282872518848308e-08 0.00012935705308336765" pbc="T T T"
Se       1.54645728       1.09351038       2.67854312      -0.00000246      -0.00000343       0.00000036
Se       4.63937264       3.28053161       8.03563030       0.00000003      -0.00000212       0.00000596
Nb       0.00000033       0.00000011      -0.00000020      -0.00000305      -0.00000119       0.00000267
O        1.59163249       1.12545425       5.35708628       0.00082004       0.00058043      -0.00000248
O        4.59419788       3.24858858       5.35708618      -0.00081652      -0.00057572      -0.00000127
O        3.84355682       1.12545407       4.05693753      -0.00040755       0.00058103       0.00071031
O        2.34227352       3.24858838       6.65723516       0.00040817      -0.00057995      -0.00071323
O        2.34227413       3.24858861       4.05693699       0.00041300      -0.00058019       0.00070906
O        3.84355640       1.12545425       6.65723569      -0.00041175       0.00058115      -0.00071108
