9
Lattice="5.444158528022386 -2.653814683803443e-08 3.1431864317739167 1.8147194445666566 5.132801869349699 3.1431865006294273 1.1592694180920792e-07 1.6630317028339945e-07 6.286372662756479" Properties=species:S:1:pos:R:3:forces:R:3 energy=-31.49561309814453 free_energy=-31.49561309814453 stress="-2.1734584152000025e-05 -4.1371112757815354e-08 -5.2157030694388595e-08 -4.1371112757815354e-08 -2.1770976672996767e-05 8.31206676821239e-08 -5.2157030694388595e-08 8.31206676821239e-08 -2.1860676497453824e-05" pbc="T T T"
Se       1.81471870       1.28320068       3.14318507       0.00000017       0.00000164      -0.00000727
Se       5.44415725       3.84960260       9.42955914      -0.00000766       0.00000695      -0.00000056
Ni       0.00000025       0.00000003       0.00000003      -0.00000401      -0.00000543       0.00000258
S        1.78726088       1.26378469       6.28637306      -0.00208923      -0.00147891       0.00000311
S        5.47161744       3.86901727       6.28637227       0.00209406       0.00147718       0.00000114
S        4.55052871       1.26378367       4.69100034       0.00105007      -0.00148630      -0.00181046
S        2.70835050       3.86901758       7.88174644      -0.00104369       0.00148013       0.00181383
S        2.70835087       3.86901759       4.69099925      -0.00104116       0.00147718      -0.00181022
S        4.55052781       1.26378385       7.88174681       0.00104131      -0.00147244       0.00180808
