9
Lattice="4.558916822230117 -4.990416220151452e-07 2.6320910961720405 1.5196384912369711 4.29818765245327 2.6320910598084164 7.228040612445812e-08 6.5738059686115365e-09 5.264182067150749" Properties=species:S:1:pos:R:3:forces:R:3 energy=-34.65284729003906 free_energy=-34.65284729003906 stress="0.0003460122679825872 1.3079633163215476e-06 -2.177853701823551e-07 1.3079633163215476e-06 0.0003464167530182749 -8.821584174256714e-08 -2.177853701823551e-07 -8.821584174256714e-08 0.00034972885623574257" pbc="T T T"
Se       1.51963705       1.07454405       2.63208914       0.00007295      -0.00000514      -0.00004183
Se       4.55894890       3.22364989       7.89626812       0.00044967       0.00013106      -0.00008008
N       -0.00000689      -0.00000891       0.00000293      -0.00013540      -0.00016784       0.00005180
O        1.41393169       0.99980357       5.26418328      -0.00321615      -0.00222492       0.00002642
O        4.66462970       3.29839208       5.26418411       0.00334942       0.00239265       0.00003521
O        3.85194859       0.99979330       3.85659412       0.00155771      -0.00239933      -0.00277936
O        2.22659365       3.29838807       6.67177237      -0.00178301       0.00228631       0.00281775
O        2.22659101       3.29839045       3.85659232      -0.00182432       0.00233293      -0.00281286
O        3.85194779       0.99979630       6.67177040       0.00153017      -0.00234604       0.00278223
