9
Lattice="5.32603999242175 -5.943721255187487e-08 3.0749904004487307 1.7753466247212002 5.021438359275728 3.074990371664569 -8.391627852190091e-08 -9.45910320257197e-08 6.149980946244715" Properties=species:S:1:pos:R:3:forces:R:3 energy=-37.55475997924805 free_energy=-37.55475997924805 stress="-0.00047830960829742253 -4.8110990746863536e-08 -1.2178538177920473e-08 -4.8110990746863536e-08 -0.0004783046315424144 -4.198537695287996e-08 -1.2178538177920473e-08 -4.198537695287996e-08 -0.0004783686308655888" pbc="T T T"
Se       1.77534674       1.25535895       3.07499032      -0.00000013      -0.00000384       0.00000050
Se       5.32603967       3.76607917       9.22497082      -0.00000064       0.00000240      -0.00000578
Os      -0.00000014      -0.00000031       0.00000010      -0.00000025       0.00000073      -0.00000040
S        1.89486363       1.33987052       6.14998076      -0.00327760      -0.00231701      -0.00000126
S        5.20652317       3.68156767       6.14998095       0.00327688       0.00231934      -0.00000006
S        4.37860788       1.33987040       4.71599050       0.00163791      -0.00231719      -0.00283784
S        2.72277872       3.68156748       7.58397148      -0.00163764       0.00231832       0.00283897
S        2.72277860       3.68156788       4.71599079      -0.00163808       0.00231874      -0.00283581
S        4.37860789       1.33987096       7.58397114       0.00163969      -0.00232112       0.00284153
