9
Lattice="4.840663387724738 1.0505548971707353e-08 2.7947583953389783 1.61355445287498 4.563821463656065 2.7947584292952405 -4.094689551791093e-08 1.2633939522904512e-08 5.5895168616000745" Properties=species:S:1:pos:R:3:forces:R:3 energy=-47.710235595703125 free_energy=-47.710235595703125 stress="0.0007203217246569693 6.515579187293952e-09 3.1160489299963956e-08 6.515579187293952e-09 0.000720254029147327 9.796364963676751e-08 3.1160489299963956e-08 9.796364963676751e-08 0.000720220326911658" pbc="T T T"
Se       1.61355587       1.14095403       2.79475848       0.00001763      -0.00001381       0.00000671
Se       4.84066416       3.42286672       8.38427775       0.00001351       0.00000554       0.00002485
Os      -0.00000000      -0.00000000      -0.00000006      -0.00000487       0.00000469      -0.00000331
O        1.53416312       1.08481743       5.58951637      -0.00179416      -0.00126469      -0.00000473
O        4.92005415       3.47900478       5.58951591       0.00178516       0.00127149      -0.00000766
O        4.07358141       1.08481747       4.12338255       0.00089124      -0.00126773      -0.00155908
O        2.38063530       3.47900427       7.05565043      -0.00090265       0.00126761       0.00154525
O        2.38063592       3.47900431       4.12338273      -0.00089607       0.00126511      -0.00155091
O        4.07358125       1.08481692       7.05565063       0.00089025      -0.00126851       0.00154936
