9
Lattice="5.554269162804832 1.9038085256876829e-07 3.2067588389572994 1.851423195271147 5.236614937201348 3.2067589056237535 2.1318671724500428e-08 9.672392101323336e-08 6.41351764098959" Properties=species:S:1:pos:R:3:forces:R:3 energy=-30.20720672607422 free_energy=-30.20720672607422 stress="2.8536796889966354e-05 -3.719085484021889e-08 9.067602491086291e-08 -3.719085484021889e-08 2.8561467843246646e-05 3.091559719337056e-08 9.067602491086291e-08 3.091559719337056e-08 2.8564010790432803e-05" pbc="T T T"
Se       1.85142455       1.30915425       3.20675974       0.00000760       0.00000174       0.00000436
Se       5.55427113       3.92746200       9.62027880       0.00001064       0.00000339       0.00000995
P        0.00000037      -0.00000019       0.00000056      -0.00000878       0.00000327      -0.00001108
S        1.78850429       1.26466385       6.41351765       0.00053293       0.00038135      -0.00000084
S        5.61718728       3.97195117       6.41351662      -0.00053364      -0.00037748      -0.00000505
S        4.66001616       1.26466387       4.75564889      -0.00026920       0.00037503       0.00045818
S        2.74567509       3.97195154       8.07138527       0.00026166      -0.00037521      -0.00046235
S        2.74567503       3.97195125       4.75564889       0.00026676      -0.00038201       0.00046474
S        4.66001549       1.26466321       8.07138503      -0.00026801       0.00036973      -0.00045741
