9
Lattice="5.55431264034082 5.056577753148253e-07 3.206784240610157 1.851437911343694 5.2366567893148 3.2067844349035375 3.2629968652038224e-07 4.68688504906928e-07 6.413567916052596" Properties=species:S:1:pos:R:3:forces:R:3 energy=-30.20720672607422 free_energy=-30.20720672607422 stress="7.249236659845337e-05 2.1663858262854774e-08 -9.673192380432738e-08 2.1663858262854774e-08 7.22661498002708e-05 -4.1885606094638206e-09 -9.673192380432738e-08 -4.1885606094638206e-09 7.227698370115831e-05" pbc="T T T"
Se       1.85143931       1.30916297       3.20678628       0.00001000      -0.00000694       0.00001027
Se       5.55431208       3.92749511       9.62035174      -0.00000517       0.00000800      -0.00000252
P       -0.00000003       0.00000012       0.00000017      -0.00000066      -0.00000124      -0.00000018
S        1.78858566       1.26472104       6.41356941      -0.00081998      -0.00058287       0.00000446
S        5.61716574       3.97193587       6.41356993       0.00082493       0.00058186       0.00000607
S        4.66001837       1.26472139       4.75574375       0.00040382      -0.00058663      -0.00071746
S        2.74573064       3.97193819       8.07139023      -0.00040871       0.00059175       0.00070703
S        2.74573146       3.97193513       4.75574301      -0.00041091       0.00057578      -0.00071794
S        4.66002040       1.26472135       8.07139164       0.00040630      -0.00057918       0.00070983
