9
Lattice="5.489996393487174 -1.2280949211161714e-07 3.169650591793279 1.829998687073524 5.1760179659661425 3.169650583080446 -2.055805060597068e-08 -2.520773017476847e-08 6.339301219194148" Properties=species:S:1:pos:R:3:forces:R:3 energy=-30.224273681640625 free_energy=-30.224273681640625 stress="-0.00024254321760963649 -4.1444085496777916e-08 2.23035918622827e-08 -4.1444085496777916e-08 -0.00024257572658825666 1.0094642455271696e-08 2.23035918622827e-08 1.0094642455271696e-08 -0.00024257366021629423" pbc="T T T"
Se       1.82999971       1.29400354       3.16965069       0.00000644      -0.00000853       0.00000171
Se       5.48999655       3.88201368       9.50895010       0.00000065       0.00000418      -0.00001055
Pd      -0.00000007       0.00000014       0.00000028      -0.00000070      -0.00000258      -0.00000160
S        1.92942793       1.36431118       6.33930124      -0.00267053      -0.00189048      -0.00000063
S        5.39056701       3.81170653       6.33930241       0.00267202       0.00189322       0.00000395
S        4.52528166       1.36431081       4.84058399       0.00133243      -0.00189048      -0.00231206
S        2.79471301       3.81170698       7.83801763      -0.00133547       0.00189489       0.00231510
S        2.79471262       3.81170665       4.84058448      -0.00133914       0.00188917      -0.00231320
S        4.52528186       1.36431177       7.83801873       0.00133505      -0.00188971       0.00231749
