9
Lattice="4.670517335500991 -7.064846701135001e-09 2.6965245000549443 1.5568390842807585 4.403405911070771 2.6965245362411294 -3.8075661413936826e-08 1.7395265857336815e-08 5.393049066058855" Properties=species:S:1:pos:R:3:forces:R:3 energy=-38.39271926879883 free_energy=-38.39271926879883 stress="0.00021088348876219243 -2.746324945235301e-08 -1.0690105511912407e-07 -2.746324945235301e-08 0.00021099983132444322 5.727591911863783e-08 -1.0690105511912407e-07 5.727591911863783e-08 0.0002109833585564047" pbc="T T T"
Se       1.55683734       1.10085250       2.69652389      -0.00002438       0.00001305      -0.00001139
Se       4.67051616       3.30255391       8.08957150      -0.00002180      -0.00000634      -0.00002570
Pt       0.00000034      -0.00000010       0.00000027      -0.00000850      -0.00000199      -0.00000885
O        1.54622456       1.09334552       5.39304910       0.00010632       0.00006842       0.00000526
O        4.68113224       3.31006001       5.39305015      -0.00008685      -0.00006989       0.00001150
O        3.89740591       1.09334573       4.03559488      -0.00003515       0.00006657       0.00008925
O        2.32995164       3.31005996       6.75050437       0.00005260      -0.00006867      -0.00007407
O        2.32995152       3.31005991       4.03559402       0.00005715      -0.00007420       0.00008920
O        3.89740578       1.09334623       6.75050426      -0.00003946       0.00007284      -0.00007529
