9
Lattice="4.97527578381496 -5.1169193860820114e-08 2.872477071899569 1.6584252839937466 4.69073505945262 2.872476948984821 4.140322272461736e-09 -1.476115718750021e-07 5.744954136627885" Properties=species:S:1:pos:R:3:forces:R:3 energy=-34.08667755126953 free_energy=-34.08667755126953 stress="1.1179699868080206e-05 -1.0933126048939812e-07 4.3340726563201315e-08 -1.0933126048939812e-07 1.1066957995353732e-05 3.3751327066511294e-08 4.3340726563201315e-08 3.3751327066511294e-08 1.0794757145049516e-05" pbc="T T T"
Se       1.65842367       1.17267977       2.87247861      -0.00001381      -0.00003366       0.00001197
Se       4.97528139       3.51804805       8.61743150       0.00004222      -0.00002495       0.00000404
Pb      -0.00000000      -0.00000126       0.00000031       0.00000374       0.00000405      -0.00000510
O        1.72079692       1.21679037       5.74495274      -0.00002387       0.00001200      -0.00000940
O        4.91290331       3.47394641       5.74495425       0.00000224       0.00000583      -0.00000137
O        4.11487701       1.21678880       4.36273147       0.00000612       0.00000256      -0.00000745
O        2.51882285       3.47394952       7.12717390      -0.00001422       0.00002180      -0.00001299
O        2.51882247       3.47394969       4.36273408      -0.00001279       0.00001684       0.00001431
O        4.11487688       1.21678827       7.12717580       0.00001007      -0.00000475       0.00000593
