9
Lattice="5.7419243495474905 9.561367702068608e-08 3.31510185279994 1.9139748889601131 5.413538191770544 3.3151018257241693 1.0658028553310865e-07 4.2202796201501666e-08 6.630203520997435" Properties=species:S:1:pos:R:3:forces:R:3 energy=-26.078022003173828 free_energy=-26.078022003173828 stress="6.52322851237841e-05 -3.0519437643761194e-08 -4.184836299714334e-08 -3.0519437643761194e-08 6.529320671688765e-05 -2.0002706158095407e-09 -4.184836299714334e-08 -2.0002706158095407e-09 6.524689524667338e-05" pbc="T T T"
Se       1.91397415       1.35338438       3.31510173      -0.00000064      -0.00000131      -0.00000010
Se       5.74192467       4.06015357       9.94530473      -0.00000013      -0.00000062      -0.00000225
Pb       0.00000023      -0.00000017      -0.00000028       0.00000172       0.00000338       0.00000130
S        2.17185471       1.53573298       6.63020346      -0.00041135      -0.00029228       0.00000274
S        5.48404438       3.87780567       6.63020411       0.00041081       0.00029015       0.00000025
S        4.65599739       1.53573305       5.19598349       0.00020520      -0.00029359      -0.00035781
S        2.99990216       3.87780515       8.06442435      -0.00020538       0.00029287       0.00035655
S        2.99990220       3.87780507       5.19598311      -0.00020776       0.00029086      -0.00035799
S        4.65599757       1.53573361       8.06442411       0.00020751      -0.00028940       0.00035722
