9
Lattice="4.8782736416468655 -1.939264661350655e-06 2.8164712883559284 1.6260897725675023 4.599273160682743 2.816470617977082 1.8173396015165746e-06 4.640103108123923e-07 5.632939428984666" Properties=species:S:1:pos:R:3:forces:R:3 energy=-36.084815979003906 free_energy=-36.084815979003906 stress="3.0515180696966127e-05 5.25447057952988e-06 3.117963558452175e-07 5.25447057952988e-06 3.0537637940142304e-05 -1.3033115919824922e-06 3.117963558452175e-07 -1.3033115919824922e-06 1.2728368346870411e-05" pbc="T T T"
Se       1.62609873       1.14984288       2.81641373       0.00007521       0.00022254      -0.00049550
Se       4.87826299       3.44944194       8.44935209      -0.00010911      -0.00008137      -0.00052718
Pd      -0.00000552       0.00000603       0.00002731       0.00073960      -0.00089306       0.00017166
O        1.47709678       1.04447987       5.63294452      -0.00167847      -0.00114095       0.00026938
O        5.02727111       3.55478579       5.63295248       0.00162387       0.00101650       0.00027181
O        4.13970884       1.04446891       4.09568098       0.00047708      -0.00074303      -0.00035167
O        2.36464852       3.55481230       7.17024121      -0.00059116       0.00087452       0.00112391
O        2.36465761       3.55479409       4.09567704      -0.00082064       0.00124395      -0.00106049
O        4.13971411       1.04445813       7.17024330       0.00028360      -0.00049937       0.00059748
