9
Lattice="5.4496409330535505 -4.103496919989209e-09 3.1463515704714693 1.816546944208827 5.137970874010471 3.1463516217520557 -8.242220602288109e-08 4.524375239184264e-09 6.2927032837023695" Properties=species:S:1:pos:R:3:forces:R:3 energy=-32.595420837402344 free_energy=-32.595420837402344 stress="-0.00043477158760651946 -1.2656733994198532e-10 -1.5272750175654437e-08 -1.2656733994198532e-10 -0.00043477624421939254 -8.170706888854795e-10 -1.5272750175654437e-08 -8.170706888854795e-10 -0.0004347022040747106" pbc="T T T"
Se       1.81654724       1.28449216       3.14635130       0.00000313      -0.00000643      -0.00000176
Se       5.44964038       3.85347814       9.43905486      -0.00000320      -0.00000146      -0.00000289
Pt       0.00000011      -0.00000002      -0.00000046       0.00000289       0.00000162       0.00001140
S        1.88237690       1.33104143       6.29270347      -0.00818807      -0.00578979       0.00000235
S        5.38381076       3.80692951       6.29270354       0.00818637       0.00579038       0.00000262
S        4.50845250       1.33104171       4.77653790       0.00409444      -0.00579056      -0.00709406
S        2.75773555       3.80692960       7.80886862      -0.00409244       0.00579160       0.00708804
S        2.75773578       3.80692946       4.77653797      -0.00409426       0.00579244      -0.00709540
S        4.50845209       1.33104148       7.80886869       0.00409068      -0.00578767       0.00709057
