9
Lattice="5.367930493663289 5.749764672664682e-08 3.0991763538004773 1.7893102422630873 5.0609335641679385 3.099176313098384 1.0551708141840875e-07 2.476216935068573e-08 6.198352524840006" Properties=species:S:1:pos:R:3:forces:R:3 energy=-36.21852493286133 free_energy=-36.21852493286133 stress="-8.522137795807794e-05 -1.5831673749744368e-08 3.062541864551349e-08 -1.5831673749744368e-08 -8.519576658727601e-05 -1.9015953256484863e-08 3.062541864551349e-08 -1.9015953256484863e-08 -8.525115117663518e-05" pbc="T T T"
Se       1.78931021       1.26523349       3.09917650       0.00000102       0.00000222      -0.00000039
Se       5.36793076       3.79569993       9.29752911       0.00000055       0.00000104       0.00000197
Ru       0.00000002       0.00000008      -0.00000001      -0.00000042      -0.00000002       0.00000111
S        1.88660008       1.33402775       6.19835238      -0.00062066      -0.00043973       0.00000092
S        5.27064074       3.72690583       6.19835235       0.00061738       0.00043631      -0.00000061
S        4.42463065       1.33402779       4.73301990       0.00031132      -0.00043884      -0.00053695
S        2.73261057       3.72690592       7.66368527      -0.00030956       0.00043789       0.00053617
S        2.73260994       3.72690585       4.73302007      -0.00031048       0.00043947      -0.00053751
S        4.42463041       1.33402792       7.66368535       0.00031084      -0.00043857       0.00053519
