9
Lattice="4.761418275105975 -0.17985205412330696 2.7150440231696993 1.6636216862775774 5.281365702875316 2.953893343970488 0.02305131038763257 -0.22702893645034408 5.479406349847727" Properties=species:S:1:pos:R:3:forces:R:3 energy=-49.740325927734375 free_energy=-49.740325927734375 stress="-5.604435864370316e-05 -4.75761917186901e-05 -5.555529787670821e-05 -4.75761917186901e-05 -1.370252539345529e-05 -1.0371351208959823e-06 -5.555529787670821e-05 -1.0371351208959823e-06 -5.490612966241315e-05" pbc="T T T"
Se       1.62699041       2.51288669       2.84021480       0.00121835       0.00034475      -0.00094502
Se       4.85329444       5.01742808       8.41700214      -0.00001540      -0.00338638      -0.00102818
Rh      -0.00253966      -0.20495695      -0.00836207       0.00028435      -0.00055128      -0.00018915
O        1.70026017       0.62469957       5.82149781      -0.00179291       0.00167114       0.00030920
O        5.02368374       3.43256433       5.18201462      -0.00172853       0.00039810      -0.00048625
O        3.67499997       0.66999614       4.03915112       0.00072855       0.00101733      -0.00086230
O        2.71557465       3.37604435       7.37799949       0.00003600      -0.00013220       0.00004697
O        1.96858077       3.51468122       4.28577577       0.00093180      -0.00091887       0.00227737
O        4.23108739       0.55505698       6.63834910       0.00033712       0.00155783       0.00087681
