9
Lattice="5.392026252108384 -1.584887296668936e-08 3.1130878172731227 1.797342058211689 5.083651383483829 3.113087836121264 5.1472475429574495e-08 5.948066524558805e-08 6.226175545393344" Properties=species:S:1:pos:R:3:forces:R:3 energy=-34.43595886230469 free_energy=-34.43595886230469 stress="-0.0003273219335824251 2.4380009122637603e-08 -6.960025000779524e-09 2.4380009122637603e-08 -0.0003272451285738498 -4.157192989850955e-08 -6.960025000779524e-09 -4.157192989850955e-08 -0.0003272837202530354" pbc="T T T"
Se       1.79734178       1.27091319       3.11308773      -0.00000098       0.00000351       0.00000153
Se       5.39202663       3.81273808       9.33926355       0.00000247      -0.00000302       0.00000030
Rh       0.00000009      -0.00000013      -0.00000011       0.00000071       0.00000073       0.00000217
S        1.87572428       1.32633762       6.22617549      -0.00303739      -0.00214702      -0.00000049
S        5.31364392       3.75731390       6.22617562       0.00303626       0.00214735       0.00000058
S        4.45416394       1.32633750       4.73751279       0.00151843      -0.00214708      -0.00262973
S        2.73520419       3.75731423       7.71483833      -0.00151736       0.00214458       0.00262702
S        2.73520447       3.75731383       4.73751271      -0.00151947       0.00214836      -0.00263107
S        4.45416411       1.32633757       7.71483865       0.00151753      -0.00214764       0.00262952
