9
Lattice="4.814442778167687 -1.8747307064959755e-08 2.779619834430749 1.6048142627542727 4.53910004637313 2.7796197979881088 8.436700361574376e-08 1.5023532584281516e-08 5.559239522733559" Properties=species:S:1:pos:R:3:forces:R:3 energy=-48.695884704589844 free_energy=-48.695884704589844 stress="0.00020658221910707653 -3.5782814933327245e-08 5.010808123984134e-08 -3.5782814933327245e-08 0.00020640590810216963 -3.669768844360988e-08 5.010808123984134e-08 -3.669768844360988e-08 0.0002065348526230082" pbc="T T T"
Se       1.60482408       1.13477808       2.77962225       0.00014343       0.00005203       0.00003775
Se       4.81444671       3.40432985       8.33886194       0.00007597       0.00006999       0.00004559
Re      -0.00000172      -0.00000152      -0.00000023      -0.00002104      -0.00001747      -0.00000299
O        1.57101917       1.11087795       5.55923883      -0.00078416      -0.00055772      -0.00001667
O        4.84823616       3.42822276       5.55923832       0.00075448       0.00055408      -0.00001867
O        4.02893022       1.11087699       4.14016212       0.00033718      -0.00056857      -0.00068474
O        2.39032178       3.42822049       6.97831583      -0.00042969       0.00053090       0.00065994
O        2.39032220       3.42821879       4.14016087      -0.00041825       0.00051284      -0.00068951
O        4.02892991       1.11087679       6.97831664       0.00034201      -0.00057626       0.00066817
