9
Lattice="4.741806408236449 -0.006148877123111626 2.7484736173976696 1.5785454174270739 4.480394228045511 2.741514000604863 -0.433751339651287 -0.3218853537566884 6.261625635463627" Properties=species:S:1:pos:R:3:forces:R:3 energy=-49.74018859863281 free_energy=-49.74018859863281 stress="-0.00024138501612469554 -0.00014144243323244154 2.9143357096472755e-05 -0.00014144243323244154 0.00017611410294193774 -3.994665530626662e-05 2.9143357096472755e-05 -3.994665530626662e-05 3.5356827083887765e-06" pbc="T T T"
Se       2.11209559       1.49281922       1.82506102       0.00078136       0.00083661       0.00079215
Se       5.01504551       3.55195549       7.75315069       0.00024229       0.00303352       0.00105619
Rh      -0.09561584      -0.06995628       0.16763867       0.00291240       0.00406803      -0.00408822
O        1.27579759       0.49763145       6.49764759      -0.00078540       0.00239322       0.00025606
O        4.35343181       3.60472548       6.08832029       0.00194049      -0.00365630       0.00140548
O        4.07695684       0.72528193       4.74972209      -0.00083104      -0.00503564       0.00084752
O        1.57215429       2.88114928       7.64302568      -0.00371410       0.00413257      -0.00216258
O        1.79920657       2.91580425       4.32230342       0.00103319      -0.00352585       0.00150351
O        3.43732468       1.01002920       7.95958245      -0.00157940      -0.00224657       0.00038978
