9
Lattice="5.4612544652328685 2.678490384382748e-08 3.153056850453973 1.8204181623625653 5.148920167525188 3.153056881575634 -5.915339761444544e-08 -3.711664653296643e-09 6.306113803364609" Properties=species:S:1:pos:R:3:forces:R:3 energy=-40.02070236206055 free_energy=-40.02070236206055 stress="-5.254303687252104e-05 1.0589393362181454e-08 -2.194695802870683e-08 1.0589393362181454e-08 -5.253624840406701e-05 -1.5903486527690802e-08 -2.194695802870683e-08 -1.5903486527690802e-08 -5.251619222690351e-05" pbc="T T T"
Se       1.82041720       1.28722988       3.15305658      -0.00000558      -0.00000069      -0.00000021
Se       5.46125331       3.86168943       9.45916977      -0.00000708      -0.00000386      -0.00000660
Re       0.00000012       0.00000011       0.00000046      -0.00000005      -0.00000007      -0.00000150
S        1.88725584       1.33449170       6.30611393      -0.00053155      -0.00037789       0.00000075
S        5.39441699       3.81442891       6.30611398       0.00053644       0.00037700       0.00000223
S        4.51762668       1.33449159       4.78746853       0.00026792      -0.00037515      -0.00045985
S        2.76404679       3.81442889       7.82475919      -0.00026506       0.00037754       0.00046611
S        2.76404627       3.81442873       4.78746887      -0.00026476       0.00037879      -0.00046277
S        4.51762708       1.33449150       7.82475903       0.00026965      -0.00037575       0.00046182
