9
Lattice="4.857669367919496 4.5088355437244546e-08 2.8045766024041963 1.619223184476955 4.579854303197153 2.8045765689281277 1.5381336507556797e-07 6.776282254103107e-08 5.609152938395832" Properties=species:S:1:pos:R:3:forces:R:3 energy=-43.952232360839844 free_energy=-43.952232360839844 stress="-0.0006307328003458679 -2.655699660181199e-08 -1.6376097278225643e-07 -2.655699660181199e-08 -0.0006306623108685017 -9.343565920971741e-08 -1.6376097278225643e-07 -9.343565920971741e-08 -0.0006308159208856523" pbc="T T T"
Se       1.61922564       1.14496918       2.80457495       0.00002320       0.00005765      -0.00002261
Se       4.85767224       3.43489427       8.41372118       0.00002840       0.00003999      -0.00008260
Ru      -0.00000003      -0.00000003       0.00000020       0.00000173       0.00000204       0.00000055
O        1.52108449       1.07556859       5.60915408       0.00502879       0.00354813       0.00001790
O        4.95580804       3.50428357       5.60915548      -0.00502840      -0.00357274       0.00002735
O        4.09712535       1.07556616       4.12187661      -0.00252685       0.00352525       0.00437558
O        2.37976549       3.50428362       7.09643328       0.00250841      -0.00357653      -0.00433768
O        2.37976325       3.50428327       4.12187526       0.00249261      -0.00357472       0.00436536
O        4.09712633       1.07556910       7.09643324      -0.00252805       0.00355098      -0.00434381
