9
Lattice="5.3924176091743155 2.4432670938271712e-08 3.1133138746643962 1.797472534398191 5.084020011620599 3.113313918015178 -6.624874127331207e-09 4.840915322113716e-08 6.226627760803398" Properties=species:S:1:pos:R:3:forces:R:3 energy=-34.43596649169922 free_energy=-34.43596649169922 stress="-0.00021483864111360162 -7.79968800657116e-09 8.69880789622357e-09 -7.79968800657116e-09 -0.00021486327750608325 1.5438611500329102e-09 8.69880789622357e-09 1.5438611500329102e-09 -0.00021483418822754174" pbc="T T T"
Se       1.79747103       1.27100516       3.11331395      -0.00000939       0.00000166      -0.00000135
Se       5.39241851       3.81301565       9.33994172       0.00000486       0.00000408      -0.00000094
Rh      -0.00000005       0.00000041      -0.00000007       0.00000171      -0.00000392       0.00000064
S        1.87573667       1.32634643       6.22662764      -0.00239259      -0.00168899      -0.00000025
S        5.31415409       3.75767315       6.22662784       0.00239307       0.00168625      -0.00000007
S        4.45454948       1.32634556       4.73775030       0.00119865      -0.00169414      -0.00206947
S        2.73534055       3.75767424       7.71550547      -0.00119764       0.00169510       0.00207275
S        2.73534098       3.75767423       4.73775009      -0.00119564       0.00169337      -0.00207081
S        4.45454937       1.32634552       7.71550538       0.00119668      -0.00169313       0.00206977
