9
Lattice="5.368024153040363 -1.0053668835744797e-07 3.099230139015077 1.7893412838783593 5.061021526169314 3.0992301488558036 -6.559646071165277e-09 7.413985900693979e-09 6.19846028939181" Properties=species:S:1:pos:R:3:forces:R:3 energy=-36.21851348876953 free_energy=-36.21851348876953 stress="-6.232534360606223e-05 -4.884147841721642e-08 1.3345100136064048e-08 -4.884147841721642e-08 -6.24130989308469e-05 3.7429268573418994e-09 1.3345100136064048e-08 3.7429268573418994e-09 -6.23549276497215e-05" pbc="T T T"
Se       1.78934035       1.26525566       3.09923027      -0.00000537      -0.00000051       0.00000083
Se       5.36802385       3.79576546       9.29769054       0.00000062      -0.00000319       0.00000038
Ru      -0.00000060      -0.00000021      -0.00000011      -0.00000243      -0.00000131       0.00000011
S        1.88660001       1.33402731       6.19846056      -0.00033408      -0.00023404      -0.00000120
S        5.27076663       3.72699372       6.19846028       0.00033337       0.00023130       0.00000061
S        4.42472420       1.33402751       4.73307313       0.00016904      -0.00023299      -0.00028953
S        2.73264119       3.72699439       7.66384669      -0.00016472       0.00023729       0.00029010
S        2.73264127       3.72699454       4.73307386      -0.00016570       0.00023663      -0.00028977
S        4.42472480       1.33402731       7.66384699       0.00016963      -0.00023341       0.00028846
