9
Lattice="5.687808463979735 -1.717365345405363e-07 3.2838573649980516 1.895936020758855 5.3625172500599145 3.2838573164768268 -2.0596493320653421e-07 -2.0506525213724203e-07 6.567715086737809" Properties=species:S:1:pos:R:3:forces:R:3 energy=-27.365978240966797 free_energy=-27.365978240966797 stress="0.00023214145039673895 1.1494138618672878e-07 1.0042664477794006e-08 1.1494138618672878e-07 0.00023201828298624605 -5.715647954929182e-09 1.0042664477794006e-08 -5.715647954929182e-09 0.00023203399905469269" pbc="T T T"
Se       1.89593611       1.34062806       3.28385799       0.00000054      -0.00000739       0.00000355
Se       5.68780870       4.02188777       9.85157104      -0.00000000       0.00000111      -0.00000371
Sb       0.00000019      -0.00000054       0.00000012      -0.00000496       0.00000411       0.00000158
S        1.98571967       1.40411496       6.56771489      -0.00362232      -0.00256702      -0.00000198
S        5.59802353       3.95840262       6.56771488       0.00362256       0.00257108       0.00000057
S        4.69494885       1.40411469       5.00354055       0.00180951      -0.00256467      -0.00313473
S        2.88879596       3.95840231       8.13188910      -0.00180583       0.00256267       0.00313175
S        2.88879486       3.95840236       5.00354063      -0.00181168       0.00256038      -0.00313306
S        4.69494916       1.40411513       8.13188962       0.00181244      -0.00256056       0.00313622
