9
Lattice="5.464965830757425 3.363444429301173e-08 3.1551993838707393 1.821655227221266 5.152418136338402 3.1551995248747993 2.1165515408398755e-08 1.8766025727612542e-07 6.310398731081741" Properties=species:S:1:pos:R:3:forces:R:3 energy=-30.081634521484375 free_energy=-30.081634521484375 stress="-3.284045305917971e-05 -3.2407747596607805e-08 -1.261464710466953e-08 -3.2407747596607805e-08 -3.279947122791782e-05 1.5603364156291377e-09 -1.261464710466953e-08 1.5603364156291377e-09 -3.2789157557999715e-05" pbc="T T T"
Se       1.82165708       1.28810620       3.15520053       0.00001234       0.00001096       0.00001013
Se       5.46496671       3.86431347       9.46559925       0.00000657       0.00000212       0.00000569
Si      -0.00000028      -0.00000006      -0.00000044       0.00000125       0.00000144       0.00000455
S        1.86138644       1.31619901       6.31039794      -0.00050816      -0.00035392      -0.00000330
S        5.42523511       3.83621908       6.31039808       0.00049870       0.00034933      -0.00000370
S        4.53427113       1.31619875       4.76720840       0.00025032      -0.00036012      -0.00044172
S        2.75234790       3.83621942       7.85358944      -0.00025270       0.00035003       0.00042930
S        2.75234841       3.83621870       4.76720771      -0.00025523       0.00035357      -0.00044098
S        4.53427184       1.31619882       7.85358980       0.00024687      -0.00035323       0.00044002
