9
Lattice="4.764638681882639 -1.0290532277185923e-08 2.7508654231930634 1.5882128618230702 4.492144576487162 2.7508654620529835 -1.3353727220332382e-07 -4.683160325644485e-08 5.501731077679451" Properties=species:S:1:pos:R:3:forces:R:3 energy=-38.86823272705078 free_energy=-38.86823272705078 stress="-1.120669548981823e-05 -4.426853195127478e-08 1.313329534013974e-07 -4.426853195127478e-08 -1.1458608241809998e-05 4.53462156713158e-09 1.313329534013974e-07 4.53462156713158e-09 -1.1475703104224522e-05" pbc="T T T"
Se       1.58821290       1.12303565       2.75086554      -0.00000038      -0.00000198       0.00000192
Se       4.76463760       3.36910892       8.25259781      -0.00000880       0.00000348       0.00001062
S        0.00000002       0.00000008      -0.00000022       0.00000179       0.00000009      -0.00000022
O        1.35607685       0.95889108       5.50173067       0.00021076       0.00015366      -0.00000148
O        4.99677530       3.53325322       5.50173053      -0.00021195      -0.00015497       0.00000115
O        4.08660028       0.95889073       3.92526231      -0.00010610       0.00015152       0.00018668
O        2.26625124       3.53325337       7.07819925       0.00011039      -0.00015223      -0.00019419
O        2.26625178       3.53325369       3.92526192       0.00010943      -0.00015152       0.00018454
O        4.08659974       0.95889104       7.07819956      -0.00010574       0.00015283      -0.00018966
