9
Lattice="4.706722357504308 1.3765287934323269e-07 2.717427401400656 1.568907546879411 4.4375403694316375 2.7174274627193755 8.894166937933376e-08 1.379910798588377e-07 5.434854648749863" Properties=species:S:1:pos:R:3:forces:R:3 energy=-43.04430389404297 free_energy=-43.04430389404297 stress="-7.014123184490018e-06 5.2359855118311316e-08 -1.0411162776335914e-07 5.2359855118311316e-08 -6.751064574928023e-06 -4.012484922100157e-08 -1.0411162776335914e-07 -4.012484922100157e-08 -7.028429990896257e-06" pbc="T T T"
Se       1.56890754       1.10938567       2.71742761      -0.00000023       0.00000289       0.00000200
Se       4.70672256       3.32815467       8.15228059       0.00000262      -0.00000424      -0.00000876
Si       0.00000010       0.00000012       0.00000005       0.00000120       0.00000106       0.00000805
O        1.44694649       1.02314596       5.43485460       0.00011730       0.00008750       0.00000053
O        4.82868379       3.41439482       5.43485547      -0.00012255      -0.00008810       0.00000287
O        3.98324874       1.02314525       3.97051991      -0.00005907       0.00008547       0.00010359
O        2.29238063       3.41439511       6.89918992       0.00006360      -0.00008881      -0.00010765
O        2.29238083       3.41439516       3.97052001       0.00005841      -0.00008523       0.00010526
O        3.98324933       1.02314590       6.89919009      -0.00006175       0.00008970      -0.00010526
