9
Lattice="4.787218560070699 1.1780519804421312e-08 2.7639018885731623 1.5957395193006358 4.513433031818415 2.7639019090628625 -7.754174173858821e-08 -2.973567857776824e-08 5.527803911452587" Properties=species:S:1:pos:R:3:forces:R:3 energy=-38.98133087158203 free_energy=-38.98133087158203 stress="0.0007009106921032071 8.01797881422317e-08 1.765624269012278e-08 8.01797881422317e-08 0.0007007322856225073 -2.6825587084999825e-08 1.765624269012278e-08 -2.6825587084999825e-08 0.0007006189553067088" pbc="T T T"
Se       1.59573990       1.12835845       2.76390152       0.00000517       0.00000251      -0.00000624
Se       4.78721833       3.38507416       8.29170545      -0.00000407      -0.00000724      -0.00000716
Sb       0.00000000       0.00000000      -0.00000030      -0.00000041       0.00000245       0.00001318
O        1.62223174       1.14709134       5.52780402       0.00376332       0.00266278       0.00000208
O        4.76072592       3.36634175       5.52780390      -0.00376558      -0.00266135       0.00000385
O        3.97610284       1.14709108       4.16879588      -0.00188023       0.00265986       0.00325936
O        2.40685522       3.36634210       6.88681216       0.00188792      -0.00266773      -0.00326413
O        2.40685539       3.36634173       4.16879566       0.00188220      -0.00266308       0.00325930
O        3.97610264       1.14709135       6.88681248      -0.00188959       0.00267214      -0.00326031
