9
Lattice="5.687296970637507 3.943621239175259e-07 3.283561991222802 1.895765969595299 5.362034779464174 3.283562093573233 1.5312754624262924e-07 2.3363075078882273e-07 6.567123717220965" Properties=species:S:1:pos:R:3:forces:R:3 energy=-27.365985870361328 free_energy=-27.365985870361328 stress="0.00017583837325219065 1.586182385437951e-08 5.044892503747178e-08 1.586182385437951e-08 0.0001759333536028862 -1.8511224553208194e-08 5.044892503747178e-08 -1.8511224553208194e-08 0.00017606117762625217" pbc="T T T"
Se       1.89576410       1.34050866       3.28356255      -0.00001146       0.00000173       0.00000197
Se       5.68729770       4.02152528       9.85068633       0.00000453      -0.00000034       0.00000125
Sb      -0.00000010       0.00000053       0.00000069       0.00000068       0.00000655      -0.00002587
S        1.98572116       1.40411735       6.56712429      -0.00324550      -0.00229388      -0.00000061
S        5.59734367       3.95791831       6.56712403       0.00324172       0.00228760      -0.00000030
S        4.69443749       1.40411643       5.00324708       0.00162265      -0.00228867      -0.00280386
S        2.88862643       3.95791941       8.13100016      -0.00162488       0.00230011       0.00281021
S        2.88862540       3.95791867       5.00324607      -0.00161868       0.00228697      -0.00279906
S        4.69443665       1.40411709       8.13099975       0.00163090      -0.00229996       0.00281623
