9
Lattice="4.78561459471889 3.1432647186142926e-08 2.7629757949598197 1.5952049155273764 4.511920432584476 2.7629757586108568 1.1757620458803153e-08 -3.620433162074936e-08 5.525951569554873" Properties=species:S:1:pos:R:3:forces:R:3 energy=-38.98137664794922 free_energy=-38.98137664794922 stress="-9.775524085853249e-05 2.3815621474909676e-08 2.954838596025411e-10 2.3815621474909676e-08 -9.769076859811321e-05 7.257845879848901e-08 2.954838596025411e-10 7.257845879848901e-08 -9.760665852809325e-05" pbc="T T T"
Se       1.59520609       1.12798086       2.76297592       0.00001202       0.00000902       0.00000268
Se       4.78561559       3.38394049       8.28892720       0.00000959       0.00000260      -0.00000212
Sb      -0.00000014       0.00000001      -0.00000015       0.00000867       0.00000018       0.00000501
O        1.62191985       1.14687054       5.52595152       0.00703037       0.00497264      -0.00000092
O        4.75889957       3.36505006       5.52595158      -0.00703990      -0.00497705      -0.00000061
O        3.97465411       1.14687051       4.16759970      -0.00352263       0.00497174       0.00608885
O        2.40616459       3.36504933       6.88430366       0.00351310      -0.00497705      -0.00608927
O        2.40616407       3.36504953       4.16759957       0.00351065      -0.00497782       0.00609028
O        3.97465438       1.14687040       6.88430363      -0.00352269       0.00497562      -0.00609446
