9
Lattice="4.764438529538991 3.977257590945739e-08 2.7507498707827316 1.5881462117825833 4.491955658582149 2.750749874642338 1.686876743425479e-08 1.6655058530669723e-08 5.501499712347878" Properties=species:S:1:pos:R:3:forces:R:3 energy=-37.046817779541016 free_energy=-37.046817779541016 stress="0.00028768007177859545 1.4106600332297603e-08 6.8660708230083856e-09 1.4106600332297603e-08 0.00028778461273759604 -2.4414006816186884e-08 6.8660708230083856e-09 -2.4414006816186884e-08 0.00028765026945620775" pbc="T T T"
Se       1.58814689       1.12298779       2.75074964       0.00000867      -0.00001205      -0.00000300
Se       4.76444007       3.36896777       8.25225052       0.00001634       0.00000924       0.00001118
Sn       0.00000025      -0.00000004      -0.00000014      -0.00000698      -0.00000164      -0.00000022
O        1.66946900       1.18049298       5.50149965      -0.00252146      -0.00178111       0.00000154
O        4.68311524       3.31146334       5.50149936       0.00252199       0.00179511      -0.00000719
O        3.92970369       1.18049262       4.19655282       0.00125876      -0.00178921      -0.00218487
O        2.42287983       3.31146288       6.80644632      -0.00127047       0.00178552       0.00217688
O        2.42288064       3.31146296       4.19655289      -0.00126350       0.00178748      -0.00217968
O        3.92970339       1.18049266       6.80644673       0.00125629      -0.00179374       0.00218427
