9
Lattice="5.6001810819787625 9.610432870759904e-09 3.2332662620481756 1.866727104597483 5.279902491744382 3.2332661439043133 -7.515681608807853e-08 -1.9784000928618012e-07 6.466532654271798" Properties=species:S:1:pos:R:3:forces:R:3 energy=-27.657405853271484 free_energy=-27.657405853271484 stress="-5.8226763940183446e-05 -2.299885260015344e-08 1.2933389914593363e-09 -2.299885260015344e-08 -5.825285552418791e-05 8.257181605131336e-09 1.2933389914593363e-09 8.257181605131336e-09 -5.8233083109371364e-05" pbc="T T T"
Se       1.86672729       1.31997629       3.23326574       0.00000373       0.00000463      -0.00000353
Se       5.60018058       3.95992752       9.69979941      -0.00000352       0.00000031       0.00000308
Sn      -0.00000021       0.00000016       0.00000023       0.00000124      -0.00000685      -0.00000092
S        2.03915310       1.44189935       6.46653198      -0.00473807      -0.00335001      -0.00000271
S        5.42775501       3.83800296       6.46653171       0.00474066       0.00335168      -0.00000492
S        4.58060426       1.44189943       4.99922463       0.00236763      -0.00335296      -0.00410368
S        2.88630426       3.83800103       7.93384133      -0.00237012       0.00334937       0.00411402
S        2.88630432       3.83800274       4.99922482      -0.00236775       0.00335588      -0.00410746
S        4.58060389       1.44189972       7.93384042       0.00236624      -0.00335213       0.00410614
