9
Lattice="5.4932562793268245 -1.672634564958133e-07 3.1715329783042177 1.8310852823324526 5.179091830456527 3.1715329547696336 -4.673653699031623e-08 -6.187158271548076e-08 6.343066037558469" Properties=species:S:1:pos:R:3:forces:R:3 energy=-39.259071350097656 free_energy=-39.259071350097656 stress="-0.00010834457498276606 2.1932427429760537e-08 -1.7289492504346526e-08 2.1932427429760537e-08 -0.00010830362589331344 4.8724711376735286e-08 -1.7289492504346526e-08 4.8724711376735286e-08 -0.00010840654431376606" pbc="T T T"
Se       1.83108556       1.29477275       3.17153263       0.00000361       0.00000192      -0.00000231
Se       5.49325561       3.88431856       9.51459833      -0.00000461      -0.00000370      -0.00000808
Ta      -0.00000011       0.00000006       0.00000007       0.00000203      -0.00000026       0.00000250
S        1.95399888       1.38168519       6.34306617      -0.00083341      -0.00059177       0.00000201
S        5.37034272       3.79740594       6.34306596       0.00083367       0.00059065       0.00000139
S        4.51625670       1.38168573       4.86374569       0.00041625      -0.00059140      -0.00072121
S        2.80808479       3.79740598       7.82238654      -0.00041647       0.00059006       0.00072334
S        2.80808522       3.79740602       4.86374533      -0.00041626       0.00058874      -0.00072242
S        4.51625663       1.38168616       7.82238719       0.00041530      -0.00058435       0.00072482
