9
Lattice="5.808338780941117 -3.2894977392984755e-08 3.3534464146777867 1.936113147823609 5.476154648924544 3.353445978448782 4.11268782395357e-07 -2.434582929543565e-07 6.706892117017148" Properties=species:S:1:pos:R:3:forces:R:3 energy=-25.620494842529297 free_energy=-25.620494842529297 stress="0.00023972801864147186 -7.040615201958644e-08 -1.608739452763075e-08 -7.040615201958644e-08 0.00023968570167198777 -1.2869970866802305e-08 -1.608739452763075e-08 -1.2869970866802305e-08 0.00023980600235518068" pbc="T T T"
Se       1.93611438       1.36903880       3.35344651       0.00000278       0.00000150      -0.00000040
Se       5.80833858       4.10711543      10.06033971      -0.00000193      -0.00000116       0.00000336
Te       0.00000019      -0.00000008      -0.00000025      -0.00000666       0.00000444      -0.00000297
S        1.92625093       1.36206443       6.70689227       0.00199062       0.00140703       0.00000169
S        5.81820129       4.11409019       6.70689183      -0.00198883      -0.00140244      -0.00000191
S        4.84521412       1.36206535       5.02162861      -0.00099063       0.00140446       0.00171536
S        2.89923882       4.11408947       8.39215549       0.00099242      -0.00140244      -0.00171834
S        2.89923787       4.11408908       5.02162763       0.00099352      -0.00140947       0.00171703
S        4.84521327       1.36206484       8.39215642      -0.00099134       0.00139812      -0.00171363
