9
Lattice="4.5548663183646925 2.9976263660569554e-08 2.6297533126365016 1.5182887956499487 4.294369260159577 2.6297533219898743 1.6321406375162994e-08 2.2996451201611352e-08 5.25950659700351" Properties=species:S:1:pos:R:3:forces:R:3 energy=-47.19046401977539 free_energy=-47.19046401977539 stress="0.0007274406962096691 3.1311927273236506e-08 2.7034062100028677e-08 3.1311927273236506e-08 0.0007274404051713645 -6.087431358992035e-08 2.7034062100028677e-08 -6.087431358992035e-08 0.0007274937233887613" pbc="T T T"
Se       1.51828867       1.07359280       2.62975346      -0.00000156       0.00000514       0.00000150
Se       4.55486645       3.22077761       7.88926022      -0.00000098       0.00000529       0.00000276
Ti       0.00000011       0.00000008      -0.00000013      -0.00000592      -0.00000300       0.00000256
O        1.52513342       1.07843182       5.25950660      -0.00771993      -0.00546324       0.00000016
O        4.54802186       3.21593720       5.25950647       0.00772858       0.00546402      -0.00000089
O        3.79229978       1.07843195       3.95055743       0.00386178      -0.00546134      -0.00668752
O        2.28085517       3.21593703       6.56845598      -0.00386181       0.00545728       0.00668526
O        2.28085532       3.21593693       3.95055725      -0.00386173       0.00545830      -0.00669020
O        3.79229990       1.07843179       6.56845566       0.00386158      -0.00546247       0.00668615
