9
Lattice="4.803923867312081 2.457704822025094e-08 2.773546655166003 1.6013079591573407 4.529182869540911 2.7735466894342964 3.53124839984205e-08 6.693961561615192e-08 5.547093249168986" Properties=species:S:1:pos:R:3:forces:R:3 energy=-37.47259521484375 free_energy=-37.47259521484375 stress="0.00047676690155640244 -4.468567738058482e-08 -1.4102297996032576e-07 -4.468567738058482e-08 0.0004769309889525175 -6.336829727615623e-08 -1.4102297996032576e-07 -6.336829727615623e-08 0.00047686888137832284" pbc="T T T"
Se       1.60130408       1.13229443       2.77354739      -0.00004852      -0.00002131       0.00000553
Se       4.80392331       3.39688295       8.32063533      -0.00001467      -0.00005106      -0.00005174
Te       0.00000020       0.00000022       0.00000017       0.00000407       0.00000264       0.00000057
O        1.57746245       1.11543567       5.54709360      -0.00007969      -0.00004292       0.00000428
O        4.82776969       3.41374846       5.54709500       0.00008556       0.00005893       0.00001466
O        4.01519345       1.11543513       4.13966984       0.00005654      -0.00005004      -0.00006565
O        2.39004055       3.41374978       6.95451737      -0.00002679       0.00007220       0.00007722
O        2.39003910       3.41374885       4.13966990      -0.00003821       0.00006884      -0.00006324
O        4.01519454       1.11543632       6.95451783       0.00006187      -0.00003760       0.00007892
