9
Lattice="5.47514855045255 -1.6530553046072234e-07 3.1610786363040373 1.8250493791563498 5.16201962590117 3.161078604797371 3.265788466365019e-08 -1.5495003491802978e-08 6.32215721604294" Properties=species:S:1:pos:R:3:forces:R:3 energy=-35.629173278808594 free_energy=-35.629173278808594 stress="-9.490582306170836e-05 -8.450028587958514e-08 3.869318732085958e-08 -8.450028587958514e-08 -9.48538800003007e-05 -4.0467725170856284e-08 3.869318732085958e-08 -4.0467725170856284e-08 -9.481894812779501e-05" pbc="T T T"
Se       1.82504883       1.29050467       3.16107939      -0.00000247      -0.00000018       0.00000679
Se       5.47514717       3.87151464       9.48323709      -0.00000810       0.00000012       0.00000712
Ti      -0.00000023       0.00000018       0.00000078       0.00000333      -0.00000181      -0.00001170
S        1.91657501       1.35522290       6.32215652       0.00082868       0.00058344      -0.00000299
S        5.38362343       3.80679685       6.32215650      -0.00082706      -0.00058593      -0.00000244
S        4.51686180       1.35522277       4.82088079      -0.00041276       0.00058943       0.00071739
S        2.78333764       3.80679621       7.82343311       0.00041115      -0.00058044      -0.00071299
S        2.78333736       3.80679639       4.82088081       0.00041584      -0.00058351       0.00071132
S        4.51686081       1.35522315       7.82343283      -0.00040869       0.00057885      -0.00071247
