9
Lattice="4.665290409162171 -4.739759169292369e-08 2.6935067151345895 1.5550967242163218 4.398477955543884 2.6935067742855727 -5.5089434520641444e-08 3.349077794107981e-08 5.387013525686877" Properties=species:S:1:pos:R:3:forces:R:3 energy=-50.84432601928711 free_energy=-50.84432601928711 stress="0.0001458012411603704 -1.0481102208359516e-07 -1.954921202695914e-08 -1.0481102208359516e-07 0.00014582705625798553 -5.5846172131168714e-09 -1.954921202695914e-08 -5.5846172131168714e-09 0.00014587077021133155" pbc="T T T"
Se       1.55509698       1.09961945       2.69350710       0.00000062      -0.00000071       0.00000297
Se       4.66529015       3.29885851       8.08052076       0.00000107      -0.00000003       0.00000395
Ta      -0.00000004      -0.00000007       0.00000009       0.00000203       0.00000077      -0.00000355
O        1.58927175       1.12378485       5.38701336       0.00082862       0.00058538      -0.00000249
O        4.63111532       3.27469306       5.38701325      -0.00083172      -0.00058651      -0.00000093
O        3.87065447       1.12378512       4.06985644      -0.00041452       0.00058562       0.00071344
O        2.34973255       3.27469303       6.70417027       0.00041220      -0.00058207      -0.00071356
O        2.34973271       3.27469296       4.06985642       0.00041440      -0.00058502       0.00071514
O        3.87065439       1.12378481       6.70417039      -0.00041258       0.00058249      -0.00071487
