9
Lattice="5.493282619311474 4.150215120320819e-08 3.171548091052843 1.8310942064001674 5.179116655931598 3.17154815888965 -8.438863793264934e-10 8.248606544265064e-08 6.343096183567322" Properties=species:S:1:pos:R:3:forces:R:3 energy=-39.25906753540039 free_energy=-39.25906753540039 stress="-0.00010367197683081031 3.731045250532361e-09 -2.9082064756380532e-08 3.731045250532361e-09 -0.00010367816867073998 2.94046458293451e-08 -2.9082064756380532e-08 2.94046458293451e-08 -0.00010367869981564581" pbc="T T T"
Se       1.83109512       1.29477942       3.17154836       0.00000766       0.00000160       0.00000454
Se       5.49328225       3.88433769       9.51464369      -0.00000326       0.00000216      -0.00000477
Ta      -0.00000004      -0.00000002       0.00000016      -0.00000361      -0.00000054      -0.00000179
S        1.95399570       1.38168348       6.34309643      -0.00063870      -0.00045203      -0.00000070
S        5.37038091       3.79743325       6.34309668       0.00064029       0.00045332       0.00000152
S        4.51628444       1.38168367       4.86375777       0.00031757      -0.00045325      -0.00055480
S        2.80809224       3.79743296       7.82243454      -0.00032042       0.00045250       0.00055590
S        2.80809199       3.79743299       4.86375768      -0.00031843       0.00044832      -0.00055317
S        4.51628470       1.38168369       7.82243441       0.00031878      -0.00045196       0.00055344
