9
Lattice="4.642385827262243 5.999394016810594e-08 2.680282682941337 1.5474620357555506 4.376883174164158 2.6802826192503364 1.379772723377426e-07 1.9559463623035725e-08 5.360565126899012" Properties=species:S:1:pos:R:3:forces:R:3 energy=-44.26744842529297 free_energy=-44.26744842529297 stress="0.0003162544162478298 6.389020512642674e-08 -6.42297877107012e-08 6.389020512642674e-08 0.0003162380598951131 2.4825128619454517e-08 -6.42297877107012e-08 2.4825128619454517e-08 0.00031648215372115374" pbc="T T T"
Se       1.54746163       1.09422061       2.68028273      -0.00000389      -0.00000223       0.00000077
Se       4.64238644       3.28266308       8.04084706       0.00000390       0.00000483      -0.00000708
V       -0.00000012      -0.00000020       0.00000030       0.00000236       0.00000788      -0.00000285
O        1.49260914       1.05543395       5.36056521       0.00142872       0.00101060      -0.00000115
O        4.69723872       3.32144924       5.36056555      -0.00143349      -0.00101507       0.00000408
O        3.89608158       1.05543395       3.97292037      -0.00071466       0.00100935       0.00123924
O        2.29376643       3.32144931       6.74821025       0.00071573      -0.00101268      -0.00123882
O        2.29376658       3.32144926       3.97292020       0.00071502      -0.00101399       0.00124264
O        3.89608153       1.05543381       6.74821033      -0.00071388       0.00101101      -0.00123692
