9
Lattice="5.445627776615051 1.274325757225894e-07 3.1440346485093205 1.815209374313823 5.134187195480631 3.144034656654167 2.2112964963282898e-08 2.5611542026052617e-08 6.288069258717874" Properties=species:S:1:pos:R:3:forces:R:3 energy=-36.638404846191406 free_energy=-36.638404846191406 stress="-0.00011500820255605504 -1.4383325641631473e-08 -6.931474505478263e-09 -1.4383325641631473e-08 -0.00011500580876599997 5.4701065899109835e-09 -6.931474505478263e-09 5.4701065899109835e-09 -0.00011500000255182385" pbc="T T T"
Se       1.81520923       1.28354731       3.14403479       0.00000065       0.00000080       0.00000209
Se       5.44562858       3.85064038       9.43210461       0.00000608      -0.00000117       0.00000766
V       -0.00000014      -0.00000029      -0.00000004       0.00000085       0.00000288       0.00000398
S        1.83464629       1.29729120       6.28806882      -0.00105387      -0.00074142      -0.00000202
S        5.42619054       3.83689666       6.28806882       0.00104809       0.00074422      -0.00000261
S        4.52830473       1.29729108       4.73288518       0.00052799      -0.00074473      -0.00091231
S        2.73253214       3.83689631       7.84325367      -0.00052671       0.00073990       0.00090769
S        2.73253247       3.83689614       4.73288509      -0.00052714       0.00074384      -0.00091165
S        4.52830474       1.29729070       7.84325330       0.00052416      -0.00074461       0.00090757
