9
Lattice="5.45948433222309 6.547124668577328e-08 3.1520348693791 1.8198281605608126 5.147251349118193 3.152034890002811 -3.5309101418362124e-08 2.914937298546909e-10 6.304069799915341" Properties=species:S:1:pos:R:3:forces:R:3 energy=-41.29383087158203 free_energy=-41.29383087158203 stress="-6.412889342755079e-05 -2.2410176825360395e-08 -4.512880735774161e-08 -2.2410176825360395e-08 -6.412337825167924e-05 3.346831434214437e-08 -4.512880735774161e-08 3.346831434214437e-08 -6.413031951524317e-05" pbc="T T T"
Se       1.81982795       1.28681193       3.15203466      -0.00000221      -0.00000618      -0.00000027
Se       5.45948373       3.86043868       9.45610528      -0.00000295       0.00000081       0.00000317
W       -0.00000015      -0.00000015      -0.00000010       0.00000511       0.00000221       0.00000452
S        1.87539789       1.32610654       6.30406966      -0.00049312      -0.00034988      -0.00000059
S        5.40391452       3.82114519       6.30406924       0.00048980       0.00034824      -0.00000210
S        4.52178561       1.32610694       4.77617728       0.00025085      -0.00035289      -0.00043234
S        2.75752725       3.82114501       7.83196237      -0.00024620       0.00035107       0.00043020
S        2.75752742       3.82114501       4.77617741      -0.00024636       0.00035134      -0.00042765
S        4.52178558       1.32610657       7.83196242       0.00024516      -0.00034472       0.00042510
