9
Lattice="5.817513109759127 2.869212831519758e-09 3.3587429066114862 1.9391711166459 5.484803538351745 3.358742772629744 1.8283131119115945e-07 -3.481221649508935e-08 6.717485496549891" Properties=species:S:1:pos:R:3:forces:R:3 energy=-31.40651512145996 free_energy=-31.40651512145996 stress="0.000168494283570908 -3.747116750218993e-08 3.050461572229324e-08 -3.747116750218993e-08 0.00016855756985023618 -6.541034736073925e-08 3.050461572229324e-08 -6.541034736073925e-08 0.00016849636449478567" pbc="T T T"
Se       1.93917118       1.37120132       3.35874232       0.00000069       0.00000153      -0.00000183
Se       5.81751344       4.11360239      10.07622790       0.00000041      -0.00000138      -0.00000110
Y        0.00000022      -0.00000008      -0.00000029      -0.00000383       0.00000046       0.00000426
S        2.17126059       1.53531225       6.71748526      -0.00117341      -0.00083119      -0.00000054
S        5.58542402       3.94948993       6.71748632       0.00117740       0.00083023       0.00000036
S        4.73188340       1.53531318       5.23910985       0.00058906      -0.00083044      -0.00101942
S        3.02480109       3.94949088       8.19586158      -0.00058746       0.00083089       0.00101665
S        3.02480142       3.94949035       5.23910955      -0.00059038       0.00083226      -0.00102100
S        4.73188232       1.53531382       8.19586223       0.00058755      -0.00083241       0.00102285
