9
Lattice="4.846485710201833 4.5122747968509875e-08 2.7981199648989743 1.6154952541626948 4.5693103806239 2.798120008396606 1.3952369884194783e-07 1.5193167115769642e-07 5.596239688135806" Properties=species:S:1:pos:R:3:forces:R:3 energy=-41.799163818359375 free_energy=-41.799163818359375 stress="0.0003681661037262529 3.796194292249311e-08 -1.506185576261032e-08 3.796194292249311e-08 0.00036824235576204956 -2.588984315821108e-08 -1.506185576261032e-08 -2.588984315821108e-08 0.0003682186652440578" pbc="T T T"
Se       1.61549479       1.14232760       2.79811915      -0.00000337      -0.00000100      -0.00000807
Se       4.84648526       3.42698356       8.39435970      -0.00000463       0.00000534       0.00000105
Y        0.00000003      -0.00000015      -0.00000001      -0.00000035       0.00000404       0.00000146
O        1.80887070       1.27906408       5.59624044      -0.00416642      -0.00295120       0.00000396
O        4.65311100       3.29024633       5.59623978       0.00416577       0.00294712      -0.00000118
O        3.94205099       1.27906414       4.36464781       0.00208674      -0.00294903      -0.00360841
O        2.51993037       3.29024605       6.82783251      -0.00208098       0.00294569       0.00360861
O        2.51993034       3.29024607       4.36464723      -0.00208272       0.00294760      -0.00360802
O        3.94205086       1.27906463       6.82783214       0.00208592      -0.00294828       0.00361046
