9
Lattice="4.766353528488928 2.243927368105721e-08 2.751855526762794 1.5887845493573085 4.493761156467833 2.7518554943646802 3.77682894216315e-09 -3.700878487053525e-08 5.5037110469839226" Properties=species:S:1:pos:R:3:forces:R:3 energy=-46.487430572509766 free_energy=-46.487430572509766 stress="-0.0003664388204924762 -2.835123780187132e-08 -9.377213450179056e-10 -2.835123780187132e-08 -0.00036625267239287496 5.366357314073866e-08 -9.377213450179056e-10 5.366357314073866e-08 -0.0003664493269752711" pbc="T T T"
Se       1.58878370       1.12343853       2.75185510      -0.00000743      -0.00001977      -0.00000322
Se       4.76635367       3.37032094       8.25556569      -0.00000113       0.00000189      -0.00000984
Zr      -0.00000018      -0.00000007      -0.00000000       0.00000075      -0.00000057      -0.00000381
O        1.70715936       1.20714363       5.50371127      -0.00353134      -0.00250059       0.00000116
O        4.64797864       3.28661819       5.50371161       0.00352740       0.00250280       0.00000560
O        3.91277454       1.20714388       4.23029918       0.00177050      -0.00249720      -0.00305462
O        2.44236439       3.28661768       6.77712303      -0.00176257       0.00250638       0.00305730
O        2.44236408       3.28661778       4.23029917      -0.00176463       0.00250328      -0.00305176
O        3.91277413       1.20714395       6.77712325       0.00176868      -0.00249559       0.00305867
