9
Lattice="5.6237490623131805 -7.583422211863292e-08 3.2468727931975403 1.8745829849145208 5.302120855977242 3.246872731466064 2.48639570405059e-08 -5.8023843307135355e-08 6.493745543329459" Properties=species:S:1:pos:R:3:forces:R:3 energy=-35.16672134399414 free_energy=-35.16672134399414 stress="-1.357655037281802e-05 -6.1568279363655165e-09 2.199846527162208e-08 -6.1568279363655165e-09 -1.367058212053962e-05 -2.941447796445118e-08 2.199846527162208e-08 -2.941447796445118e-08 -1.370889731333591e-05" pbc="T T T"
Se       1.87458236       1.32552995       3.24687313      -0.00000124      -0.00000335       0.00000041
Se       5.62375037       3.97659095       9.74061945       0.00000426       0.00000199       0.00000526
Zr      -0.00000017      -0.00000010      -0.00000047       0.00000047       0.00000122       0.00000387
S        2.02999856       1.43542544       6.49374588      -0.00396822      -0.00280460      -0.00000283
S        5.46833359       3.86669522       6.49374598       0.00396694       0.00280600      -0.00000210
S        4.60875004       1.43542570       5.00490255       0.00198234      -0.00280305      -0.00343386
S        2.88958150       3.86669580       7.98258730      -0.00198716       0.00280076       0.00343027
S        2.88958208       3.86669542       5.00490290      -0.00198349       0.00280737      -0.00343487
S        4.60874996       1.43542450       7.98258754       0.00198619      -0.00280621       0.00343383
