9
Lattice="5.612058854362883 7.220056413736994e-09 3.240123620522021 1.8706862971072753 5.291099986065241 3.2401236109740594 4.756272639509061e-08 2.1938104375114008e-08 6.480247158663007" Properties=species:S:1:pos:R:3:forces:R:3 energy=-36.143741607666016 free_energy=-36.143741607666016 stress="-7.939468923723325e-05 1.463239573951114e-08 -1.8022690895236337e-08 1.463239573951114e-08 -7.938589988043532e-05 6.8254166762926616e-09 -1.8022690895236337e-08 6.8254166762926616e-09 -7.938893395476043e-05" pbc="T T T"
Sn       1.87068591       1.32277519       3.24012361      -0.00000059       0.00000019      -0.00000020
Sn       5.61205864       3.96832508       9.72037017      -0.00000068       0.00000091      -0.00000058
As       0.00000019       0.00000019       0.00000043      -0.00000192      -0.00000341      -0.00000031
S        1.92065972       1.35811117       6.48024690       0.00060213       0.00042468      -0.00000034
S        5.56208582       3.93298827       6.48024731      -0.00059825      -0.00042498      -0.00000051
S        4.65172912       1.35811138       4.90346383      -0.00030074       0.00042492       0.00052220
S        2.83101657       3.93298835       8.05703082       0.00030172      -0.00042456      -0.00052047
S        2.83101598       3.93298830       4.90346378       0.00029907      -0.00042462       0.00052118
S        4.65172899       1.35811217       8.05703069      -0.00030050       0.00042695      -0.00052053
