9
Lattice="4.51637316529384 -3.843522474236196e-08 2.6075293615083 1.5054576822054138 4.258077280369642 2.607529367262378 -2.888643086652404e-08 -1.337850535725243e-08 5.215058773049374" Properties=species:S:1:pos:R:3:forces:R:3 energy=-47.644439697265625 free_energy=-47.644439697265625 stress="2.356323784624692e-05 1.2185177311607731e-09 -1.809302574429239e-08 1.2185177311607731e-09 2.3549917386844754e-05 8.385161009982767e-08 -1.809302574429239e-08 8.385161009982767e-08 2.338412195967976e-05" pbc="T T T"
Sn       1.50545781       1.06451931       2.60752947      -0.00000036      -0.00000024       0.00000013
Sn       4.51637311       3.19355785       7.82258814       0.00000042       0.00000069       0.00000170
As       0.00000007      -0.00000001       0.00000035       0.00000152      -0.00000109      -0.00000396
N        1.56789865       1.10867192       5.21505865      -0.00177145      -0.00125349      -0.00000105
N        4.45393188       3.14940533       5.21505870       0.00177419       0.00125265      -0.00000035
N        3.73242393       1.10867194       3.96536962       0.00088590      -0.00125253      -0.00153399
N        2.28940709       3.14940524       6.46474766      -0.00088924       0.00125551       0.00153899
N        2.28940697       3.14940559       3.96536964      -0.00088662       0.00125253      -0.00153744
N        3.73242368       1.10867190       6.46474789       0.00088656      -0.00125420       0.00153673
