9
Lattice="5.690172466946102 -3.850078887492485e-08 3.285222529050852 1.8967240685759807 5.364746120738088 3.285222616993755 -1.7081180479321423e-07 -1.3074568278038106e-08 6.570445353956508" Properties=species:S:1:pos:R:3:forces:R:3 energy=-34.056236267089844 free_energy=-34.056236267089844 stress="-0.00025468843523412943 -5.6611564325237396e-09 3.5037768242318634e-08 -5.6611564325237396e-09 -0.00025471410481259227 3.182636021392682e-08 3.5037768242318634e-08 3.182636021392682e-08 -0.00025464154896326363" pbc="T T T"
Sn       1.89672404       1.34118644       3.28522198      -0.00000044      -0.00000052      -0.00000016
Sn       5.69017170       4.02355909       9.85566928       0.00000031       0.00000101       0.00000066
As      -0.00000011       0.00000007      -0.00000012      -0.00000024       0.00000038      -0.00000082
Se       2.14434033       1.51627781       6.57044554      -0.00558910      -0.00395231      -0.00000046
Se       5.44255605       3.84846854       6.57044428       0.00559014       0.00395317       0.00000060
Se       4.61800240       1.51627834       5.14227614       0.00279436      -0.00395368      -0.00484170
Se       2.96889442       3.84846773       7.99861427      -0.00279479       0.00395289       0.00484119
Se       2.96889490       3.84846830       5.14227622      -0.00279579       0.00395215      -0.00484101
Se       4.61800174       1.51627799       7.99861446       0.00279550      -0.00395301       0.00484166
