9
Lattice="6.152372166109529 -2.456785226231934e-07 3.552073615944331 2.0507905332941623 5.8005115142069705 3.5520735416643143 -7.767226813597259e-08 -1.4589669914142961e-07 7.104147366420913" Properties=species:S:1:pos:R:3:forces:R:3 energy=-31.39492416381836 free_energy=-31.39492416381836 stress="-3.3792643080232665e-05 7.865549989105602e-09 3.452363728229102e-09 7.865549989105602e-09 -3.374431616975926e-05 -1.8023579295700642e-09 3.452363728229102e-09 -1.8023579295700642e-09 -3.377860048203729e-05" pbc="T T T"
Sn       2.05079069       1.45012786       3.55207343       0.00000014      -0.00000064      -0.00000048
Sn       6.15237148       4.35038426      10.65622076      -0.00000031       0.00000200      -0.00000131
B       -0.00000017       0.00000008       0.00000007       0.00000100      -0.00000042      -0.00000214
Te       1.91930203       1.35714998       7.10414720       0.00137506       0.00096961      -0.00000006
Te       6.28386120       4.44336046       7.10414743      -0.00137483      -0.00097102       0.00000027
Te       5.19272110       1.35715007       5.21423740      -0.00068878       0.00097204       0.00119123
Te       3.01044171       4.44336032       8.99405710       0.00068716      -0.00097004      -0.00118924
Te       3.01044140       4.44336069       5.21423758       0.00068771      -0.00097127       0.00119076
Te       5.19272108       1.35715064       8.99405699      -0.00068711       0.00096968      -0.00118906
