9
Lattice="5.637351549853425 -5.1499690832222297e-08 3.254726100505372 1.8791171830045312 5.314945380883474 3.254726016891619 9.583651750123833e-08 -3.463887297910251e-08 6.509452035016989" Properties=species:S:1:pos:R:3:forces:R:3 energy=-35.433387756347656 free_energy=-35.433387756347656 stress="-2.8978804039070383e-05 -7.022884496166171e-09 -1.9412009777397543e-08 -7.022884496166171e-09 -2.895677971537225e-05 -2.3401199200634437e-08 -1.9412009777397543e-08 -2.3401199200634437e-08 -2.896085243264679e-05" pbc="T T T"
Sn       1.87911783       1.32873639       3.25472611       0.00000047      -0.00000127      -0.00000036
Sn       5.63735187       3.98620947       9.76417846       0.00000020       0.00000022       0.00000062
B        0.00000068       0.00000019       0.00000053       0.00000066      -0.00000004       0.00000088
Se       1.77020862       1.25172563       6.50945208       0.00105798       0.00074848      -0.00000096
Se       5.74626009       4.06321902       6.50945182      -0.00105709      -0.00074759       0.00000005
Se       4.75224703       1.25172609       4.78777072      -0.00052926       0.00074843       0.00091685
Se       2.76422122       4.06321939       8.23113289       0.00052857      -0.00074788      -0.00091698
Se       2.76422130       4.06321937       4.78777088       0.00052791      -0.00074825       0.00091644
Se       4.75224675       1.25172569       8.23113305      -0.00052946       0.00074789      -0.00091633
