9
Lattice="5.912385607822591 -2.7810942419467016e-09 3.4135173101838436 1.9707951619258137 5.5742506199494875 3.4135173761051343 -1.0509394866965961e-07 6.424134988311002e-09 6.827034802395785" Properties=species:S:1:pos:R:3:forces:R:3 energy=-32.48793029785156 free_energy=-32.48793029785156 stress="3.0129904189379886e-05 -2.1355710089210334e-08 -2.0286138990854852e-08 -2.1355710089210334e-08 3.014065805473365e-05 1.0459581645250182e-08 -2.0286138990854852e-08 1.0459581645250182e-08 3.0180237445165403e-05" pbc="T T T"
Sn       1.97079459       1.39356415       3.41351567      -0.00000103       0.00000412      -0.00000577
Sn       5.91238497       4.18068721      10.24055264      -0.00000178      -0.00000193       0.00000129
Bi       0.00000002      -0.00000004      -0.00000093       0.00000177      -0.00000131       0.00000467
Se       2.31152373       1.63449416       6.82703609       0.00597212       0.00422343       0.00000217
Se       5.57165754       3.93975517       6.82703461      -0.00597058      -0.00422459      -0.00000246
Se       4.75662493       1.63449431       5.41535575      -0.00298277       0.00422178       0.00516917
Se       3.12655717       3.93975517       8.23871465       0.00298422      -0.00422490      -0.00516973
Se       3.12655678       3.93975707       5.41535544       0.00298602      -0.00421988       0.00516994
Se       4.75662290       1.63449524       8.23871408      -0.00298791       0.00422329      -0.00516926
