9
Lattice="6.551787670303602 -1.2902454644276898e-07 3.7826764624809623 2.1839291017051217 6.177084670694649 3.7826764626262155 1.5857710505406557e-09 1.2992676822991181e-09 7.565352922215267" Properties=species:S:1:pos:R:3:forces:R:3 energy=-29.082050323486328 free_energy=-29.082050323486328 stress="7.320063104998553e-06 4.1746490708760575e-09 2.2750366035495517e-09 4.1746490708760575e-09 7.312482921406627e-06 -4.544523424243607e-09 2.2750366035495517e-09 -4.544523424243607e-09 7.313359674299136e-06" pbc="T T T"
Sn       2.18392858       1.54427154       3.78267691      -0.00000213       0.00000102       0.00000212
Sn       6.55178784       4.63281352      11.34802917       0.00000119       0.00000064      -0.00000024
Bi      -0.00000004      -0.00000017      -0.00000049       0.00000021       0.00000032       0.00000454
Te       2.46277986       1.74144866       7.56535269      -0.00023565      -0.00016616      -0.00000023
Te       6.27293719       4.43563606       7.56535290       0.00023550       0.00016446       0.00000076
Te       5.32039742       1.74144853       5.91550681       0.00011832      -0.00016755      -0.00020397
Te       3.41531877       4.43563684       9.21519944      -0.00011636       0.00016531       0.00020173
Te       3.41531909       4.43563558       5.91550663      -0.00011893       0.00016688      -0.00020537
Te       5.32039837       1.74144762       9.21519933       0.00011789      -0.00016499       0.00020072
