9
Lattice="5.437773780341504 -1.1252708194368575e-07 3.139500025473048 1.8125910830913974 5.12678199084968 3.1395001483289486 -4.791175729660187e-08 1.1658836277595246e-07 6.279000133931726" Properties=species:S:1:pos:R:3:forces:R:3 energy=-37.75800323486328 free_energy=-37.75800323486328 stress="-4.820488175028004e-05 2.2834301560692438e-08 1.7484385494981325e-08 2.2834301560692438e-08 -4.817912486032583e-05 1.602699839509114e-08 1.7484385494981325e-08 1.602699839509114e-08 -4.81834722450003e-05" pbc="T T T"
Sn       1.81259129       1.28169508       3.13950000       0.00000146       0.00000037       0.00000023
Sn       5.43777403       3.84508716       9.41850052      -0.00000083      -0.00000017      -0.00000007
B       -0.00000004       0.00000086       0.00000046      -0.00000130      -0.00000425      -0.00000520
S        1.66459765       1.17704885       6.27900052       0.00088006       0.00062251       0.00000040
S        5.58576615       3.94973285       6.27900066      -0.00087523      -0.00061965      -0.00000042
S        4.60547509       1.17704815       4.58108364      -0.00044137       0.00062293       0.00075996
S        2.64488998       3.94973355       7.97691550       0.00043726      -0.00062042      -0.00075620
S        2.64488996       3.94973335       4.58108454       0.00043884      -0.00062126       0.00075763
S        4.60547493       1.17704837       7.97691537      -0.00043908       0.00061911      -0.00075680
