9
Lattice="4.385966055630072 4.9075222959923896e-08 2.532238661698516 1.4619887025756875 4.135128664159578 2.5322387117598146 -1.2686990388959362e-07 -2.8398271082163037e-08 5.064477543142174" Properties=species:S:1:pos:R:3:forces:R:3 energy=-49.86985397338867 free_energy=-49.86985397338867 stress="-0.0005886339349672198 5.152839932520692e-08 6.142887865046021e-10 5.152839932520692e-08 -0.0005883649573661387 1.0658453675205237e-07 6.142887865046021e-10 1.0658453675205237e-07 -0.0005887765437364578" pbc="T T T"
Sn       1.46198886       1.03378203       2.53223815       0.00000015       0.00000088      -0.00000343
Sn       4.38596608       3.10134670       7.59671551      -0.00000099      -0.00000138      -0.00000285
B        0.00000001      -0.00000033      -0.00000081       0.00000239      -0.00000097      -0.00000242
O        1.31681096       0.93112644       5.06447791       0.00220239       0.00155449      -0.00000034
O        4.53114347       3.20400258       5.06447761      -0.00220180      -0.00155383       0.00000230
O        3.72756049       0.93112635       3.67263103      -0.00110278       0.00155401       0.00190735
O        2.12039404       3.20400235       6.45632437       0.00110170      -0.00155306      -0.00190490
O        2.12039417       3.20400249       3.67263087       0.00109902      -0.00155389       0.00190628
O        3.72756064       0.93112627       6.45632457      -0.00109795       0.00155479      -0.00190336
