9
Lattice="5.705810028784153 4.256619803571341e-08 3.2942508262548698 1.901936728123274 5.379489261716161 3.294250805937844 -3.13288631358995e-08 -4.703607882047273e-08 6.588501706773028" Properties=species:S:1:pos:R:3:forces:R:3 energy=-32.20915222167969 free_energy=-32.20915222167969 stress="-0.00028713521896861494 1.5224516758394202e-08 -3.542788951094167e-09 1.5224516758394202e-08 -0.0002871082106139511 -1.6029773064474284e-08 -3.542788951094167e-09 -1.6029773064474284e-08 -0.00028713318170048296" pbc="T T T"
Sn       1.90193673       1.34487209       3.29425092      -0.00000101       0.00000026       0.00000129
Sn       5.70580992       4.03461694       9.88275309       0.00000068       0.00000001       0.00000024
Ga      -0.00000016      -0.00000009       0.00000004       0.00000035       0.00000011       0.00000114
Se       2.09785757       1.48340920       6.58850170      -0.00412826      -0.00291951       0.00000001
Se       5.50988962       3.89608039       6.58850141       0.00412795       0.00292001      -0.00000020
Se       4.65688138       1.48340925       5.11104830       0.00206497      -0.00291961      -0.00357515
Se       2.95086519       3.89608013       8.06595489      -0.00206385       0.00291848       0.00357360
Se       2.95086550       3.89608015       5.11104832      -0.00206479       0.00291960      -0.00357513
Se       4.65688115       1.48340898       8.06595469       0.00206400      -0.00291943       0.00357415
