9
Lattice="5.481009671130016 -7.507404133884125e-08 3.164462337840989 1.8270031672069962 5.167545594692331 3.164462313111703 2.8370802175064567e-08 -1.022586119091591e-08 6.328924626542306" Properties=species:S:1:pos:R:3:forces:R:3 energy=-34.439453125 free_energy=-34.439453125 stress="2.687835512915626e-05 -3.0455787225491804e-08 3.497412581765502e-09 -3.0455787225491804e-08 2.6904688638751395e-05 3.222567546146138e-09 3.497412581765502e-09 3.222567546146138e-09 2.6875772164203227e-05" pbc="T T T"
Sn       1.82700337       1.29188626       3.16446227      -0.00000060       0.00000026      -0.00000102
Sn       5.48100972       3.87565925       9.49338566      -0.00000049      -0.00000087      -0.00000170
Ga       0.00000015       0.00000018       0.00000024      -0.00000165      -0.00000342      -0.00000560
S        1.90812631       1.34924939       6.32892514      -0.00013478      -0.00009456      -0.00000040
S        5.39988554       3.81829624       6.32892568       0.00014004       0.00010087       0.00000087
S        4.52694638       1.34924925       4.81694829       0.00006712      -0.00009511      -0.00011708
S        2.78106702       3.81829591       7.84090076      -0.00007215       0.00010151       0.00012353
S        2.78106661       3.81829594       4.81694843      -0.00006843       0.00009432      -0.00011961
S        4.52694634       1.34924971       7.84090053       0.00007113      -0.00010300       0.00012100
