9
Lattice="4.540026071964252 -5.6030491735165525e-08 2.6211850561432315 1.513341994011941 4.28037714208282 2.621185016566112 -1.291299671451042e-08 -5.760278705170999e-08 5.242370134652504" Properties=species:S:1:pos:R:3:forces:R:3 energy=-44.62261962890625 free_energy=-44.62261962890625 stress="-2.1744319383287802e-05 7.274892510622522e-08 5.035553840571083e-08 7.274892510622522e-08 -2.1616242520394735e-05 4.113607587896695e-08 5.035553840571083e-08 4.113607587896695e-08 -2.1606398149742745e-05" pbc="T T T"
Sn       1.51334219       1.07009399       2.62118487      -0.00000136      -0.00000151      -0.00000300
Sn       4.54002407       3.21028231       7.86355409      -0.00001360      -0.00000377      -0.00000777
Ga      -0.00000021      -0.00000010       0.00000012      -0.00000113       0.00000008      -0.00000295
O        1.58345909       1.11967394       5.24237013       0.00305468       0.00215578       0.00000221
O        4.46990911       3.16070298       5.24237045      -0.00305271      -0.00215256       0.00000294
O        3.74829672       1.11967474       3.99250042      -0.00152513       0.00215977       0.00264364
O        2.30507242       3.16070235       6.49224025       0.00153148      -0.00215936      -0.00263929
O        2.30507192       3.16070269       3.99250013       0.00152811      -0.00215864       0.00264484
O        3.74829713       1.11967515       6.49224007      -0.00152048       0.00216067      -0.00264144
