9
Lattice="5.514911417582815 1.4866627282526184e-07 3.1840356026119636 1.8383038764533257 5.1995086259737935 3.1840357231133205 3.270493047441056e-08 1.707093215126839e-07 6.368071148577358" Properties=species:S:1:pos:R:3:forces:R:3 energy=-42.04304122924805 free_energy=-42.04304122924805 stress="-1.0510307220101822e-05 -2.2114208242385303e-09 -1.6330307772705055e-08 -2.2114208242385303e-09 -1.0485225175216328e-05 2.0438807979417106e-08 -1.6330307772705055e-08 2.0438807979417106e-08 -1.0475547242094763e-05" pbc="T T T"
Sn       1.83830396       1.29987721       3.18403547       0.00000030       0.00000055      -0.00000036
Sn       5.51491143       3.89963151       9.55210655       0.00000009      -0.00000003       0.00000054
Ir      -0.00000004       0.00000007      -0.00000008       0.00000014       0.00000014       0.00000010
S        1.88078787       1.32991806       6.36807113       0.00015432       0.00010893       0.00000027
S        5.47242765       3.86959106       6.36807129      -0.00015485      -0.00010955       0.00000032
S        4.57451731       1.32991797       4.81284573      -0.00007674       0.00010803       0.00013304
S        2.77869790       3.86959088       7.92329698       0.00007796      -0.00010878      -0.00013387
S        2.77869761       3.86959098       4.81284586       0.00007728      -0.00010940       0.00013489
S        4.57451766       1.32991807       7.92329701      -0.00007814       0.00011003      -0.00013506
