9
Lattice="4.821212525020615 -8.490021348743901e-09 2.783528424683093 1.6070708662607034 4.5454826946162905 2.7835283682327243 6.147935145091204e-08 -2.566483976727482e-08 5.567056742880833" Properties=species:S:1:pos:R:3:forces:R:3 energy=-51.96642303466797 free_energy=-51.96642303466797 stress="3.9911174098961055e-05 2.6260789098841997e-09 2.2748595895905055e-08 2.6260789098841997e-09 3.9908209146233276e-05 -2.526427422822053e-08 2.2748595895905055e-08 -2.526427422822053e-08 3.99392592953518e-05" pbc="T T T"
Sn       1.60707109       1.13637004       2.78352852      -0.00000058      -0.00000215       0.00000028
Sn       4.82121282       3.40911204       8.35058516       0.00000116      -0.00000092      -0.00000006
Ir       0.00000000      -0.00000007      -0.00000001       0.00000180       0.00000024       0.00001084
O        1.54964015       1.09576099       5.56705669       0.00027980       0.00019711       0.00000056
O        4.87864325       3.44972174       5.56705689      -0.00027999      -0.00019682       0.00000097
O        4.04639241       1.09576103       4.12555601      -0.00013921       0.00019708       0.00024135
O        2.38189080       3.44972210       7.00855728       0.00014296      -0.00020245      -0.00024708
O        2.38189095       3.44972163       4.12555624       0.00013569      -0.00019199       0.00023640
O        4.04639251       1.09576105       7.00855742      -0.00014133       0.00019995      -0.00024343
