9
Lattice="5.79194941194706 5.864840244572738e-08 3.3439836237513476 1.9306498414978865 5.46070236403133 3.3439836545449735 6.994273954336921e-09 4.265996876208867e-08 6.687967235388279" Properties=species:S:1:pos:R:3:forces:R:3 energy=-39.138771057128906 free_energy=-39.138771057128906 stress="0.0001340852613793686 1.3165418089045033e-08 -1.831732987511714e-08 1.3165418089045033e-08 0.00013410195242613554 3.676980497857585e-09 -1.831732987511714e-08 3.676980497857585e-09 0.00013411068357527256" pbc="T T T"
Sn       1.93064984       1.36517561       3.34398370       0.00000059       0.00000086      -0.00000037
Sn       5.79194976       4.09552622      10.03195129       0.00000014      -0.00000060       0.00000006
Ir      -0.00000012      -0.00000002      -0.00000004       0.00000150      -0.00000102       0.00000112
Se       2.00451775       1.41740853       6.68796721       0.00010078       0.00007083      -0.00000041
Se       5.71808124       4.04329411       6.68796703      -0.00010164      -0.00007202       0.00000065
Se       4.78969048       1.41740864       5.07994689      -0.00005081       0.00007077       0.00008853
Se       2.93290863       4.04329413       8.29598731       0.00005062      -0.00007045      -0.00008766
Se       2.93290876       4.04329413       5.07994708       0.00005026      -0.00007126       0.00008811
Se       4.78969071       1.41740847       8.29598761      -0.00005142       0.00007297      -0.00009011
