9
Lattice="4.827919948133697 5.99854970021528e-08 2.7874008871334053 1.6093067570139639 4.551806027033513 2.7874007986580853 1.252945879679917e-07 -1.976297051188033e-08 5.574801557250185" Properties=species:S:1:pos:R:3:forces:R:3 energy=-52.74831771850586 free_energy=-52.74831771850586 stress="4.706450999947265e-05 3.5391497732462085e-08 6.694969556519936e-08 3.5391497732462085e-08 4.696959877037443e-05 -7.519908962194677e-08 6.694969556519936e-08 -7.519908962194677e-08 4.7172092308755964e-05" pbc="T T T"
Sn       1.60930691       1.13795139       2.78740061       0.00000259      -0.00000031      -0.00000229
Sn       4.82792052       3.41385508       8.36220157       0.00000208       0.00000254      -0.00000478
Mo       0.00000014      -0.00000006      -0.00000008      -0.00000105       0.00000252       0.00000366
O        1.59126179       1.12519168       5.57480152       0.00290883       0.00205445       0.00000088
O        4.84596496       3.42661453       5.57480190      -0.00291097      -0.00205582       0.00000212
O        4.03228934       1.12519158       4.16547402      -0.00145602       0.00205934       0.00252461
O        2.40493744       3.42661427       6.98412927       0.00145721      -0.00206256      -0.00252497
O        2.40493692       3.42661409       4.16547407       0.00145334      -0.00205773       0.00251889
O        4.03228926       1.12519181       6.98412967      -0.00145632       0.00205809      -0.00251901
