9
Lattice="5.58342485998762 5.6855417588846504e-08 3.2235917110933454 1.8611416504855027 5.264103581937567 3.2235917511282017 -5.769994347388616e-08 8.232539417715041e-09 6.447183522125905" Properties=species:S:1:pos:R:3:forces:R:3 energy=-44.86967468261719 free_energy=-44.86967468261719 stress="-3.0130679078865796e-05 1.0282623641444388e-08 -1.7234906835028596e-09 1.0282623641444388e-08 -3.012045272043906e-05 -2.6436668409957065e-09 -1.7234906835028596e-09 -2.6436668409957065e-09 -3.0133647669572383e-05" pbc="T T T"
Sn       1.86114134       1.31602611       3.22359166      -0.00000109      -0.00000057       0.00000029
Sn       5.58342467       3.94807707       9.67077519       0.00000007      -0.00000152       0.00000036
Mo       0.00000011      -0.00000001      -0.00000011      -0.00000111      -0.00000078      -0.00000071
S        1.90222678       1.34507764       6.44718365       0.00061622       0.00043608      -0.00000055
S        5.54233968       3.91902631       6.44718347      -0.00061707      -0.00043626      -0.00000059
S        4.63231182       1.34507763       4.87096845      -0.00030784       0.00043787       0.00053404
S        2.81225480       3.91902609       8.02339872       0.00030842      -0.00043465      -0.00053336
S        2.81225486       3.91902612       4.87096836       0.00030923      -0.00043611       0.00053371
S        4.63231169       1.34507765       8.02339868      -0.00030702       0.00043613      -0.00053303
