9
Lattice="4.516703079782368 -1.0718730597109359e-07 2.6077198447457373 1.5055676381134062 4.258388328908068 2.607719765227666 -1.6859853020988098e-07 -2.1660648826242356e-07 5.215439981512648" Properties=species:S:1:pos:R:3:forces:R:3 energy=-53.287269592285156 free_energy=-53.287269592285156 stress="-0.0003064468037337065 7.871585694374517e-08 2.4981809954027767e-09 7.871585694374517e-08 -0.0003061997704207897 3.087496125431244e-08 2.4981809954027767e-09 3.087496125431244e-08 -0.00030651327688246965" pbc="T T T"
Sn       1.50556746       1.06459660       2.60772000      -0.00000075      -0.00000108       0.00000056
Sn       4.51670289       3.19379074       7.82315986      -0.00000057      -0.00000202       0.00000019
P        0.00000003       0.00000001      -0.00000003       0.00000105      -0.00000075       0.00000078
O        1.40466511       0.99324826       5.21544003       0.00218844       0.00155270       0.00000012
O        4.61760572       3.26514003       5.21543945      -0.00219297      -0.00155234       0.00000072
O        3.81437033       0.99324808       3.82419511      -0.00109649       0.00155425       0.00190496
O        2.20790018       3.26514033       6.60668404       0.00110042      -0.00155437      -0.00190628
O        2.20790039       3.26514022       3.82419524       0.00109625      -0.00155151       0.00190413
O        3.81437047       0.99324783       6.60668404      -0.00109601       0.00155556      -0.00190461
