9
Lattice="5.577108577301099 1.6093751074712282e-07 3.2199450217687553 1.8590363549385451 5.2581485400336305 3.2199450031120476 5.206902574442648e-09 -1.9167893715020016e-08 6.439890034518869" Properties=species:S:1:pos:R:3:forces:R:3 energy=-38.366214752197266 free_energy=-38.366214752197266 stress="-5.606876584351994e-05 4.441806922272917e-08 -1.008550931658192e-08 4.441806922272917e-08 -5.606208651443012e-05 1.3186294278710875e-09 -1.008550931658192e-08 1.3186294278710875e-09 -5.61944289074745e-05" pbc="T T T"
Sn       1.85903642       1.31453735       3.21994504      -0.00000041      -0.00000030       0.00000003
Sn       5.57710875       3.94361146       9.65983495      -0.00000024       0.00000053       0.00000007
P        0.00000001      -0.00000006       0.00000028       0.00000122      -0.00000089      -0.00001136
S        1.77789959       1.25716482       6.43989010       0.00130731       0.00092375      -0.00000061
S        5.65824556       4.00098355       6.43989026      -0.00130868      -0.00092536      -0.00000148
S        4.68815905       1.25716461       4.75965084      -0.00065795       0.00093091       0.00113839
S        2.74798614       4.00098374       8.12012908       0.00065252      -0.00092268      -0.00113124
S        2.74798567       4.00098411       4.75965064       0.00065923      -0.00092953       0.00113857
S        4.68815883       1.25716504       8.12012878      -0.00065294       0.00092334      -0.00113207
