9
Lattice="5.722865715431761 -6.781600952140157e-08 3.3040979705542184 1.9076218873055584 5.395569089450507 3.3040978907080953 6.029046528346467e-08 -5.515934158204569e-08 6.608195836682294" Properties=species:S:1:pos:R:3:forces:R:3 energy=-35.36695861816406 free_energy=-35.36695861816406 stress="-2.970812056446448e-05 -7.098829857277167e-11 -1.1048801873414504e-08 -7.098829857277167e-11 -2.9692257157876156e-05 -1.0314232135044676e-08 -1.1048801873414504e-08 -1.0314232135044676e-08 -2.9713557523791678e-05" pbc="T T T"
Sn       1.90762202       1.34889199       3.30409780       0.00000015       0.00000161      -0.00000021
Sn       5.72286557       4.04667667       9.91229365       0.00000008       0.00000138       0.00000103
P        0.00000006      -0.00000011       0.00000011      -0.00000118      -0.00000381       0.00000103
Se       1.89104892       1.33717311       6.60819589      -0.00026649      -0.00018847      -0.00000084
Se       5.73943870       4.05839584       6.60819590       0.00026953       0.00018995       0.00000011
Se       4.77734130       1.33717317       4.94179403       0.00013276      -0.00018913      -0.00023022
Se       2.85314643       4.05839585       8.27459755      -0.00013344       0.00018832       0.00023071
Se       2.85314632       4.05839599       4.94179412      -0.00013355       0.00018816      -0.00023051
Se       4.77734134       1.33717329       8.27459771       0.00013224      -0.00018810       0.00022885
