9
Lattice="5.478826855399488 1.2156506414963905e-07 3.163202211175706 1.8262756187326081 5.16548788439628 3.163202409229725 -4.059501973188626e-08 2.1386062188606175e-07 6.326404492664042" Properties=species:S:1:pos:R:3:forces:R:3 energy=-40.62209701538086 free_energy=-40.62209701538086 stress="-1.834256181609817e-05 2.9842862403484105e-08 -6.6962160261141435e-09 2.9842862403484105e-08 -1.8327535144635476e-05 1.398460902635179e-08 -6.6962160261141435e-09 1.398460902635179e-08 -1.8375129002379254e-05" pbc="T T T"
Sn       1.82627572       1.29137199       3.16320234      -0.00000004      -0.00000020      -0.00000107
Sn       5.47882688       3.87411643       9.48960708       0.00000047       0.00000022      -0.00000093
Rh      -0.00000016       0.00000006      -0.00000026      -0.00000031       0.00000060       0.00000252
S        1.87643334       1.32683876       6.32640454       0.00039977       0.00028414      -0.00000011
S        5.42866919       3.83864926       6.32640451      -0.00040030      -0.00028357       0.00000027
S        4.54061028       1.32683892       4.78824106      -0.00020012       0.00028378       0.00034595
S        2.76449209       3.83864930       7.86456814       0.00020087      -0.00028521      -0.00034815
S        2.76449208       3.83864926       4.78824104       0.00020024      -0.00028512       0.00034875
S        4.54061028       1.32683879       7.86456797      -0.00020042       0.00028512      -0.00034726
