9
Lattice="5.441562351831032 -7.091086660109757e-09 3.141687518549548 1.8138541307850724 5.130353876388654 3.1416874835731767 -3.505135432618576e-08 -6.762217239203534e-08 6.283375097809788" Properties=species:S:1:pos:R:3:forces:R:3 energy=-42.383975982666016 free_energy=-42.383975982666016 stress="-0.00020769047841895372 4.877480641596321e-09 -1.1034996028058686e-08 4.877480641596321e-09 -0.00020769107504747808 3.156873873422228e-08 -1.1034996028058686e-08 3.156873873422228e-08 -0.00020763099018950015" pbc="T T T"
Sn       1.81385428       1.28258903       3.14168812      -0.00000049      -0.00000032      -0.00000007
Sn       5.44156232       3.84776555       9.42506281      -0.00000113       0.00000146       0.00000093
Ru      -0.00000025      -0.00000031       0.00000104      -0.00000055      -0.00000002       0.00000307
S        1.88078447       1.32991579       6.28337499      -0.00103575      -0.00073370       0.00000000
S        5.37463193       3.80043802       6.28337498       0.00103539       0.00073200      -0.00000018
S        4.50116971       1.32991562       4.77049439       0.00051928      -0.00073430      -0.00089777
S        2.75424653       3.80043830       7.79625484      -0.00051704       0.00073344       0.00089657
S        2.75424664       3.80043797       4.77049442      -0.00051755       0.00073442      -0.00089872
S        4.50117015       1.32991540       7.79625496       0.00051779      -0.00073296       0.00089622
