9
Lattice="5.773505571058029 -6.609704564391911e-08 3.3333349073004044 1.9245018335096693 5.443313134563659 3.3333348400843814 8.867489516492285e-08 -1.9619842987877115e-08 6.6666696610113725" Properties=species:S:1:pos:R:3:forces:R:3 energy=-37.933380126953125 free_energy=-37.933380126953125 stress="-0.00015351150068454444 -4.492813232559456e-08 2.747690741600195e-09 -4.492813232559456e-08 -0.0001534540788270533 -8.34042701569615e-09 2.747690741600195e-09 -8.34042701569615e-09 -0.00015343286213465035" pbc="T T T"
Sn       1.92450225       1.36082771       3.33333476      -0.00000084      -0.00000102       0.00000036
Sn       5.77350546       4.08248421      10.00000457      -0.00000027       0.00000116       0.00000016
Rh       0.00000010       0.00000004       0.00000020      -0.00000210       0.00000091      -0.00000178
Se       1.99143628       1.40815803       6.66666961       0.00870232       0.00615360       0.00000031
Se       5.70657094       4.03515519       6.66666973      -0.00870194      -0.00615272       0.00000008
Se       4.77778728       1.40815839       5.05796935      -0.00434888       0.00615041       0.00753137
Se       2.92022023       4.03515510       8.27537003       0.00434991      -0.00615060      -0.00753389
Se       2.92022015       4.03515505       5.05796933       0.00435007      -0.00615193       0.00753428
Se       4.77778728       1.40815844       8.27537012      -0.00434823       0.00615014      -0.00753108
