9
Lattice="4.812208889166716 -3.0866779514553894e-08 2.7783300213613424 1.6040696372419563 4.536994066547869 2.778329957931577 2.1932886299640862e-08 -6.21763884563108e-08 5.556660004733834" Properties=species:S:1:pos:R:3:forces:R:3 energy=-52.89818572998047 free_energy=-52.89818572998047 stress="5.007164509152062e-05 5.860460206008611e-08 1.0010906237312156e-07 5.860460206008611e-08 5.003971455153078e-05 -1.1539185607034597e-07 1.0010906237312156e-07 -1.1539185607034597e-07 5.0009373808279634e-05" pbc="T T T"
Sn       1.60406995       1.13424821       2.77832993       0.00000120      -0.00000001      -0.00000105
Sn       4.81220870       3.40274581       8.33498976      -0.00000079       0.00000220      -0.00000311
Ru      -0.00000004       0.00000015      -0.00000002      -0.00000354       0.00000519      -0.00000415
O        1.53310930       1.08407134       5.55666002      -0.00023851      -0.00016722      -0.00000003
O        4.88316965       3.45292214       5.55665996       0.00023732       0.00016680       0.00000031
O        4.04565445       1.08407098       4.10604098       0.00011033      -0.00015834      -0.00019345
O        2.37062399       3.45292291       7.00727923      -0.00011146       0.00015816       0.00019109
O        2.37062418       3.45292247       4.10604101      -0.00011529       0.00016373      -0.00020048
O        4.04565397       1.08407191       7.00727907       0.00012061      -0.00017077       0.00021052
