9
Lattice="5.777851401700482 1.8701327047555978e-08 3.335844243179117 1.9259504603572297 5.447410842843211 3.3358442856281876 -2.935276891011896e-08 3.123384201119354e-08 6.671688537198689" Properties=species:S:1:pos:R:3:forces:R:3 energy=-39.74424743652344 free_energy=-39.74424743652344 stress="-7.678724068682641e-05 5.023567339890178e-09 -1.8765939913123475e-08 5.023567339890178e-09 -7.679930422455072e-05 -1.0338815359389741e-09 -1.8765939913123475e-08 -1.0338815359389741e-09 -7.68225290812552e-05" pbc="T T T"
Sn       1.92595036       1.36185248       3.33584421      -0.00000049      -0.00000075       0.00000105
Sn       5.77785124       4.08555802      10.00753325      -0.00000121      -0.00000053       0.00000126
Ru       0.00000005      -0.00000007      -0.00000015      -0.00000089       0.00000023      -0.00000053
Se       1.99281754       1.40913470       6.67168863       0.00379202       0.00268094      -0.00000015
Se       5.71098428       4.03827637       6.67168823      -0.00378945      -0.00267936       0.00000010
Se       4.78144290       1.40913500       5.06167484      -0.00189549       0.00268023       0.00328229
Se       2.92235903       4.03827626       8.28170228       0.00189579      -0.00268088      -0.00328401
Se       2.92235928       4.03827611       5.06167472       0.00189509      -0.00268087       0.00328238
Se       4.78144266       1.40913475       8.28170224      -0.00189539       0.00268085      -0.00328256
