9
Lattice="5.813547520947862 4.275020913897674e-08 3.3564532493736436 1.9378491928062178 5.481065142349705 3.3564532860036698 -2.7632696769890804e-08 2.5323227552167577e-08 6.712906546608492" Properties=species:S:1:pos:R:3:forces:R:3 energy=-33.28028106689453 free_energy=-33.28028106689453 stress="0.00011565929162316024 2.4271418652688226e-08 2.0653034837891937e-09 2.4271418652688226e-08 0.00011564452142920345 4.850360557639988e-09 2.0653034837891937e-09 4.850360557639988e-09 0.00011562600411707535" pbc="T T T"
Sn       1.93784911       1.37026629       3.35645361      -0.00000038       0.00000023       0.00000069
Sn       5.81354767       4.11079888      10.06935989       0.00000021      -0.00000028      -0.00000005
Sb       0.00000016       0.00000019       0.00000042      -0.00000131      -0.00000102      -0.00000183
Se       2.22330529       1.57211449       6.71290656      -0.00609671      -0.00431043      -0.00000015
Se       5.52809133       3.90895062       6.71290649       0.00609757       0.00431089       0.00000009
Se       4.70189478       1.57211415       5.28189205       0.00304770      -0.00431021      -0.00527793
Se       3.04950179       3.90895099       8.14392063      -0.00304779       0.00431079       0.00527906
Se       3.04950170       3.90895102       5.28189201      -0.00304781       0.00431033      -0.00527840
Se       4.70189491       1.57211419       8.14392065       0.00304847      -0.00431027       0.00527856
