9
Lattice="4.694745078077045 -3.446771611879231e-09 2.7105123293342275 1.5649150036212773 4.426248137705165 2.7105123625112406 -2.5584129478868056e-08 2.2542655369494196e-08 5.4210247029814616" Properties=species:S:1:pos:R:3:forces:R:3 energy=-45.48211669921875 free_energy=-45.48211669921875 stress="-1.0764526450657286e-05 -2.989707592604418e-09 1.1091127305462578e-07 -2.989707592604418e-09 -1.0550287697697058e-05 -7.65513590295086e-08 1.1091127305462578e-07 -7.65513590295086e-08 -1.0609292075969279e-05" pbc="T T T"
Sn       1.56491507       1.10656183       2.71051270       0.00000117      -0.00000080       0.00000189
Sn       4.69474491       3.31968616       8.13153689      -0.00000048       0.00000041       0.00000016
Sb      -0.00000007       0.00000011       0.00000006      -0.00000538       0.00000181      -0.00000942
N        1.66421190       1.17677548       5.42102432      -0.00048029      -0.00034052      -0.00000170
N        4.59544807       3.24947257       5.42102445       0.00048316       0.00034350       0.00000166
N        3.86263911       1.17677561       4.15176224       0.00023824      -0.00033975      -0.00041443
N        2.39702106       3.24947267       6.69028740      -0.00023729       0.00034016       0.00041544
N        2.39702112       3.24947247       4.15176213      -0.00024289       0.00034034      -0.00041693
N        3.86263894       1.17677573       6.69028725       0.00024456      -0.00034547       0.00042337
