9
Lattice="4.786880356191202 1.3909317393751535e-09 2.7637068596932552 1.5956269071251798 4.5131134736558955 2.7637066511253234 1.5762060839227402e-07 -1.4398787910007386e-07 5.527413446379536" Properties=species:S:1:pos:R:3:forces:R:3 energy=-48.12806701660156 free_energy=-48.12806701660156 stress="-8.522990356141236e-06 4.3805108873584686e-08 4.497640482270526e-09 4.3805108873584686e-08 -8.552885446988512e-06 -5.784171364098256e-08 4.497640482270526e-09 -5.784171364098256e-08 -8.50893684400944e-06" pbc="T T T"
Sn       1.59562704       1.12827779       2.76370642       0.00000207      -0.00000189      -0.00000038
Sn       4.78688017       3.38483564       8.29112044      -0.00000353       0.00000403       0.00000272
Sb       0.00000001       0.00000011       0.00000022      -0.00000024      -0.00000412      -0.00000330
O        1.61604318       1.14271417       5.52741303      -0.00203061      -0.00143927      -0.00000170
O        4.76646411       3.37039913       5.52741326       0.00203240       0.00143993      -0.00000000
O        3.97885949       1.14271441       4.16324061       0.00101537      -0.00143212      -0.00175405
O        2.40364798       3.37039882       6.89158699      -0.00101435       0.00143242       0.00175619
O        2.40364872       3.37039907       4.16324064      -0.00101423       0.00143778      -0.00175905
O        3.97885893       1.14271418       6.89158633       0.00101411      -0.00143737       0.00175858
