9
Lattice="5.6952400728833865 7.483207079082967e-08 3.2881484223856328 1.8984134057454236 5.369523894760341 3.2881484612437215 -1.7519574229063686e-08 3.5203031962108886e-08 6.57629687511606" Properties=species:S:1:pos:R:3:forces:R:3 energy=-35.39741897583008 free_energy=-35.39741897583008 stress="-0.00012645198148675263 2.1397358551666912e-08 1.5304973288721158e-08 2.1397358551666912e-08 -0.00012646841059904546 5.944883252340105e-09 1.5304973288721158e-08 5.944883252340105e-09 -0.00012647983385249972" pbc="T T T"
Sn       1.89841353       1.34238144       3.28814871       0.00000092      -0.00000039      -0.00000006
Sn       5.69523952       4.02714302       9.86444624      -0.00000172       0.00000013       0.00000410
Sb       0.00000034      -0.00000024      -0.00000042      -0.00001002       0.00000087       0.00001132
S        1.98794464       1.40568918       6.57629675       0.00007385       0.00005257      -0.00000013
S        5.60570869       3.96383457       6.57629647      -0.00006655      -0.00004750      -0.00000214
S        4.70126759       1.40568952       5.00975888      -0.00003333       0.00004783       0.00005654
S        2.89238561       3.96383501       8.14283506       0.00003766      -0.00005421      -0.00006607
S        2.89238620       3.96383466       5.00975860       0.00003621      -0.00004983       0.00005910
S        4.70126773       1.40568886       8.14283477      -0.00003704       0.00005066      -0.00006300
