9
Lattice="4.835743250870928 -1.7508808760422118e-08 2.7919179194182697 1.611914456639239 4.559182587315559 2.7919178220948035 9.97981719488852e-08 -4.862843571233236e-08 5.5838356659810495" Properties=species:S:1:pos:R:3:forces:R:3 energy=-39.76182556152344 free_energy=-39.76182556152344 stress="-5.775799218099564e-05 -1.2507604196798638e-07 -3.5325623315429766e-08 -1.2507604196798638e-07 -5.810449147247709e-05 -5.1806086531769324e-08 -3.5325623315429766e-08 -5.1806086531769324e-08 -5.810518632642925e-05" pbc="T T T"
Sn       1.61191208       1.13979688       2.79191769      -0.00001496       0.00000774      -0.00000071
Sn       4.83574398       3.41938583       8.37575404       0.00000323      -0.00000724       0.00000563
Tl       0.00000009      -0.00000059       0.00000009      -0.00000680       0.00001028       0.00000368
O        1.77465663       1.25487207       5.58383566       0.00365880       0.00259131      -0.00000018
O        4.67300161       3.30430994       5.58383535      -0.00365618      -0.00259599      -0.00000432
O        3.94841631       1.25487260       4.32881638      -0.00181869       0.00259045       0.00316888
O        2.49924240       3.30431067       6.83885561       0.00182731      -0.00259259      -0.00317314
O        2.49924264       3.30431050       4.32881588       0.00182886      -0.00259125       0.00317150
O        3.94841552       1.25487223       6.83885501      -0.00182168       0.00258711      -0.00317129
