9
Lattice="5.560057431647242 -1.1333733566791705e-07 3.2101006870982194 1.8533523131083567 5.24207267199376 3.2101007862614335 -1.3379014606906461e-07 2.6845703502461598e-08 6.420201605927752" Properties=species:S:1:pos:R:3:forces:R:3 energy=-47.438716888427734 free_energy=-47.438716888427734 stress="0.0001492493465775624 2.5516626589450198e-09 -5.534441172017068e-08 2.5516626589450198e-09 0.00014920101966708899 3.285026650701184e-08 -5.534441172017068e-08 3.285026650701184e-08 0.00014923173876013607" pbc="T T T"
Sn       1.85335195       1.31051854       3.21010068      -0.00000091      -0.00000023      -0.00000030
Sn       5.56005683       3.93155386       9.63030152      -0.00000066      -0.00000039      -0.00000160
Ta      -0.00000019       0.00000003      -0.00000004       0.00000085      -0.00000192       0.00000012
S        1.94459539       1.37503665       6.42020153      -0.00568467      -0.00401983       0.00000100
S        5.46881432       3.86703623       6.42020197       0.00568455       0.00401877      -0.00000017
S        4.58775971       1.37503656       4.89417003       0.00284426      -0.00402018      -0.00492287
S        2.82565048       3.86703583       7.94623331      -0.00284357       0.00402099       0.00492656
S        2.82565015       3.86703592       4.89416983      -0.00284153       0.00402001      -0.00492337
S        4.58775974       1.37503676       7.94623355       0.00284164      -0.00401743       0.00492075
