9
Lattice="6.323412069566119 -3.1855998960393276e-08 3.6508238311417665 2.10780401543878 5.96177005293627 3.6508237925443345 4.847552437007416e-08 -1.2994615408668209e-08 7.301647578321469" Properties=species:S:1:pos:R:3:forces:R:3 energy=-39.05988693237305 free_energy=-39.05988693237305 stress="-6.769524588889908e-06 -2.467635162872739e-08 1.0440199399441852e-10 -2.467635162872739e-08 -6.760149062756682e-06 1.4908426493320803e-08 1.0440199399441852e-10 1.4908426493320803e-08 -6.7535574999055825e-06" pbc="T T T"
Sn       2.10780398       1.49044211       3.65082381      -0.00000033      -0.00000058       0.00000107
Sn       6.32341188       4.47132761      10.95246996       0.00000011       0.00000091      -0.00000598
Ta      -0.00000022      -0.00000021       0.00000115       0.00000104      -0.00000026      -0.00000933
Te       2.22373821       1.57242037       7.30164724       0.00002769       0.00001991      -0.00000105
Te       6.20747810       4.38934977       7.30164841      -0.00002870      -0.00002013       0.00000065
Te       5.21154274       1.57241989       5.57663782      -0.00001571       0.00002070       0.00002669
Te       3.21967379       4.38934945       9.02665757       0.00001160      -0.00001554      -0.00001888
Te       3.21967306       4.38935002       5.57663777       0.00001553      -0.00002147       0.00002660
Te       5.21154298       1.57242101       9.02665708      -0.00001121       0.00001658      -0.00001980
