9
Lattice="5.85521361712441 4.505869656040437e-07 3.380510341292884 1.9517382512476675 5.5203485388727245 3.380510420871205 -3.5406295666462144e-08 7.2427163489394e-08 6.7610207439112155" Properties=species:S:1:pos:R:3:forces:R:3 energy=-30.040794372558594 free_energy=-30.040794372558594 stress="-0.0002431711181998253 -7.619437525363537e-08 1.6737589092485905e-08 -7.619437525363537e-08 -0.00024315730843227357 -1.0974664732543715e-08 1.6737589092485905e-08 -1.0974664732543715e-08 -0.00024351818137802184" pbc="T T T"
Sn       1.95173869       1.38008829       3.38051166       0.00000385       0.00000506       0.00000336
Sn       5.85520940       4.14025984      10.14153401      -0.00001614      -0.00000765       0.00000799
Tl       0.00000011       0.00000022      -0.00000015      -0.00001376      -0.00000365       0.00001197
Se       2.25021322       1.59113861       6.76101832      -0.00322524      -0.00228661      -0.00000385
Se       5.55673721       3.92920490       6.76101778       0.00323712       0.00228372      -0.00000717
Se       4.73010636       1.59114719       5.32925054       0.00161529      -0.00227281      -0.00281014
Se       3.07684719       3.92920829       8.19279269      -0.00160549       0.00227883       0.00280289
Se       3.07684905       3.92920541       5.32924937      -0.00160553       0.00227963      -0.00280970
Se       4.73010609       1.59114352       8.19279180       0.00160999      -0.00227649       0.00280456
