9
Lattice="5.661405771047115 -5.555468990976226e-08 3.2686140181862404 1.8871351940775634 5.337624408515553 3.2686140364778873 -3.8145098602841296e-08 -4.570049877399677e-09 6.537228102441775" Properties=species:S:1:pos:R:3:forces:R:3 energy=-31.44009017944336 free_energy=-31.44009017944336 stress="-1.495923879701877e-05 2.6943727249317817e-08 -1.2556213846437458e-08 2.6943727249317817e-08 -1.4986861970101018e-05 -2.2239612373908813e-09 -1.2556213846437458e-08 -2.2239612373908813e-09 -1.4979977095208596e-05" pbc="T T T"
Sn       1.88713597       1.33440709       3.26861356       0.00000263       0.00000253      -0.00000126
Sn       5.66140602       4.00321790       9.80584129       0.00000148      -0.00000104      -0.00000252
Tl      -0.00000013       0.00000045       0.00000041       0.00000448      -0.00000964      -0.00000547
S        2.07160897       1.46484900       6.53722822       0.00034359       0.00024256      -0.00000008
S        5.47693163       3.87277513       6.53722836      -0.00034167      -0.00024256       0.00000075
S        4.62560115       1.46484859       5.06267981      -0.00017481       0.00024673       0.00030296
S        2.92293977       3.87277491       8.01177632       0.00016817      -0.00023960      -0.00029117
S        2.92293939       3.87277531       5.06268008       0.00017067      -0.00024335       0.00029600
S        4.62560089       1.46484900       8.01177654      -0.00017438       0.00024432      -0.00029930
