9
Lattice="6.475522889371835 -7.392646679785492e-08 3.738644901995804 2.1585075368366664 6.10518146740929 3.738644942275423 -1.2456858341874922e-07 -3.875106872986421e-08 7.477290019750679" Properties=species:S:1:pos:R:3:forces:R:3 energy=-27.138471603393555 free_energy=-27.138471603393555 stress="1.1618140888458584e-05 -8.393853612176372e-09 1.8376690391619377e-08 -8.393853612176372e-09 1.1577319128264207e-05 1.276564098873223e-08 1.8376690391619377e-08 1.276564098873223e-08 1.1603864550124854e-05" pbc="T T T"
Sn       2.15851039       1.52629407       3.73864416       0.00001044      -0.00000415      -0.00000460
Sn       6.47552145       4.57888622      11.21593823      -0.00000596       0.00000192       0.00001385
Tl       0.00000038       0.00000040       0.00000027      -0.00000229      -0.00000008      -0.00000039
Te       2.46312263       1.74168947       7.47729071      -0.00124989      -0.00088865       0.00000412
Te       6.17090677       4.36349201       7.47728743       0.00124969       0.00089218      -0.00000864
Te       5.24396149       1.74169158       5.87177118       0.00062581      -0.00088389      -0.00108916
Te       3.39006838       4.36349063       9.08280868      -0.00062673       0.00088387       0.00108510
Te       3.39007066       4.36349147       5.87177018      -0.00061868       0.00088850      -0.00108778
Te       5.24395907       1.74168959       9.08280864       0.00061761      -0.00088970       0.00108764
