9
Lattice="4.873304792408696 8.526287600347082e-08 2.8136036783353675 1.6244350061376613 4.594595895531 2.813603687085587 4.0957480737152745e-08 3.9678038508315005e-08 5.627207285730278" Properties=species:S:1:pos:R:3:forces:R:3 energy=-59.378108978271484 free_energy=-59.378108978271484 stress="0.0005515264929272234 2.522369157986759e-08 5.888784571084216e-09 2.522369157986759e-08 0.0005515398806892335 3.628838385338895e-08 5.888784571084216e-09 3.628838385338895e-08 0.0005516094388440251" pbc="T T T"
Sn       1.62443498       1.14864900       2.81360473      -0.00000134      -0.00000174       0.00000788
Sn       4.87330422       3.44594749       8.44081012      -0.00000142       0.00000474      -0.00000301
Ta       0.00000040       0.00000006       0.00000032      -0.00000305       0.00000141      -0.00000739
O        1.63100663       1.15329600       5.62720680      -0.00649846      -0.00459504      -0.00000174
O        4.86673341       3.44129985       5.62720776       0.00649965       0.00459254       0.00000057
O        4.05780110       1.15329511       4.22609702       0.00324780      -0.00459707      -0.00562835
O        2.43993892       3.44130090       7.02831763      -0.00324589       0.00459838       0.00562954
O        2.43993838       3.44130010       4.22609675      -0.00324529       0.00459141      -0.00562692
O        4.05780159       1.15329552       7.02831773       0.00324857      -0.00459462       0.00562894
