9
Lattice="5.738037344745793 3.146796052882799e-09 3.3128575305502133 1.9126790954757054 5.409874057442468 3.312857569359199 8.776857032634211e-08 1.0959290308687535e-07 6.625714909080684" Properties=species:S:1:pos:R:3:forces:R:3 energy=-38.96406173706055 free_energy=-38.96406173706055 stress="-0.0003875204420182854 5.090550203590283e-08 3.1924408006034355e-08 5.090550203590283e-08 -0.00038754698471166193 -5.5792677144950176e-09 3.1924408006034355e-08 -5.5792677144950176e-09 -0.00038754864362999797" pbc="T T T"
Sr       1.91267887       1.35246866       3.31285773       0.00000050       0.00000109       0.00000043
Sr       5.73803759       4.05740561       9.93857217      -0.00000017       0.00000076       0.00000081
As       0.00000064       0.00000193       0.00000194      -0.00000952      -0.00003519      -0.00002925
S        1.94330484       1.37412432       6.62571540       0.00828075       0.00585514      -0.00000099
S        5.70740936       4.03574992       6.62571541      -0.00825405      -0.00583637      -0.00000023
S        4.76638544       1.37412392       4.99580828      -0.00414455       0.00585854       0.00717723
S        2.88433227       4.03574881       8.25562045       0.00412560      -0.00583619      -0.00714827
S        2.88433170       4.03574893       4.99580877       0.00413483      -0.00585151       0.00716192
S        4.76638554       1.37412436       8.25562035      -0.00413364       0.00584376      -0.00716150
