9
Lattice="4.9491552796091876 -1.1945561229840876e-07 2.8573962990270156 1.6497183677419531 4.666107937528023 2.857396205791836 -7.227240440509978e-09 -1.192997730928594e-07 5.714792610572024" Properties=species:S:1:pos:R:3:forces:R:3 energy=-52.2810173034668 free_energy=-52.2810173034668 stress="1.5971374523360282e-05 -4.257315922018279e-08 2.1362156488180517e-08 -4.257315922018279e-08 1.607589547347743e-05 -1.7516603278977527e-08 2.1362156488180517e-08 -1.7516603278977527e-08 1.619958675291855e-05" pbc="T T T"
Sr       1.64971830       1.16652686       2.85739623      -0.00000032      -0.00000023       0.00000039
Sr       4.94915526       3.49958059       8.57218907      -0.00000098       0.00000035      -0.00000103
As      -0.00000024       0.00000005      -0.00000030       0.00000438      -0.00000650       0.00001180
O        1.47220436       1.04100552       5.71479261       0.00053608       0.00038064      -0.00000004
O        5.12666887       3.62510195       5.71479243      -0.00053799      -0.00038218      -0.00000087
O        4.21305324       1.04100578       4.13236286      -0.00026685       0.00038040       0.00046557
O        2.38582095       3.62510224       7.29722259       0.00026923      -0.00038052      -0.00046653
O        2.38582084       3.62510218       4.13236266       0.00026488      -0.00037354       0.00045854
O        4.21305314       1.04100557       7.29722213      -0.00026834       0.00038171      -0.00046819
