9
Lattice="6.66338028510425 1.5500607184827374e-07 3.8471042539992166 2.2211269000655776 6.28229515100681 3.847104267469217 6.330672783755056e-08 6.126194849724743e-08 7.6942083983479215" Properties=species:S:1:pos:R:3:forces:R:3 energy=-32.22956848144531 free_energy=-32.22956848144531 stress="-0.0001197806850541383 -2.7603459518132922e-09 -2.2421220435830946e-09 -2.7603459518132922e-09 -0.00011976242967648432 1.2257732606713034e-08 -2.2421220435830946e-09 1.2257732606713034e-08 -0.00011975449888268486" pbc="T T T"
Sr       2.22112654       1.57057428       3.84710415       0.00000032      -0.00000078       0.00000028
Sr       6.66338081       4.71172117      11.54131284       0.00000013       0.00000033      -0.00000011
Bi       0.00000012      -0.00000015      -0.00000056       0.00000041       0.00000072       0.00000406
Te       2.45716510       1.73747818       7.69420856      -0.00498953      -0.00352746      -0.00000101
Te       6.42734242       4.54481744       7.69420853       0.00498638       0.00352654      -0.00000107
Te       5.43479794       1.73747799       5.97507154       0.00249417      -0.00352693      -0.00432041
Te       3.44970911       4.54481722       9.41334563      -0.00249358       0.00352763       0.00431904
Te       3.44970912       4.54481732       5.97507141      -0.00249310       0.00352678      -0.00432000
Te       5.43479785       1.73747803       9.41334555       0.00249475      -0.00352696       0.00431916
