9
Lattice="6.30002343536539 2.1546922303624335e-07 3.637320039195128 2.1000079634710613 5.93971877968333 3.637320128332836 1.2125324520633855e-07 1.9490989740660127e-07 7.274639868373524" Properties=species:S:1:pos:R:3:forces:R:3 energy=-33.21669387817383 free_energy=-33.21669387817383 stress="-5.379355570767075e-05 -5.180345041821965e-10 -2.030643209138816e-09 -5.180345041821965e-10 -5.377077104640193e-05 4.3099013247172024e-09 -2.030643209138816e-09 4.3099013247172024e-09 -5.374961256165989e-05" pbc="T T T"
Sr       2.10000867       1.48493019       3.63732050      -0.00000117       0.00000004      -0.00000085
Sr       6.30002325       4.45478876      10.91195985       0.00000028       0.00000037       0.00000025
B        0.00000028       0.00000024      -0.00000043      -0.00000119      -0.00000120      -0.00000017
Te       1.92006582       1.35769127       7.27464003       0.00174055       0.00123110      -0.00000048
Te       6.47996539       4.58202804       7.27464000      -0.00173895      -0.00123076      -0.00000020
Te       5.33999040       1.35769131       5.30014484      -0.00086965       0.00123084       0.00150764
Te       3.06004111       4.58202757       9.24913533       0.00086926      -0.00122976      -0.00150555
Te       3.06004096       4.58202797       5.30014481       0.00087003      -0.00123119       0.00150685
Te       5.33999029       1.35769145       9.24913520      -0.00086920       0.00123046      -0.00150737
