9
Lattice="5.44654967873835 3.736660462767044e-07 3.144567266680081 1.8155168423940249 5.135057308013123 3.144567387024869 -2.4081930104927445e-08 1.3036317498710833e-07 6.289134575071461" Properties=species:S:1:pos:R:3:forces:R:3 energy=-40.46128845214844 free_energy=-40.46128845214844 stress="-5.5958680604817346e-05 -1.474444122351315e-08 -5.314586104532282e-08 -1.474444122351315e-08 -5.594365575234406e-05 1.1162391189145637e-07 -5.314586104532282e-08 1.1162391189145637e-07 -5.592974048340693e-05" pbc="T T T"
Sr       1.81551644       1.28376454       3.14456728       0.00000176       0.00000058      -0.00000038
Sr       5.44654991       3.85129359       9.43370168      -0.00000077      -0.00000112       0.00000053
B        0.00000014       0.00000007       0.00000001      -0.00000318      -0.00000247       0.00000046
S        1.65765672       1.17214087       6.28913407       0.00307220       0.00217393       0.00000083
S        5.60441023       3.96291675       6.28913380      -0.00307417      -0.00217068       0.00000172
S        4.61772096       1.17214099       4.58014236      -0.00153080       0.00216696       0.00264964
S        2.64434473       3.96291673       7.99812856       0.00153434      -0.00216961      -0.00265679
S        2.64434490       3.96291792       4.58014072       0.00153950      -0.00217569       0.00266618
S        4.61772185       1.17213969       7.99812909      -0.00153905       0.00217822      -0.00266245
