9
Lattice="5.684691170446283 -5.568084490016603e-07 3.2820583645145227 1.8948963106844534 5.3595728353768575 3.282058747586994 1.1125290862039797e-06 1.2558429199929374e-06 6.564114802072072" Properties=species:S:1:pos:R:3:forces:R:3 energy=-37.942420959472656 free_energy=-37.942420959472656 stress="-6.43408129690215e-05 -2.3375754665266868e-08 -6.267397623105353e-08 -2.3375754665266868e-08 -6.428267806768417e-05 5.066554820132296e-08 -6.267397623105353e-08 5.066554820132296e-08 -6.421038415282965e-05" pbc="T T T"
Sr       1.89489476       1.33989244       3.28205736       0.00000222       0.00000556       0.00000539
Sr       5.68469156       4.01967967       9.84617199       0.00000481       0.00001002       0.00001036
B        0.00000474      -0.00000668      -0.00000750      -0.00000462       0.00000688       0.00000867
Se       1.77559378       1.25553441       6.56411472       0.00117414       0.00082825       0.00000257
Se       5.80399378       4.10404153       6.56411341      -0.00116974      -0.00083136       0.00000267
Se       4.79688989       1.25553482       4.81976970      -0.00057468       0.00081702       0.00100768
Se       2.78269794       4.10404058       8.30846763       0.00057564      -0.00082764      -0.00102011
Se       2.78269575       4.10404024       4.81976907       0.00057974      -0.00082435       0.00101393
Se       4.79689508       1.25554074       8.30847246      -0.00058747       0.00081564      -0.00103086
