9
Lattice="4.353524131298625 -1.000076566812665e-06 2.5135085291040142 1.4511739522623566 4.104540124943358 2.5135082091757717 -8.667357475219742e-07 -1.004705315947857e-06 5.027018559438252" Properties=species:S:1:pos:R:3:forces:R:3 energy=-52.398990631103516 free_energy=-52.398990631103516 stress="-0.0004958451609127223 -1.9007958940164826e-07 -2.726287391396909e-07 -1.9007958940164826e-07 -0.0004965679836459458 6.374222039084998e-08 -2.726287391396909e-07 6.374222039084998e-08 -0.0004955150070600212" pbc="T T T"
Sr       1.45117415       1.02613415       2.51350881      -0.00000267       0.00000199       0.00000672
Sr       4.35352268       3.07840446       7.54052537      -0.00000025      -0.00000123       0.00000653
B       -0.00000010       0.00000012      -0.00000004      -0.00000699       0.00000115      -0.00001834
O        1.23230931       0.87137451       5.02701856      -0.00800860      -0.00566119      -0.00000356
O        4.57238768       3.23316402       5.02701632       0.00799453       0.00565529       0.00000369
O        3.73736845       0.87137383       3.58072090       0.00400949      -0.00565487      -0.00693196
O        2.06732846       3.23316455       6.47331414      -0.00400478       0.00566268       0.00693220
O        2.06732899       3.23316523       3.58072011      -0.00399584       0.00565511      -0.00692523
O        3.73736770       0.87137333       6.47331492       0.00401431      -0.00565946       0.00692916
