9
Lattice="4.93330424420826 5.2684957358407474e-08 2.8482447517014386 1.644434858737248 4.651163738965635 2.84824464605331 8.279938466590148e-08 -7.08440089357614e-08 5.696489359990178" Properties=species:S:1:pos:R:3:forces:R:3 energy=-47.19723892211914 free_energy=-47.19723892211914 stress="0.0002849936136044562 6.165242183442388e-08 1.2813319294480152e-08 6.165242183442388e-08 0.0002850494929589331 9.574822712465902e-09 1.2813319294480152e-08 9.574822712465902e-09 0.00028496727463789284" pbc="T T T"
Sr       1.64443485       1.16279071       2.84824488      -0.00000017       0.00000084      -0.00000078
Sr       4.93330415       3.48837301       8.54473345       0.00000108       0.00000008       0.00000208
Ga       0.00000016      -0.00000009      -0.00000016       0.00000019       0.00000219       0.00000358
O        1.56608842       1.10739166       5.69648945      -0.00335664      -0.00237459      -0.00000064
O        5.01165088       3.54377230       5.69648940       0.00335556       0.00237340       0.00000085
O        4.15026039       1.10739140       4.20451698       0.00167745      -0.00237390      -0.00290561
O        2.42747872       3.54377266       7.18846219      -0.00167599       0.00237069       0.00290242
O        2.42747873       3.54377244       4.20451699      -0.00167778       0.00237247      -0.00290513
O        4.15026051       1.10739093       7.18846222       0.00167620      -0.00237140       0.00290331
