9
Lattice="5.5718103255566565 -4.3475351943677784e-07 3.216885433598624 1.8572697841662469 5.253152917191165 3.2168852854443624 8.434435178548643e-08 -1.218106886213242e-07 6.433770721108543" Properties=species:S:1:pos:R:3:forces:R:3 energy=-36.85169982910156 free_energy=-36.85169982910156 stress="-3.3832584449555725e-05 3.672979076441152e-08 8.431939590991533e-09 3.672979076441152e-08 -3.386181560927071e-05 -2.048147429434266e-08 8.431939590991533e-09 -2.048147429434266e-08 -3.375068990862928e-05" pbc="T T T"
Sr       1.85727016       1.31328799       3.21688531       0.00000107       0.00000047      -0.00000008
Sr       5.57180988       3.93986425       9.65065622      -0.00000002      -0.00000021       0.00000009
Ga      -0.00000025      -0.00000034      -0.00000005      -0.00000071       0.00000273       0.00000041
S        1.89475218       1.33979173       6.43377076       0.00037554       0.00026657       0.00000038
S        5.53432808       3.91336006       6.43377079      -0.00037681      -0.00026532       0.00000013
S        4.62443431       1.33979201       4.85778879      -0.00018725       0.00026570       0.00032462
S        2.80464584       3.91336081       8.00975288       0.00018853      -0.00026748      -0.00032821
S        2.80464610       3.91336106       4.85778867       0.00018691      -0.00026782       0.00032794
S        4.62443452       1.33979175       8.00975256      -0.00018737       0.00026536      -0.00032514
