9
Lattice="6.4456347070307105 4.278985949433313e-07 3.7213883345275867 2.1485452303360675 6.077002206380237 3.7213884651834 5.312416400153608e-08 1.9758442244863502e-07 7.442776577041506" Properties=species:S:1:pos:R:3:forces:R:3 energy=-31.69131088256836 free_energy=-31.69131088256836 stress="-0.00013076228788122535 1.7764547166621014e-08 9.165248116005387e-09 1.7764547166621014e-08 -0.00013075773313175887 -8.497060832723946e-09 9.165248116005387e-09 -8.497060832723946e-09 -0.00013077104813419282" pbc="T T T"
Sr       2.14854535       1.51925036       3.72138790       0.00000021       0.00000018      -0.00000028
Sr       6.44563490       4.55775253      11.16416531       0.00000005       0.00000036       0.00000019
Ga       0.00000011       0.00000017       0.00000023      -0.00000076      -0.00000028      -0.00000155
Te       2.28372362       1.61483649       7.44277674      -0.00076984      -0.00054474      -0.00000040
Te       6.31045602       4.46216625       7.44277682       0.00077178       0.00054528       0.00000060
Te       5.30377404       1.61483634       5.69915031       0.00038441      -0.00054409      -0.00066656
Te       3.29040608       4.46216659       9.18640278      -0.00038542       0.00054413       0.00066750
Te       3.29040636       4.46216645       5.69915059      -0.00038501       0.00054331      -0.00066715
Te       5.30377344       1.61483623       9.18640279       0.00038466      -0.00054415       0.00066763
