9
Lattice="5.596299073872769 -6.13996893474156e-08 3.2310247518698962 1.8654329091119841 5.276241350777825 3.231024851677798 -7.398825318059659e-08 6.992161122071196e-08 6.46204963189129" Properties=species:S:1:pos:R:3:forces:R:3 energy=-44.10589599609375 free_energy=-44.10589599609375 stress="-6.540232425322756e-05 1.2536329307977212e-08 -5.5905791107591085e-09 1.2536329307977212e-08 -6.543967174366117e-05 3.4913785640355854e-08 -5.5905791107591085e-09 3.4913785640355854e-08 -6.542469782289118e-05" pbc="T T T"
Sr       1.86543279       1.31906032       3.23102472      -0.00000013       0.00000013       0.00000067
Sr       5.59629877       3.95718081       9.69307444      -0.00000059       0.00000100       0.00000061
Ir       0.00000021      -0.00000020      -0.00000001      -0.00000068      -0.00000049       0.00000005
S        1.89800366       1.34209167       6.46204957       0.00033885       0.00023794       0.00000050
S        5.56372815       3.93415007       6.46204958      -0.00033772      -0.00023979       0.00000009
S        4.64729693       1.34209138       4.87474425      -0.00016728       0.00023758       0.00029165
S        2.81443475       3.93415004       8.04935476       0.00016847      -0.00023824      -0.00029069
S        2.81443504       3.93414995       4.87474458       0.00016892      -0.00023812       0.00029159
S        4.64729720       1.34209137       8.04935510      -0.00016999       0.00024003      -0.00029474
