9
Lattice="4.924055123693878 9.981728164708007e-08 2.842904485935135 1.6413518058177032 4.642443561284393 2.8429044793341243 3.738618157870924e-08 1.8351452986488242e-08 5.685808907115487" Properties=species:S:1:pos:R:3:forces:R:3 energy=-55.856605529785156 free_energy=-55.856605529785156 stress="4.156117211095989e-05 5.5731604220454756e-08 -4.050786372999937e-08 5.5731604220454756e-08 4.162401091889478e-05 1.30909949547231e-09 -4.050786372999937e-08 1.30909949547231e-09 4.144304330111481e-05" pbc="T T T"
Sr       1.64135188       1.16061096       2.84290431       0.00000001       0.00000141       0.00000144
Sr       4.92405515       3.48183270       8.52871364       0.00000046      -0.00000095      -0.00000005
Ir       0.00000027      -0.00000004       0.00000024      -0.00000958       0.00000447      -0.00000865
O        1.55496703       1.09952814       5.68580890      -0.00057536      -0.00040817      -0.00000029
O        5.01044003       3.54291557       5.68580907       0.00057912       0.00041106      -0.00000106
O        4.14657158       1.09952767       4.18954516       0.00028607      -0.00040451      -0.00049546
O        2.41883528       3.54291575       7.18207257      -0.00028613       0.00040579       0.00049561
O        2.41883491       3.54291617       4.18954482      -0.00028124       0.00039956      -0.00048846
O        4.14657189       1.09952782       7.18207276       0.00028670      -0.00040826       0.00049818
