9
Lattice="5.86589427125478 -2.74874661497827e-08 3.3866757335426376 1.9552980323802218 5.530418284107303 3.3866757891805572 -4.452546663487001e-08 3.6657974170601146e-08 6.77335154420567" Properties=species:S:1:pos:R:3:forces:R:3 energy=-41.27074432373047 free_energy=-41.27074432373047 stress="-0.00022712395002599806 -2.7743963570969754e-08 -1.4353437327585539e-09 -2.7743963570969754e-08 -0.0002271182311233133 -1.775594338226938e-09 -1.4353437327585539e-09 -1.775594338226938e-09 -0.0002270976547151804" pbc="T T T"
Sr       1.95529815       1.38260461       3.38667570      -0.00000023      -0.00000002      -0.00000009
Sr       5.86589397       4.14781384      10.16002726       0.00000061      -0.00000015       0.00000022
Ir      -0.00000020       0.00000009       0.00000023       0.00000074      -0.00000049      -0.00000283
Se       2.02220649       1.42991567       6.77335158       0.00801013       0.00566483      -0.00000028
Se       5.79898575       4.10050232       6.77335145      -0.00800982      -0.00566390      -0.00000057
Se       4.85479098       1.42991583       5.13795805      -0.00400514       0.00566384       0.00693589
Se       2.96640147       4.10050230       8.40874507       0.00400303      -0.00566196      -0.00693400
Se       2.96640142       4.10050245       5.13795796       0.00400424      -0.00566369       0.00693542
Se       4.85479104       1.42991604       8.40874500      -0.00400360       0.00566165      -0.00693376
