9
Lattice="4.90494039403344 -1.0855674266208532e-08 2.831868682128232 1.6349800273435153 4.624422251327924 2.831868844535954 -4.810680429647908e-08 1.6489134970848518e-07 5.663737447579928" Properties=species:S:1:pos:R:3:forces:R:3 energy=-57.06708908081055 free_energy=-57.06708908081055 stress="0.00033004136639647186 -1.3637036033742334e-07 -1.2103529911655642e-07 -1.3637036033742334e-07 0.00032987218583002687 1.374075822013765e-07 -1.2103529911655642e-07 1.374075822013765e-07 0.00033001392148435116" pbc="T T T"
Sr       1.63498013       1.15610554       2.83186865       0.00000175      -0.00000081       0.00000084
Sr       4.90494032       3.46831682       8.49560635      -0.00000146       0.00000088       0.00000033
Mo       0.00000023      -0.00000024       0.00000048      -0.00000535       0.00000933      -0.00000476
O        1.55636278       1.10051461       5.66373741      -0.00566709      -0.00400317      -0.00000086
O        4.98355748       3.52390787       5.66373728       0.00566459       0.00400549      -0.00000256
O        4.12675857       1.10051484       4.17971875       0.00283945      -0.00401312      -0.00491679
O        2.41316195       3.52390743       7.14775645      -0.00283808       0.00401139       0.00491095
O        2.41316163       3.52390774       4.17971822      -0.00282884       0.00399965      -0.00489759
O        4.12675849       1.10051511       7.14775628       0.00283623      -0.00400966       0.00491071
