9
Lattice="5.972462488585455 -1.72441121059683e-07 3.448202998276752 1.9908206956883259 5.630891672333903 3.4482029484993775 -4.375552752540961e-09 -6.405858805370793e-08 6.896406004132223" Properties=species:S:1:pos:R:3:forces:R:3 energy=-43.728660583496094 free_energy=-43.728660583496094 stress="0.0001328859943896532 -6.259651996742832e-08 -1.2199729004791493e-09 -6.259651996742832e-08 0.00013292828225530684 -2.409259902691474e-09 -1.2199729004791493e-09 -2.409259902691474e-09 0.00013298331759870052" pbc="T T T"
Sr       1.99082074       1.40772274       3.44820309      -0.00000030      -0.00000033      -0.00000020
Sr       5.97246245       4.22316874      10.34460895      -0.00000007      -0.00000048      -0.00000008
Mo      -0.00000032       0.00000032      -0.00000011       0.00000247      -0.00000366      -0.00000152
Se       2.02746662       1.43363530       6.89640600      -0.00591412      -0.00418191      -0.00000024
Se       5.93581686       4.19725629       6.89640603       0.00591399       0.00418162      -0.00000025
Se       4.95872895       1.43363545       5.20404098       0.00295910      -0.00418425      -0.00512484
Se       3.00455416       4.19725575       8.58877092      -0.00296059       0.00418752       0.00512861
Se       3.00455432       4.19725566       5.20404122      -0.00296029       0.00418711      -0.00512768
Se       4.95872884       1.43363553       8.58877073       0.00295984      -0.00418574       0.00512628
