9
Lattice="5.657375923884175 -1.1811523278007902e-07 3.266287447483866 1.8857917803837327 5.333825684555911 3.2662875910435827 -1.1567903494049748e-07 9.402657222373292e-08 6.532575095329688" Properties=species:S:1:pos:R:3:forces:R:3 energy=-47.64108657836914 free_energy=-47.64108657836914 stress="5.450433491205331e-06 -6.300818000681829e-08 1.9887044899746797e-08 -6.300818000681829e-08 5.496214271261124e-06 1.6505056876781055e-08 1.9887044899746797e-08 1.6505056876781055e-08 5.5213536143128294e-06" pbc="T T T"
Sr       1.88579164       1.33345587       3.26628716       0.00000095       0.00000061       0.00000013
Sr       5.65737575       4.00036963       9.79886221      -0.00000109       0.00000059       0.00000148
Mo      -0.00000022      -0.00000007      -0.00000046       0.00000397       0.00000208       0.00000526
S        1.91019242       1.35071040       6.53257516      -0.00262783      -0.00185943       0.00000109
S        5.63297588       3.98311561       6.53257507       0.00261995       0.00185388       0.00000088
S        4.70227912       1.35071074       4.92056290       0.00131638      -0.00186142      -0.00227809
S        2.84088792       3.98311515       8.14458741      -0.00131130       0.00185747       0.00227459
S        2.84088821       3.98311493       4.92056310      -0.00131508       0.00186323      -0.00227909
S        4.70227958       1.35071021       8.14458782       0.00131410      -0.00185701       0.00227404
