9
Lattice="4.736013421396949 -5.124894657290537e-07 2.7343385988349054 1.5786708730639136 4.465155243253793 2.734338225096583 2.2021280430234607e-07 -3.0202012595860913e-07 5.468676816250085" Properties=species:S:1:pos:R:3:forces:R:3 energy=-48.21611785888672 free_energy=-48.21611785888672 stress="0.0003364285221323371 2.479911564989834e-08 -3.681632421148606e-08 2.479911564989834e-08 0.0003364344302099198 5.519389389974094e-08 -3.681632421148606e-08 5.519389389974094e-08 0.0003365621669217944" pbc="T T T"
Sr       1.57867124       1.11628784       2.73433752      -0.00000135       0.00000091       0.00000206
Sr       4.73601345       3.34886529       8.20301411      -0.00000005       0.00000179       0.00000375
N        0.00000002      -0.00000154      -0.00000243       0.00000498       0.00001888       0.00002474
O        1.29023611       0.91233371       5.46867748      -0.00498784      -0.00353205      -0.00000853
O        5.02444819       3.55282101       5.46867718       0.00499511       0.00352621      -0.00000663
O        4.09089591       0.91233469       3.85171649       0.00249016      -0.00352979      -0.00432611
O        2.22378813       3.55282161       7.08563924      -0.00249755       0.00352526       0.00432265
O        2.22378915       3.55282112       3.85171598      -0.00249654       0.00352108      -0.00432980
O        4.09089597       0.91233361       7.08563932       0.00249380      -0.00353348       0.00431848
