9
Lattice="5.622260302749773 1.0498260863345996e-07 3.246013212047429 1.8740868928892749 5.300718115670722 3.246013166446765 2.412189898994475e-08 -3.8792278327249846e-08 6.492026382314565" Properties=species:S:1:pos:R:3:forces:R:3 energy=-41.138771057128906 free_energy=-41.138771057128906 stress="2.2912159693078138e-05 8.901768211444505e-10 1.7667625584749658e-08 8.901768211444505e-10 2.291577766300179e-05 -2.996797832111042e-08 1.7667625584749658e-08 -2.996797832111042e-08 2.2920612536836416e-05" pbc="T T T"
Sr       1.87408732       1.32517981       3.24601354       0.00000031      -0.00000017      -0.00000091
Sr       5.62226014       3.97553827       9.73803965       0.00000086       0.00000143       0.00000003
P        0.00000050       0.00000037       0.00000056      -0.00001455      -0.00000659      -0.00002015
S        1.79808259       1.27143627       6.49202652      -0.00116050      -0.00082016      -0.00000138
S        5.69826376       4.02928111       6.49202644       0.00117445       0.00083035      -0.00000040
S        4.72321932       1.27143628       4.80319857       0.00057852      -0.00081980      -0.00100583
S        2.77312853       4.02928124       8.18085362      -0.00058681       0.00082821       0.00101393
S        2.77312817       4.02928211       4.80319840      -0.00058049       0.00081968      -0.00100523
S        4.72321840       1.27143711       8.18085333       0.00058895      -0.00083286       0.00101995
