9
Lattice="4.7400056689560275 -2.4627014786692604e-07 2.736643524792486 1.5800017150995465 4.46891975789789 2.7366434249687654 -8.899364328790099e-08 -1.8518661769528942e-07 5.47328720372648" Properties=species:S:1:pos:R:3:forces:R:3 energy=-55.33345413208008 free_energy=-55.33345413208008 stress="-9.67998039413942e-06 -1.0006635164927502e-07 1.3688658206945092e-08 -1.0006635164927502e-07 -9.863909326668363e-06 -6.316987821719522e-08 1.3688658206945092e-08 -6.316987821719522e-08 -9.56840449362062e-06" pbc="T T T"
Sr       1.58000199       1.11722983       2.73664353      -0.00000023      -0.00000018      -0.00000020
Sr       4.74000547       3.35168914       8.20993072      -0.00000126       0.00000109       0.00000083
P       -0.00000002       0.00000012       0.00000033       0.00000416       0.00000288      -0.00000349
O        1.41763290       1.00241749       5.47328717      -0.00158262      -0.00111985       0.00000000
O        4.90237475       3.46650216       5.47328735       0.00157976       0.00111711      -0.00000098
O        4.03118887       1.00241749       3.96434974       0.00079048      -0.00111985      -0.00137186
O        2.28881793       3.46650224       6.98222439      -0.00079215       0.00112176       0.00137377
O        2.28881798       3.46650168       3.96434938      -0.00079048       0.00111926      -0.00137138
O        4.03118901       1.00241710       6.98222466       0.00079238      -0.00112128       0.00137210
