9
Lattice="5.793062380817349 -1.2357475892016258e-07 3.3446262846531964 1.9310207065819955 5.461751570329997 3.344626233586087 -2.7419759753923422e-08 -8.193288453401178e-08 6.6892526167987985" Properties=species:S:1:pos:R:3:forces:R:3 energy=-37.93668746948242 free_energy=-37.93668746948242 stress="-3.387729884707369e-05 9.02451979811758e-09 2.209028293620463e-09 9.02451979811758e-09 -3.3880645787576213e-05 2.407269716897531e-09 2.209028293620463e-09 2.407269716897531e-09 -3.387134347576648e-05" pbc="T T T"
Sr       1.93102062       1.36543777       3.34462629       0.00000000       0.00000068      -0.00000015
Sr       5.79306206       4.09631354      10.03387923       0.00000017       0.00000022      -0.00000031
P       -0.00000015      -0.00000012      -0.00000050       0.00000478       0.00000215       0.00000939
Se       1.89681532       1.34125087       6.68925251       0.00275528       0.00194776       0.00000021
Se       5.82726789       4.12050066       6.68925251      -0.00275919      -0.00195162      -0.00000010
Se       4.84465493       1.34125069       4.98731647      -0.00137858       0.00194818       0.00238541
Se       2.87942818       4.12050092       8.39118879       0.00138086      -0.00195251      -0.00239003
Se       2.87942833       4.12050062       4.98731646       0.00137779      -0.00194745       0.00238517
Se       4.84465503       1.34125054       8.39118885      -0.00138111       0.00195260      -0.00238970
