9
Lattice="5.555298462797112 -5.4609815951972926e-08 3.2073532076460567 1.8517661902354152 5.237585182068312 3.20735305616732 1.8251924287473357e-07 -5.646229159810556e-08 6.414706099159707" Properties=species:S:1:pos:R:3:forces:R:3 energy=-44.360137939453125 free_energy=-44.360137939453125 stress="-4.894688754575327e-05 -3.287541261443039e-08 -1.8918802524581224e-08 -3.287541261443039e-08 -4.895242091151886e-05 1.5042683543242674e-08 -1.8918802524581224e-08 1.5042683543242674e-08 -4.898395127383992e-05" pbc="T T T"
Sr       1.85176614       1.30939633       3.20735323       0.00000066      -0.00000086      -0.00000146
Sr       5.55529872       3.92818884       9.62205936      -0.00000044       0.00000050      -0.00000189
Ru       0.00000013      -0.00000048       0.00000242      -0.00000003      -0.00000095       0.00000526
S        1.89994751       1.34346585       6.41470583       0.00061184       0.00043282      -0.00000046
S        5.50711710       3.89411962       6.41470566      -0.00061268      -0.00043339      -0.00000021
S        4.60532482       1.34346567       4.85275547      -0.00030571       0.00043258       0.00052869
S        2.80173986       3.89411937       7.97665607       0.00030574      -0.00043160      -0.00052881
S        2.80173989       3.89411941       4.85275532       0.00030676      -0.00043139       0.00052899
S        4.60532525       1.34346568       7.97665600      -0.00030610       0.00043270      -0.00052971
