9
Lattice="4.885386597141339 -2.64519222520622e-08 2.8205789401986827 1.6284621767275282 4.60598643497602 2.820578935661495 -1.2825535834268587e-07 -9.624711490099767e-08 5.6411581025422" Properties=species:S:1:pos:R:3:forces:R:3 energy=-56.835968017578125 free_energy=-56.835968017578125 stress="-0.00014077908417675644 1.4926719416052947e-07 -5.773521660756842e-09 1.4926719416052947e-07 -0.00014084020222071558 -9.923669885836262e-09 -5.773521660756842e-09 -9.923669885836262e-09 -0.0001411575940437615" pbc="T T T"
Sr       1.62846202       1.15149668       2.82057867       0.00000065      -0.00000021       0.00000158
Sr       4.88538655       3.45448975       8.46173721      -0.00000018      -0.00000012      -0.00000287
Ru       0.00000019      -0.00000009      -0.00000096      -0.00000579      -0.00000487       0.00003054
O        1.53458248       1.08511335       5.64115782       0.00549906       0.00388992       0.00000190
O        4.97926578       3.52087285       5.64115821      -0.00549179      -0.00388366      -0.00000050
O        4.11809539       1.08511313       4.14956592      -0.00274977       0.00389075       0.00476694
O        2.39575326       3.52087343       7.13275038       0.00275853      -0.00390452      -0.00478059
O        2.39575314       3.52087313       4.14956595       0.00275010      -0.00388873       0.00476342
O        4.11809574       1.08511304       7.13275060      -0.00276074       0.00390160      -0.00478035
