9
Lattice="4.940024931892071 6.796729769590882e-10 2.8521249962483877 1.6466750333525986 4.6575002200808315 2.8521249002677416 1.0956988077294815e-07 -4.007416189534467e-08 5.7042498027161805" Properties=species:S:1:pos:R:3:forces:R:3 energy=-52.2899169921875 free_energy=-52.2899169921875 stress="0.0002709729305934161 1.497184953791475e-08 -2.279090249857063e-09 1.497184953791475e-08 0.0002709142863750458 -3.265486014925045e-08 -2.279090249857063e-09 -3.265486014925045e-08 0.0002709393738768995" pbc="T T T"
Sr       1.64667503       1.16437504       2.85212488      -0.00000036      -0.00000056       0.00000036
Sr       4.94002500       3.49312504       8.55637512       0.00000058       0.00000089      -0.00000150
Rh      -0.00000075       0.00000266      -0.00000001       0.00002131      -0.00005633      -0.00000134
O        1.58036586       1.11748781       5.70424987      -0.00771332      -0.00546131       0.00000000
O        5.00633336       3.54001252       5.70424989       0.00773644       0.00546363      -0.00000121
O        4.14984229       1.11748697       4.22076146       0.00385070      -0.00544780      -0.00666541
O        2.43685889       3.54001189       7.18773629      -0.00387451       0.00547650       0.00671393
O        2.43685868       3.54001180       4.22076344      -0.00387269       0.00547495      -0.00671214
O        4.14984218       1.11748711       7.18773809       0.00385168      -0.00544998       0.00666755
