9
Lattice="5.83105256264435 -4.0270246288601635e-09 3.3665596404888665 1.9436841215748648 5.497568803640627 3.3665597481817655 -6.676480312562761e-08 8.468648964621809e-08 6.733119396617757" Properties=species:S:1:pos:R:3:forces:R:3 energy=-40.291263580322266 free_energy=-40.291263580322266 stress="-4.525083568296395e-05 4.0049624061566647e-08 -1.4534793368881083e-09 4.0049624061566647e-08 -4.529497164185159e-05 -5.082098741837626e-09 -1.4534793368881083e-09 -5.082098741837626e-09 -4.532559614744969e-05" pbc="T T T"
Sr       1.94368422       1.37439227       3.36655980      -0.00000039      -0.00000019      -0.00000009
Sr       5.83105250       4.12317675      10.09967904       0.00000052       0.00000009       0.00000005
Rh      -0.00000013       0.00000003       0.00000046      -0.00000148       0.00000086      -0.00000185
Se       2.00188885       1.41554928       6.73311944       0.00176285       0.00124697       0.00000023
Se       5.77284774       4.08201952       6.73311946      -0.00176185      -0.00124571      -0.00000004
Se       4.83010815       1.41554925       5.10024602      -0.00088267       0.00124833       0.00152893
Se       2.94462834       4.08201957       8.36599235       0.00088254      -0.00124881      -0.00152948
Se       2.94462864       4.08201979       5.10024601       0.00088312      -0.00124943       0.00153024
Se       4.83010817       1.41554910       8.36599262      -0.00088275       0.00124798      -0.00152792
