9
Lattice="5.851838781787989 -1.1853238914913274e-07 3.378560728938783 1.9506128455862441 5.5171665420108695 3.378560676843919 -1.3472314015092617e-09 -6.475550209302753e-08 6.757121460211024" Properties=species:S:1:pos:R:3:forces:R:3 energy=-41.89410400390625 free_energy=-41.89410400390625 stress="-1.2689037248492241e-05 2.7829290871750345e-08 5.1233026709951446e-09 2.7829290871750345e-08 -1.2711564522760455e-05 9.100901365854952e-09 5.1233026709951446e-09 9.100901365854952e-09 -1.2733198673231527e-05" pbc="T T T"
Sr       1.95061303       1.37929149       3.37856069      -0.00000056       0.00000015      -0.00000015
Sr       5.85183868       4.13787477      10.13568231      -0.00000002       0.00000063       0.00000022
Ru       0.00000024       0.00000013       0.00000046      -0.00000002      -0.00000181       0.00000146
Se       2.01566321       1.42528899       6.75712116       0.00044441       0.00031339       0.00000162
Se       5.78678849       4.09187747       6.75712110      -0.00044404      -0.00031412       0.00000173
Se       4.84400705       1.42528905       5.12417612      -0.00022165       0.00031351       0.00038609
Se       2.95844414       4.09187755       8.39006663       0.00022467      -0.00031639      -0.00038643
Se       2.95844434       4.09187726       5.12417629       0.00022193      -0.00031309       0.00038406
Se       4.84400735       1.42528867       8.39006667      -0.00022479       0.00031778      -0.00038865
