9
Lattice="5.5571878512550885 4.69202435618212e-08 3.2084438491041443 1.8523960003443862 5.239367086013726 3.2084438392502093 6.075417001720754e-08 3.089109871480309e-08 6.41688759297903" Properties=species:S:1:pos:R:3:forces:R:3 energy=-42.91606903076172 free_energy=-42.91606903076172 stress="-7.252563955262303e-05 -6.641892369430025e-09 4.4843351254542085e-09 -6.641892369430025e-09 -7.250678027048707e-05 -1.99700824765614e-08 4.4843351254542085e-09 -1.99700824765614e-08 -7.251045462908223e-05" pbc="T T T"
Sr       1.85239612       1.30984190       3.20844377       0.00000021       0.00000012       0.00000032
Sr       5.55718781       3.92952541       9.62533153      -0.00000011       0.00000017      -0.00000044
Rh       0.00000008       0.00000033       0.00000034       0.00000058      -0.00000173      -0.00000391
S        1.88301408       1.33149195       6.41688770       0.00283766       0.00200689      -0.00000027
S        5.52656982       3.90787495       6.41688753      -0.00283760      -0.00200740      -0.00000018
S        4.61568088       1.33149183       4.83918154      -0.00141975       0.00200826       0.00246012
S        2.79390315       3.90787498       7.99459359       0.00141773      -0.00200495      -0.00245625
S        2.79390303       3.90787514       4.83918169       0.00141835      -0.00200635       0.00245705
S        4.61568073       1.33149214       7.99459340      -0.00141710       0.00200492      -0.00245649
