9
Lattice="6.591871256394659 3.583777495484186e-09 3.805818648877122 2.1972904882414968 6.214875765284131 3.805818534450119 9.353407404702775e-08 -7.400532215274858e-08 7.611637135748482" Properties=species:S:1:pos:R:3:forces:R:3 energy=-32.431121826171875 free_energy=-32.431121826171875 stress="4.6143898657646787e-07 1.6687279336125016e-09 -7.850669447861947e-09 1.6687279336125016e-09 4.63379564052957e-07 -3.8338326957543245e-10 -7.850669447861947e-09 -3.8338326957543245e-10 4.550080348053598e-07" pbc="T T T"
Sr       2.19729076       1.55371880       3.80581855       0.00000007       0.00000013      -0.00000016
Sr       6.59187150       4.66115667      11.41745597      -0.00000001       0.00000026       0.00000048
Sb      -0.00000001       0.00000012       0.00000014       0.00000044       0.00000014      -0.00000039
Te       2.38202440       1.68434594       7.61163703      -0.00049469      -0.00035024       0.00000017
Te       6.40713698       4.53052978       7.61163677       0.00049618       0.00035027       0.00000037
Te       5.40085869       1.68434593       5.86871222       0.00024779      -0.00035106      -0.00042967
Te       3.38830297       4.53053019       9.35456191      -0.00024849       0.00034997       0.00043006
Te       3.38830299       4.53052992       5.86871239      -0.00024860       0.00035043      -0.00042976
Te       5.40085909       1.68434542       9.35456228       0.00024734      -0.00034985       0.00042893
