9
Lattice="5.003509840709908 2.0517848289646006e-07 2.8887778366282393 1.6678367558562412 4.717354920542679 2.8887779252363304 7.132699450423245e-08 1.589580542195688e-07 5.7775555497145294" Properties=species:S:1:pos:R:3:forces:R:3 energy=-51.131900787353516 free_energy=-51.131900787353516 stress="8.926052396418527e-05 6.528725293719617e-08 1.2188284870262578e-07 6.528725293719617e-08 8.899548993213102e-05 -1.0332327349260595e-07 1.2188284870262578e-07 -1.0332327349260595e-07 8.894736674847081e-05" pbc="T T T"
Sr       1.66783659       1.17933879       2.88877770       0.00000105       0.00000077       0.00000160
Sr       5.00350994       3.53801620       8.66633331       0.00000126      -0.00000173       0.00000216
Sb       0.00000033       0.00000013       0.00000124      -0.00001319      -0.00000464      -0.00003588
O        1.61426537       1.14145871       5.77755586      -0.00114572      -0.00081003       0.00000128
O        5.05708068       3.57589661       5.77755584       0.00115383       0.00081569       0.00000166
O        4.19637747       1.14145828       4.28677180       0.00056875      -0.00080299      -0.00098252
O        2.47496922       3.57589634       7.26833855      -0.00057423       0.00081307       0.00099611
O        2.47496945       3.57589694       4.28677278      -0.00057030       0.00080681      -0.00098538
O        4.19637735       1.14145896       7.26833817       0.00057864      -0.00081688       0.00100136
