9
Lattice="6.063817152193314 -1.4243775822861344e-07 3.500946217116396 2.0212723705629942 5.717021856091182 3.5009460079017174 9.903443884360412e-08 -1.8620674244947654e-07 7.001892262700137" Properties=species:S:1:pos:R:3:forces:R:3 energy=-32.76555633544922 free_energy=-32.76555633544922 stress="-6.056553502276074e-06 -2.3670681414955652e-08 -9.001620782100872e-09 -2.3670681414955652e-08 -6.069638857297832e-06 1.01951549424939e-08 -9.001620782100872e-09 1.01951549424939e-08 -6.0136590036563575e-06" pbc="T T T"
Sr       2.02127217       1.42925538       3.50094596       0.00000010      -0.00000051       0.00000057
Sr       6.06381745       4.28776615      10.50283854       0.00000012      -0.00000004       0.00000026
Tl       0.00000044      -0.00000072       0.00000019       0.00000059       0.00000275       0.00000041
Se       2.23112439       1.57764311       7.00189228      -0.00090957      -0.00064254      -0.00000007
Se       5.85396522       4.13937884       7.00189218       0.00090852       0.00064236      -0.00000020
Se       4.94825457       1.57764310       5.43315685       0.00045493      -0.00064446      -0.00078875
Se       3.13683485       4.13937852       8.57062740      -0.00045466       0.00064263       0.00078660
Se       3.13683483       4.13937868       5.43315684      -0.00045511       0.00064285      -0.00078726
Se       4.94825457       1.57764304       8.57062773       0.00045517      -0.00064300       0.00078851
