9
Lattice="6.472340395881488 -9.633119350691989e-08 3.7368073609683004 2.15744663510014 6.102181088959592 3.7368074868970678 -1.442388208164085e-07 5.2238439970321655e-08 7.473614971765639" Properties=species:S:1:pos:R:3:forces:R:3 energy=-41.771934509277344 free_energy=-41.771934509277344 stress="-0.00015934866678435355 3.405560722313794e-09 -8.818303726121357e-11 3.405560722313794e-09 -0.00015934593102429062 7.719002326211921e-09 -8.818303726121357e-11 7.719002326211921e-09 -0.00015935677220113575" pbc="T T T"
Sr       2.15744694       1.52554498       3.73680754       0.00000069       0.00000005      -0.00000006
Sr       6.47234009       4.57663573      11.21042215      -0.00000066       0.00000027      -0.00000005
Ta      -0.00000003      -0.00000032      -0.00000025      -0.00000133       0.00000158       0.00000109
Te       2.26188281       1.59939268       7.47361507       0.00101015       0.00071386      -0.00000010
Te       6.36790441       4.50278856       7.47361483      -0.00101039      -0.00071443       0.00000010
Te       5.34139874       1.59939252       5.69565522      -0.00050449       0.00071312       0.00087379
Te       3.28838783       4.50278892       9.25157467       0.00050604      -0.00071541      -0.00087555
Te       3.28838795       4.50278868       5.69565530       0.00050583      -0.00071485       0.00087579
Te       5.34139878       1.59939242       9.25157472      -0.00050593       0.00071582      -0.00087492
