9
Lattice="5.938182589184073 -3.1635003790704203e-07 3.4284114079829573 1.9793940684435647 5.598571752449881 3.428411113003198 6.000458109639795e-08 -3.188452143837913e-07 6.856822712034894" Properties=species:S:1:pos:R:3:forces:R:3 energy=-46.34800338745117 free_energy=-46.34800338745117 stress="0.00010583028779365122 -9.010804546960571e-08 2.1986068077239906e-08 -9.010804546960571e-08 0.00010588293662294745 -5.680468717628173e-08 2.1986068077239906e-08 -5.680468717628173e-08 0.00010595961794024333" pbc="T T T"
Sr       1.97939461       1.39964262       3.42841130      -0.00000079      -0.00000012       0.00000022
Sr       5.93818210       4.19892855      10.28523402       0.00000033      -0.00000023      -0.00000023
Ta       0.00000045      -0.00000026       0.00000051      -0.00000140       0.00000384      -0.00000856
Se       2.07213146       1.46521780       6.85682262      -0.00168423      -0.00119042      -0.00000143
Se       5.84544494       4.13335359       6.85682258       0.00168348       0.00118833      -0.00000048
Se       4.90211633       1.46521762       5.22292949       0.00084200      -0.00119113      -0.00145840
Se       3.01546044       4.13335294       8.49071527      -0.00084344       0.00119463       0.00146331
Se       3.01546060       4.13335357       5.22292991      -0.00084297       0.00119372      -0.00146192
Se       4.90211589       1.46521811       8.49071528       0.00084696      -0.00119850       0.00146725
