9
Lattice="5.79344980373721 -2.344208402293713e-07 3.344849555131388 1.9311497286681953 5.462116998766093 3.3448495289718836 -2.71885267177603e-07 -2.2429064089694124e-07 6.689699581181884" Properties=species:S:1:pos:R:3:forces:R:3 energy=-34.49449157714844 free_energy=-34.49449157714844 stress="1.865177381432659e-07 -5.62413182692012e-09 1.5227469063461285e-08 -5.62413182692012e-09 2.0533074973627663e-07 2.7622261811188764e-08 1.5227469063461285e-08 2.7622261811188764e-08 1.9655445271382632e-07" pbc="T T T"
Sr       1.93114946       1.36552900       3.34484942       0.00000012       0.00000011       0.00000053
Sr       5.79344946       4.09658719      10.03454902       0.00000084       0.00000041       0.00000075
Tl       0.00000079       0.00000039       0.00000146      -0.00001307      -0.00001154      -0.00002925
S        2.09414071       1.48078125       6.68969995      -0.00018698      -0.00013196      -0.00000168
S        5.63045709       3.98133441       6.68969907       0.00020534       0.00014508      -0.00000226
S        4.74637962       1.48078106       5.15842957       0.00009239      -0.00013259      -0.00016233
S        2.97822111       3.98133418       8.22096820      -0.00010625       0.00014532       0.00017786
S        2.97822051       3.98133613       5.15842932      -0.00009426       0.00013041      -0.00016177
S        4.74637828       1.48078251       8.22096874       0.00010172      -0.00014538       0.00017789
