9
Lattice="6.594891373236304 2.595064488922245e-07 3.8075626339231348 2.198297371047081 6.217723598730361 3.807562630510959 1.2534300254934308e-07 8.445197427363961e-08 7.615125050745837" Properties=species:S:1:pos:R:3:forces:R:3 energy=-29.900529861450195 free_energy=-29.900529861450195 stress="0.00014747220848221332 -1.900915336250364e-08 -1.739217125873438e-08 -1.900915336250364e-08 0.00014744425425305963 1.0728447463748125e-08 -1.739217125873438e-08 1.0728447463748125e-08 0.00014745091903023422" pbc="T T T"
Sr       2.19829796       1.55443104       3.80756238      -0.00000020      -0.00000000       0.00000012
Sr       6.59489089       4.66329261      11.42268774       0.00000029      -0.00000011       0.00000021
Tl      -0.00000029      -0.00000006       0.00000031      -0.00000089      -0.00000189       0.00000020
Te       2.45465426       1.73570239       7.61512504      -0.00729063      -0.00515480       0.00000057
Te       6.33853522       4.48202196       7.61512486       0.00728825       0.00515285       0.00000009
Te       5.36756379       1.73570264       5.93335527       0.00364468      -0.00515419      -0.00631286
Te       3.42562472       4.48202127       9.29689529      -0.00364374       0.00515591       0.00631306
Te       3.42562488       4.48202125       5.93335484      -0.00364403       0.00515501      -0.00631265
Te       5.36756403       1.73570268       9.29689558       0.00364630      -0.00515281       0.00631119
