9
Lattice="5.641504372627345 2.573920143165372e-07 3.257124207397985 1.8805015388341322 5.318862229368875 3.2571244869161307 -1.5428041609518043e-07 2.3324568684378529e-07 6.514248682017412" Properties=species:S:1:pos:R:3:forces:R:3 energy=-50.44036865234375 free_energy=-50.44036865234375 stress="1.4930445104255341e-05 3.838275830503335e-08 -1.8650021971211572e-08 3.838275830503335e-08 1.5012763469712809e-05 2.2637921759383062e-08 -1.8650021971211572e-08 2.2637921759383062e-08 1.4958206520532258e-05" pbc="T T T"
Sr       1.88050149       1.32971557       3.25712401      -0.00000047      -0.00000046       0.00000127
Sr       5.64150424       3.98914698       9.77137335       0.00000062       0.00000001      -0.00000093
Ta       0.00000006       0.00000011       0.00000006       0.00000011      -0.00000331       0.00000138
S        1.95354713       1.38136685       6.51424878      -0.00070232      -0.00049686      -0.00000053
S        5.56845870       3.93749599       6.51424866       0.00070292       0.00049824      -0.00000107
S        4.66473071       1.38136696       4.94894554       0.00035089      -0.00049689      -0.00060576
S        2.85727480       3.93749586       8.07955159      -0.00034866       0.00049806       0.00060934
S        2.85727502       3.93749553       4.94894586      -0.00035039       0.00049654      -0.00060937
S        4.66473088       1.38136704       8.07955141       0.00034726      -0.00049499       0.00060582
