9
Lattice="4.959163861903346 9.628326218362882e-08 2.8631745109529643 1.6530547512937002 4.675544229719677 2.8631744418743668 1.735832738661634e-08 -7.232945197487189e-08 5.7263489918404265" Properties=species:S:1:pos:R:3:forces:R:3 energy=-63.764060974121094 free_energy=-63.764060974121094 stress="-1.6343514289474115e-05 1.4842055406916188e-07 1.6745113740057604e-08 1.4842055406916188e-07 -1.632735256862361e-05 -3.237786927456909e-08 1.6745113740057604e-08 -3.237786927456909e-08 -1.6397958461311646e-05" pbc="T T T"
Sr       1.65305480       1.16888613       2.86317441      -0.00000148       0.00000119       0.00000046
Sr       4.95916385       3.50665842       8.58952352       0.00000157      -0.00000199      -0.00000052
Ta       0.00000019       0.00000064      -0.00000015      -0.00000032      -0.00000537       0.00000152
O        1.59888048       1.13057990       5.72634873       0.00557846       0.00393999       0.00000133
O        5.01333700       3.54496418       5.72634901      -0.00556493      -0.00393635       0.00000056
O        4.15972356       1.13057934       4.24784586      -0.00279260       0.00394380       0.00483531
O        2.45249526       3.54496467       7.20485209       0.00278747      -0.00394416      -0.00482678
O        2.45249535       3.54496435       4.24784610       0.00278604      -0.00394100       0.00482368
O        4.15972404       1.13057949       7.20485234      -0.00279373       0.00394487      -0.00483674
