9
Lattice="4.198837123406028 1.9801474862425778e-08 2.424199725561803 1.3996123859598544 3.9587016034575986 2.424199737994171 -5.231135957507225e-09 1.1527506339947416e-08 4.8483994601842015" Properties=species:S:1:pos:R:3:forces:R:3 energy=-67.65069580078125 free_energy=-67.65069580078125 stress="-0.0010390321258455515 -2.4933502373869487e-08 1.3514870111919208e-08 -2.4933502373869487e-08 -0.0010391101241111755 1.112878322828692e-08 1.3514870111919208e-08 1.112878322828692e-08 -0.0010389975504949689" pbc="T T T"
Ta       1.39961235       0.98967540       2.42419975      -0.00000020      -0.00000097       0.00000180
Ta       4.19883716       2.96902622       7.27259918       0.00000120       0.00000169      -0.00000201
As       0.00000004      -0.00000002      -0.00000015      -0.00000089       0.00000126      -0.00000152
O        1.46239558       1.03406985       4.84839946      -0.00050068      -0.00035384      -0.00000036
O        4.13605387       2.92463178       4.84839948       0.00050026       0.00035188      -0.00000032
O        3.46763935       1.03406982       3.69067142       0.00024867      -0.00035143      -0.00043449
O        2.13081015       2.92463182       6.00612756      -0.00025082       0.00035393       0.00043404
O        2.13081019       2.92463186       3.69067142      -0.00024873       0.00035048      -0.00043279
O        3.46763936       1.03406983       6.00612756       0.00025129      -0.00035283       0.00043479
