9
Lattice="4.113413154127729 -9.163779157076757e-09 2.374880243242656 1.3711377564586957 3.87816303585095 2.3748801617396116 8.727470458451194e-08 -3.8107901160739296e-08 4.749760335321075" Properties=species:S:1:pos:R:3:forces:R:3 energy=-72.0655288696289 free_energy=-72.0655288696289 stress="4.3228686990914866e-05 -4.327019098582241e-08 -2.6224713511879827e-09 -4.327019098582241e-08 4.2977993871318176e-05 -3.0459105460067804e-08 -2.6224713511879827e-09 -3.0459105460067804e-08 4.309029463911429e-05" pbc="T T T"
Ta       1.37113807       0.96954023       2.37488037       0.00000030      -0.00000032       0.00000137
Ta       4.11341295       2.90862209       7.12464122      -0.00000102      -0.00000179      -0.00000031
As       0.00000003       0.00000014      -0.00000022       0.00000181      -0.00000264      -0.00000182
N        1.50410943       1.06356599       4.74976025       0.00097328       0.00068718      -0.00000272
N        3.98044145       2.81459732       4.74976038      -0.00096858      -0.00068578       0.00000250
N        3.36135869       1.06356612       3.67747691      -0.00048724       0.00068676       0.00084281
N        2.12319235       2.81459703       5.82204356       0.00048438      -0.00068495      -0.00083959
N        2.12319238       2.81459733       3.67747695       0.00048223      -0.00068688       0.00084192
N        3.36135857       1.06356593       5.82204350      -0.00048485       0.00068817      -0.00084358
