9
Lattice="5.3697434290821695 1.4907122983684034e-07 3.100222913237006 1.7899146439217837 5.062643065387841 3.1002228664451037 -1.289156157462717e-07 -1.484652537521093e-07 6.200446049762416" Properties=species:S:1:pos:R:3:forces:R:3 energy=-45.70161437988281 free_energy=-45.70161437988281 stress="0.00012504936603363603 -2.6170658884439035e-07 3.595729651806323e-07 -2.6170658884439035e-07 0.00012434492236934602 1.9880492629908986e-07 3.595729651806323e-07 1.9880492629908986e-07 0.0001239530829479918" pbc="T T T"
Ta       1.78990056       1.26566431       3.10022497      -0.00021191       0.00004904       0.00004789
Ta       5.36975376       3.79698302       9.30065647       0.00017043       0.00000688      -0.00017993
As       0.00000038       0.00000094      -0.00000138      -0.00000079      -0.00000932       0.00001338
S        1.89064588       1.33688947       6.20044455      -0.00181949      -0.00126505      -0.00001833
S        5.26901371       3.72575163       6.20044984       0.00184685       0.00123417       0.00006821
S        4.42442305       1.33688438       4.73757491       0.00094125      -0.00132960      -0.00149709
S        2.73523551       3.72575325       7.66332188      -0.00091833       0.00126803       0.00155514
S        2.73523306       3.72575499       4.73757525      -0.00098264       0.00129175      -0.00152248
S        4.42442585       1.33689019       7.66332095       0.00097468      -0.00124669       0.00153327
