9
Lattice="5.630733917431583 -1.3344476716565523e-07 3.250905724323288 1.8769112024497394 5.308706833265965 3.2509056854350526 -1.3986467260271123e-08 -5.7518104195935826e-08 6.50181147287185" Properties=species:S:1:pos:R:3:forces:R:3 energy=-41.243709564208984 free_energy=-41.243709564208984 stress="0.00014350007404573262 -4.833483835398056e-09 1.3749525962225562e-08 -4.833483835398056e-09 0.00014357489999383688 -9.97156490711859e-09 1.3749525962225562e-08 -9.97156490711859e-09 0.00014359239139594138" pbc="T T T"
Ta       1.87691354       1.32717672       3.25090710       0.00002461      -0.00000113       0.00001745
Ta       5.63073329       3.98153078       9.75271543      -0.00000678       0.00000883      -0.00002279
As      -0.00000019      -0.00000009       0.00000013       0.00000131       0.00000035      -0.00000093
Se       1.96368307       1.38853313       6.50181055      -0.00742993      -0.00525504      -0.00001114
Se       5.54396215       3.92017309       6.50181248       0.00742671       0.00525376       0.00001368
Se       4.64889170       1.38853301       4.95150542       0.00370762      -0.00525874      -0.00643370
Se       2.85875248       3.92017328       8.05211724      -0.00371519       0.00525367       0.00643295
Se       2.85875323       3.92017283       4.95150515      -0.00371416       0.00525099      -0.00643915
Se       4.64889113       1.38853382       8.05211810       0.00370617      -0.00525263       0.00644356
