9
Lattice="5.857578847215661 -2.2530945845924182e-08 3.3818746216205215 1.9525262550182705 5.522578280192758 3.381874632263214 -5.1650389209810065e-08 -2.348777316106414e-08 6.763749332702092" Properties=species:S:1:pos:R:3:forces:R:3 energy=-40.52899932861328 free_energy=-40.52899932861328 stress="-0.00020282184414099902 2.9785411470584222e-08 6.4899539076179735e-09 2.9785411470584222e-08 -0.00020285628852434456 4.867328939894833e-08 6.4899539076179735e-09 4.867328939894833e-08 -0.00020288694940973073" pbc="T T T"
Ta       1.95252594       1.38064500       3.38187506      -0.00000260       0.00000263       0.00000359
Ta       5.85757886       4.14193392      10.14562362      -0.00000141      -0.00000005      -0.00000280
Be      -0.00000001      -0.00000015      -0.00000001       0.00000101      -0.00000161      -0.00000117
Te       1.92175534       1.35888607       6.76374921       0.00641978       0.00454086      -0.00000063
Te       5.88834965       4.16369204       6.76374944      -0.00641790      -0.00454052       0.00000278
Te       4.89670129       1.35888612       5.04616376      -0.00320821       0.00453751       0.00556314
Te       2.91340396       4.16369211       8.48133487       0.00320946      -0.00453930      -0.00555874
Te       2.91340386       4.16369176       5.04616350       0.00321017      -0.00453968       0.00555556
Te       4.89670131       1.35888604       8.48133488      -0.00320994       0.00454016      -0.00556141
