9
Lattice="4.076339580178373 1.7717454146859712e-08 2.3534758678988497 1.3587798890262204 3.8432098522103217 2.3534758466594283 2.3608103167692537e-08 -9.319434662422083e-09 4.706951694907291" Properties=species:S:1:pos:R:3:forces:R:3 energy=-70.77323913574219 free_energy=-70.77323913574219 stress="-2.6141955459024757e-05 -6.895799486983378e-08 -6.2638001452342e-08 -6.895799486983378e-08 -2.6214356694254093e-05 -8.598208012244868e-08 -6.2638001452342e-08 -8.598208012244868e-08 -2.5805982659221627e-05" pbc="T T T"
Ta       1.35877954       0.96080247       2.35347591      -0.00000359       0.00000094      -0.00000270
Ta       4.07633968       2.88240735       7.06042834      -0.00000010      -0.00000040       0.00000935
Be      -0.00000002      -0.00000017       0.00000003      -0.00000156       0.00000280      -0.00000018
O        1.38428786       0.97883957       4.70695160      -0.00003529      -0.00002378       0.00000327
O        4.05083131       2.86437043       4.70695151       0.00004387       0.00002784      -0.00000324
O        3.38419547       0.97883941       3.55230447       0.00002372      -0.00003326      -0.00003064
O        2.05092402       2.86437062       5.86159867      -0.00002337       0.00002730       0.00002992
O        2.05092440       2.86437020       3.55230414      -0.00002038       0.00002587      -0.00003815
O        3.38419574       0.97883955       5.86159901       0.00001669      -0.00002801       0.00003135
