9
Lattice="5.3616429297732315 -5.6263434311154024e-08 3.0955459681092266 1.7872142599301204 5.055005435200573 3.095545962824086 -2.327570146939044e-08 -2.2931364382399743e-08 6.191091976533147" Properties=species:S:1:pos:R:3:forces:R:3 energy=-45.77473449707031 free_energy=-45.77473449707031 stress="-0.00040717137744650245 -2.411744581820585e-08 3.7210835301948464e-08 -2.411744581820585e-08 -0.000407197221647948 -4.425310606848143e-08 3.7210835301948464e-08 -4.425310606848143e-08 -0.0004070890718139708" pbc="T T T"
Ta       1.78721462       1.26375184       3.09554602       0.00000220       0.00000391      -0.00000070
Ta       5.36164297       3.79125386       9.28663895      -0.00000014      -0.00000096       0.00000711
Be      -0.00000010      -0.00000005      -0.00000011      -0.00000122       0.00000014      -0.00001525
Se       1.68713861       1.19298705       6.19109175       0.00310034       0.00219420      -0.00000176
Se       5.46171838       3.86201820       6.19109194      -0.00310040      -0.00218874      -0.00000050
Se       4.51807364       1.19298731       4.55665086      -0.00155240       0.00219229       0.00268382
Se       2.63078320       3.86201806       7.82553280       0.00154620      -0.00219157      -0.00268137
Se       2.63078370       3.86201810       4.55665078       0.00155225      -0.00219223       0.00268573
Se       4.51807358       1.19298707       7.82553266      -0.00154698       0.00218335      -0.00267720
