9
Lattice="5.897666215116864 -2.9675034687517175e-08 3.4050192491527653 1.9658887593025112 5.560373049890393 3.405019164441342 4.264259882126262e-08 -7.359697758214874e-08 6.81003842444634" Properties=species:S:1:pos:R:3:forces:R:3 energy=-40.656436920166016 free_energy=-40.656436920166016 stress="1.359564430458704e-05 5.53506884770627e-09 3.0009076112946786e-08 5.53506884770627e-09 1.3662761375599075e-05 -3.0639945691746107e-08 3.0009076112946786e-08 -3.0639945691746107e-08 1.3569696420745458e-05" pbc="T T T"
Ta       1.96588885       1.39009292       3.40501921       0.00000057      -0.00000416       0.00000076
Ta       5.89766659       4.17027859      10.21505607       0.00000012      -0.00001107      -0.00000997
B        0.00000004       0.00000006       0.00000051       0.00000068      -0.00000058       0.00000120
Te       1.93658059       1.36936964       6.81003833       0.00027403       0.00020006      -0.00000022
Te       5.92697404       4.19100380       6.81003938      -0.00027382      -0.00018974       0.00000229
Te       4.92937542       1.36936984       5.08214738      -0.00013429       0.00019123       0.00023460
Te       2.93417952       4.19100351       8.53792937       0.00013471      -0.00018983      -0.00023642
Te       2.93417923       4.19100372       5.08214735       0.00013460      -0.00019126       0.00024247
Te       4.92937576       1.36936974       8.53792976      -0.00013651       0.00019535      -0.00023463
