9
Lattice="4.904103538427925 9.652765623301928e-08 2.8313855173861744 1.6347012198451156 4.623633190730698 2.831385605093822 -8.691898111850434e-08 4.5958470252981145e-08 5.662771185320492" Properties=species:S:1:pos:R:3:forces:R:3 energy=-50.321319580078125 free_energy=-50.321319580078125 stress="6.79108634358272e-05 5.8863776075668284e-08 5.539770597806637e-08 5.8863776075668284e-08 6.782895070500672e-05 2.0070340056577152e-08 5.539770597806637e-08 2.0070340056577152e-08 6.777801172574982e-05" pbc="T T T"
Ta       1.63470148       1.15590771       2.83138621       0.00000359      -0.00000456       0.00000294
Ta       4.90410309       3.46772522       8.49415604      -0.00000216       0.00000233      -0.00000288
Be       0.00000013       0.00000005      -0.00000035      -0.00000767      -0.00000660       0.00001268
S        1.62994149       1.15254226       5.66277124       0.00117996       0.00083151       0.00000097
S        4.90886279       3.47109077       5.66277140      -0.00116465      -0.00082464       0.00000294
S        4.08913250       1.15254249       4.24295562      -0.00058576       0.00082504       0.00101650
S        2.44967134       3.47109111       7.08258641       0.00058501      -0.00083563      -0.00102228
S        2.44967234       3.47109081       4.24295606       0.00058142      -0.00082519       0.00101359
S        4.08913338       1.15254288       7.08258657      -0.00059009       0.00083779      -0.00102443
