9
Lattice="5.194718805185725 -4.974908686737131e-08 2.999172080142768 1.7315728585967776 4.897627862346353 2.9991721313443405 -8.75773826142742e-08 7.823016778908344e-10 5.998344311974032" Properties=species:S:1:pos:R:3:forces:R:3 energy=-45.88627624511719 free_energy=-45.88627624511719 stress="-1.5477207853109576e-05 1.0922487092557276e-07 3.6919004742230754e-07 1.0922487092557276e-07 -1.5519211956416257e-05 2.5853947249743214e-07 3.6919004742230754e-07 2.5853947249743214e-07 -1.5235686987580266e-05" pbc="T T T"
Ta       1.73157349       1.22440640       2.99917417       0.00000663      -0.00000871       0.00002937
Ta       5.19471902       3.67322056       8.99751311       0.00000346      -0.00000297      -0.00004651
Cu       0.00000003       0.00000036      -0.00000013       0.00000107      -0.00000008      -0.00000142
S        1.86276580       1.31717490       5.99834371      -0.00367343      -0.00259566      -0.00000589
S        5.06352498       3.58045376       5.99834514       0.00366569       0.00260216       0.00000939
S        4.26333515       1.31717469       4.61237464       0.00183105      -0.00259346      -0.00318027
S        2.66295677       3.58045272       7.38431416      -0.00183082       0.00259811       0.00319159
S        2.66295493       3.58045330       4.61237575      -0.00184584       0.00259644      -0.00317490
S        4.26333604       1.31717469       7.38431349       0.00184149      -0.00259602       0.00317848
