9
Lattice="4.941396782765664 9.874013479425702e-07 2.852916123196152 1.6471329984857932 4.658793975418264 2.8529164581176505 -2.8997238237340183e-07 2.05151929775901e-07 5.705832748639225" Properties=species:S:1:pos:R:3:forces:R:3 energy=-47.91349792480469 free_energy=-47.91349792480469 stress="-0.00015915484982542694 -3.4204052212771785e-07 -6.659418971821651e-08 -3.4204052212771785e-07 -0.00015846689348109066 -3.838236750652868e-08 -6.659418971821651e-08 -3.838236750652868e-08 -0.00015851168427616358" pbc="T T T"
Ta       1.64713055       1.16469367       2.85291394      -0.00001375      -0.00003245      -0.00001717
Ta       4.94139710       3.49409629       8.55874893       0.00000469       0.00001429       0.00000692
C        0.00000737       0.00000544       0.00000089       0.00005603       0.00003868       0.00000805
S        1.76357959       1.24703849       5.70583244       0.00340509       0.00239998      -0.00000882
S        4.82494477       3.41175579       5.70583538      -0.00343108      -0.00240439       0.00001230
S        4.05961029       1.24704080       4.38022139      -0.00169069       0.00240862       0.00295210
S        2.52891978       3.41175528       7.03144355       0.00168037      -0.00241035      -0.00295484
S        2.52892240       3.41175514       4.38021968       0.00169945      -0.00241601       0.00294316
S        4.05960597       1.24703991       7.03144521      -0.00170982       0.00240135      -0.00294173
