9
Lattice="4.061085716835412 -2.311299080752769e-08 2.344668939153484 1.3536952094318175 3.8288283285682314 2.344668952528703 -4.028221266682308e-08 -1.2102602021130145e-08 4.689337948077814" Properties=species:S:1:pos:R:3:forces:R:3 energy=-71.68779754638672 free_energy=-71.68779754638672 stress="-0.00022256618831306696 -1.426379547808665e-08 -2.8520760864125805e-08 -1.426379547808665e-08 -0.00022321920550893992 4.8417330589245466e-08 -2.8520760864125805e-08 4.8417330589245466e-08 -0.00022326252656057477" pbc="T T T"
Ta       1.35369491       0.95720769       2.34466949      -0.00000330       0.00000396       0.00000315
Ta       4.06108602       2.87162079       7.03400630       0.00000171      -0.00000455      -0.00000374
C       -0.00000020      -0.00000034       0.00000009      -0.00000348      -0.00000154       0.00000544
O        1.24167762       0.87799852       4.68933780      -0.00064699      -0.00045478       0.00000031
O        4.17310347       2.95082996       4.68933804       0.00065562       0.00045045      -0.00000547
O        3.44024695       0.87799849       3.41999326       0.00032697      -0.00044432      -0.00055605
O        1.97453396       2.95082971       5.95868271      -0.00033133       0.00045951       0.00056224
O        1.97453391       2.95082991       3.41999315      -0.00032338       0.00045069      -0.00056018
O        3.44024685       0.87799847       5.95868250       0.00032427      -0.00045912       0.00055514
