9
Lattice="5.57104975027082 -1.1189290471891045e-08 3.216447061213232 1.857016572467916 5.252436128116347 3.2164470619170085 -4.303190098973417e-08 -2.9566208085224298e-08 6.432894196959918" Properties=species:S:1:pos:R:3:forces:R:3 energy=-41.68951416015625 free_energy=-41.68951416015625 stress="-0.00010772491077659652 3.693631178691703e-09 9.711095039222073e-09 3.693631178691703e-09 -0.00010771793313324451 1.4467820719232805e-08 9.711095039222073e-09 1.4467820719232805e-08 -0.00010775926057249308" pbc="T T T"
Ta       1.85701604       1.31310823       3.21644794      -0.00000516      -0.00000703       0.00001058
Ta       5.57104999       3.93932747       9.64933963       0.00000440       0.00000389      -0.00001716
Cu       0.00000002       0.00000013      -0.00000011      -0.00000058      -0.00000265       0.00000027
Se       1.95769141       1.38429723       6.43289423      -0.00448322      -0.00316703       0.00000047
Se       5.47037479       3.86813881       6.43289463       0.00448716       0.00317025       0.00000563
Se       4.59220363       1.38429678       4.91185777       0.00223815      -0.00317448      -0.00387913
Se       2.83586280       3.86813964       7.95393054      -0.00224039       0.00317591       0.00388098
Se       2.83586237       3.86813901       4.91185784      -0.00224382       0.00317031      -0.00388229
Se       4.59220408       1.38429703       7.95393078       0.00224340      -0.00316900       0.00388122
