9
Lattice="4.1833382487269155 -1.0399227351768254e-07 2.415251424755241 1.3944460181684357 3.944089158761462 2.4152513670704634 -3.2683864775431095e-08 -9.376012432232911e-08 4.830502906120603" Properties=species:S:1:pos:R:3:forces:R:3 energy=-68.20852661132812 free_energy=-68.20852661132812 stress="0.0007832202827557921 -2.3208391652929095e-08 -3.547086180333281e-08 -2.3208391652929095e-08 0.0007832691189832985 9.345144214023549e-09 -3.547086180333281e-08 9.345144214023549e-09 0.0007832872215658426" pbc="T T T"
Ta       1.39444616       0.98602260       2.41525154       0.00000025       0.00000082       0.00000136
Ta       4.18333860       2.95806655       7.24575425       0.00000249      -0.00000002       0.00000016
Ga      -0.00000010      -0.00000012       0.00000012       0.00000502       0.00000215       0.00000105
N        1.53036212       1.08212920       4.83050274       0.00264990       0.00187224      -0.00000126
N        4.04742229       2.86195974       4.83050283      -0.00265038      -0.00187671       0.00000149
N        3.41815718       1.08212940       3.74058362      -0.00132436       0.00187367       0.00229388
N        2.15962661       2.86195959       5.92042182       0.00132209      -0.00187510      -0.00229430
N        2.15962679       2.86195974       3.74058390       0.00132242      -0.00187194       0.00229263
N        3.41815713       1.08212907       5.92042192      -0.00132781       0.00187534      -0.00229567
