9
Lattice="4.210903560231418 1.0015368507880491e-07 2.4311662182261182 1.4036345814782842 3.9700779812458804 2.43116627542649 -1.0658226780018165e-08 6.251936236438919e-08 4.862332454912808" Properties=species:S:1:pos:R:3:forces:R:3 energy=-65.74112701416016 free_energy=-65.74112701416016 stress="-0.0003832900256384164 1.4480053600607334e-08 1.370901259178936e-07 1.4480053600607334e-08 -0.000383224047254771 -4.004150255809691e-08 1.370901259178936e-07 -4.004150255809691e-08 -0.00038316615973599255" pbc="T T T"
Ta       1.40363448       0.99251934       2.43116656       0.00000158      -0.00000368       0.00000055
Ta       4.21090357       2.97755852       7.29349835      -0.00000289      -0.00000160      -0.00000316
Ga       0.00000023       0.00000012      -0.00000012      -0.00001135      -0.00000823       0.00000653
O        1.47629132       1.04389569       4.86233259      -0.00122088      -0.00086176      -0.00000001
O        4.13824640       2.92618234       4.86233276       0.00123936       0.00087860      -0.00000083
O        3.47275783       1.04389600       3.70967208       0.00061360      -0.00087309      -0.00106460
O        2.14178039       2.92618245       6.01499280      -0.00061688       0.00087014       0.00106180
O        2.14178052       2.92618224       3.70967209      -0.00061744       0.00087279      -0.00106800
O        3.47275774       1.04389606       6.01499275       0.00061429      -0.00087315       0.00106674
