9
Lattice="5.636055291297792 -4.075601537534209e-08 3.253978018210559 1.8786850618549644 5.313723841656788 3.253978012701185 -1.6343687052742528e-08 -1.8304316127234236e-08 6.507956064729219" Properties=species:S:1:pos:R:3:forces:R:3 energy=-41.06636428833008 free_energy=-41.06636428833008 stress="6.222617230378091e-05 -1.0528494520656295e-08 -1.5401125930125659e-09 -1.0528494520656295e-08 6.221622606972232e-05 1.0321570265148239e-08 -1.5401125930125659e-09 1.0321570265148239e-08 6.222812953637913e-05" pbc="T T T"
Ta       1.87868572       1.32843159       3.25397720       0.00000763       0.00000853      -0.00000795
Ta       5.63605531       3.98529236       9.76193460       0.00000146      -0.00000426       0.00000389
Ga       0.00000008      -0.00000016       0.00000025      -0.00000513       0.00000279      -0.00000806
Se       1.97345602       1.39544407       6.50795621      -0.00079316      -0.00056005      -0.00000049
Se       5.54128429       3.91827976       6.50795576       0.00079426       0.00056499      -0.00000379
Se       4.64932749       1.39544402       4.96304116       0.00039499      -0.00056246      -0.00068650
Se       2.86541280       3.91827928       8.05287098      -0.00040205       0.00056049       0.00068942
Se       2.86541290       3.91827953       4.96304103      -0.00039655       0.00055444      -0.00068423
Se       4.64932671       1.39544459       8.05287117       0.00039846      -0.00056425       0.00069797
