9
Lattice="5.388783084163195 1.0030895840443752e-08 3.1112152377929414 1.796261022693101 5.0805933630431745 3.111215263459308 -2.3421166563168746e-08 1.4873483251908656e-08 6.222430516152546" Properties=species:S:1:pos:R:3:forces:R:3 energy=-45.42671585083008 free_energy=-45.42671585083008 stress="0.0002306284586666152 -2.617224836853893e-08 3.981998730751002e-08 -2.617224836853893e-08 0.00023065331333782524 6.927196949391146e-08 3.981998730751002e-08 6.927196949391146e-08 0.00023062749824021012" pbc="T T T"
Ta       1.79625909       1.27014886       3.11121679      -0.00002672       0.00000439       0.00002470
Ta       5.38878289       3.81044593       9.33364376       0.00000255       0.00001060      -0.00002312
Ga      -0.00000043       0.00000012       0.00000050       0.00000349      -0.00000562      -0.00000354
S        1.89071207       1.33693473       6.22243077      -0.00302339      -0.00214532      -0.00000105
S        5.29433274       3.74365775       6.22243166       0.00303304       0.00213599       0.00001203
S        4.44342730       1.33693573       4.74861948       0.00151330      -0.00214058      -0.00262058
S        2.74161759       3.74365842       7.69624110      -0.00150970       0.00214982       0.00262523
S        2.74161665       3.74365778       4.74861952      -0.00151882       0.00213662      -0.00262320
S        4.44342834       1.33693433       7.69624039       0.00152624      -0.00214607       0.00260907
