9
Lattice="6.100501276950153 -2.705729673973733e-08 3.5221260358861493 2.033500386446757 5.751607711654889 3.5221260596038415 -6.1305577880776036e-09 2.4713149025842428e-08 7.044252082390723" Properties=species:S:1:pos:R:3:forces:R:3 energy=-37.94921875 free_energy=-37.94921875 stress="-5.8031513617606834e-05 3.276751314729154e-08 -4.240546047640237e-08 3.276751314729154e-08 -5.7991259382106364e-05 -2.4646412910556137e-08 -4.240546047640237e-08 -2.4646412910556137e-08 -5.80056403123308e-05" pbc="T T T"
Ta       2.03350047       1.43790097       3.52212520      -0.00000080      -0.00000959      -0.00000679
Ta       6.10050101       4.31370614      10.56637956      -0.00000372      -0.00000081       0.00001499
Ga      -0.00000014       0.00000008      -0.00000024       0.00000038      -0.00000095       0.00000621
Te       2.14035865       1.51346194       7.04425213      -0.00118928      -0.00083963       0.00000107
Te       5.99364300       4.23814587       7.04425157       0.00119047       0.00084351      -0.00000410
Te       5.03032228       1.51346220       5.37573096       0.00059798      -0.00083985      -0.00103021
Te       3.10367964       4.23814562       8.71277312      -0.00059379       0.00083999       0.00102465
Te       3.10368002       4.23814606       5.37573104      -0.00059289       0.00084707      -0.00103211
Te       5.03032173       1.51346193       8.71277335       0.00059158      -0.00083987       0.00102638
