9
Lattice="5.47556050044895 3.154122320927416e-08 3.161315795277382 1.8251868641109414 5.162407529805315 3.161315793734794 -1.2059083136604618e-07 -8.715990398951898e-08 6.322631799424225" Properties=species:S:1:pos:R:3:forces:R:3 energy=-50.292327880859375 free_energy=-50.292327880859375 stress="1.4117312275629956e-05 7.875239305121795e-08 5.416748649622605e-08 7.875239305121795e-08 1.4476569049293175e-05 3.443496154886816e-08 5.416748649622605e-08 3.443496154886816e-08 1.4282238225860056e-05" pbc="T T T"
Ta       1.82519640       1.29059311       3.16131301       0.00014862      -0.00015091       0.00000192
Ta       5.47555268       3.87181982       9.48392158      -0.00012693       0.00022536      -0.00037603
Ir      -0.00000014       0.00000004       0.00000082      -0.00000231       0.00000196      -0.00000982
S        1.90713722       1.34854182       6.32263407       0.00019634       0.00000972       0.00002077
S        5.39361117       3.81386332       6.32264206      -0.00017881      -0.00003177       0.00016177
S        4.52198883       1.34854078       4.81294540      -0.00015253      -0.00001162       0.00016415
S        2.77876039       3.81386034       7.83232610       0.00018311      -0.00008422      -0.00005376
S        2.77875083       3.81386268       4.81294648       0.00003797      -0.00006402       0.00016898
S        4.52199156       1.34854788       7.83232376      -0.00010538       0.00010556      -0.00007755
