9
Lattice="4.301232914069894 4.6865779636839806e-08 2.4833179761537325 1.4337443434566448 4.055241496081006 2.4833179855393785 4.7514214233597386e-08 4.509264221276564e-08 4.966635870010416" Properties=species:S:1:pos:R:3:forces:R:3 energy=-66.82772827148438 free_energy=-66.82772827148438 stress="-1.070688358595362e-05 1.380524228267177e-08 1.0488950152875987e-07 1.380524228267177e-08 -1.0875515727093443e-05 -4.4475815030864396e-08 1.0488950152875987e-07 -4.4475815030864396e-08 -1.0645261681929696e-05" pbc="T T T"
Ta       1.43374452       1.01381062       2.48331802       0.00000312       0.00000543       0.00000413
Ta       4.30123281       3.04143091       7.44995376      -0.00000172      -0.00000577      -0.00000014
Ir       0.00000004      -0.00000001       0.00000016       0.00000571      -0.00000009      -0.00002945
O        1.54561489       1.09291503       4.96663589       0.00424421       0.00300550      -0.00000081
O        4.18936268       2.96232659       4.96663589      -0.00424898      -0.00300950      -0.00000004
O        3.52842543       1.09291496       3.82185971      -0.00213286       0.00300974       0.00368595
O        2.20655197       2.96232651       6.11141221       0.00212485      -0.00299901      -0.00367129
O        2.20655169       2.96232656       3.82185994       0.00212482      -0.00300568       0.00368232
O        3.52842528       1.09291520       6.11141189      -0.00211865       0.00299966      -0.00367111
