9
Lattice="5.766848340847299 4.8625432236792394e-08 3.3294913832237225 1.922282846686065 5.437036565433942 3.329491347614238 4.2662197376663126e-08 -1.3445791277152262e-08 6.658982692554344" Properties=species:S:1:pos:R:3:forces:R:3 energy=-46.49300003051758 free_energy=-46.49300003051758 stress="0.00020012758614029735 3.407847160019628e-08 7.3180106419101776e-09 3.407847160019628e-08 0.0002002581604756415 3.148388216800413e-08 7.3180106419101776e-09 3.148388216800413e-08 0.00020019561634398997" pbc="T T T"
Ta       1.92228341       1.35925883       3.32949231       0.00000986      -0.00000439       0.00001230
Ta       5.76684808       4.07777808       9.98847345      -0.00000757       0.00000635      -0.00000350
Ir      -0.00000008      -0.00000006      -0.00000015       0.00000018       0.00000343       0.00000224
Se       1.97651897       1.39760932       6.65898238       0.00115371       0.00081345      -0.00000240
Se       5.71261240       4.03942671       6.65898274      -0.00115407      -0.00081554      -0.00000104
Se       4.77858851       1.39760984       5.04120688      -0.00057867       0.00081098       0.00099608
Se       2.91054250       4.03942737       8.27675877       0.00057951      -0.00081423      -0.00100479
Se       2.91054219       4.03942642       5.04120659       0.00057584      -0.00081739       0.00099871
Se       4.77858895       1.39760991       8.27675873      -0.00057879       0.00081682      -0.00099769
