9
Lattice="5.172519294352535 -3.613869086946874e-08 2.9863554762255236 1.7241730570963054 4.87669805778221 2.9863554882620806 -2.6570187749727204e-08 -4.046256896125144e-09 5.9727109984719755" Properties=species:S:1:pos:R:3:forces:R:3 energy=-45.941341400146484 free_energy=-45.941341400146484 stress="3.621476025728043e-06 -2.2973474511633896e-10 -1.9810924456464818e-08 -2.2973474511633896e-10 3.6081978578295093e-06 -2.212550320734863e-08 -1.9810924456464818e-08 -2.212550320734863e-08 3.6756514418812003e-06" pbc="T T T"
Ta       1.72417338       1.21917447       2.98635518       0.00000330       0.00000066      -0.00000597
Ta       5.17251902       3.65752369       8.95906723      -0.00000172       0.00000184       0.00000926
Mg      -0.00000014       0.00000022      -0.00000099      -0.00000017      -0.00000205       0.00002067
S        1.85193632       1.30951639       5.97271109      -0.00709078      -0.00501516       0.00000214
S        5.04475586       3.56718141       5.97271079       0.00709543       0.00501832      -0.00000141
S        4.24655108       1.30951655       4.59017978       0.00354926      -0.00502461      -0.00614855
S        2.65014097       3.56718138       7.35524264      -0.00354537       0.00500655       0.00613731
S        2.65014138       3.56718124       4.59017949      -0.00355072       0.00502089      -0.00615180
S        4.24655129       1.30951674       7.35524281       0.00354032      -0.00500634       0.00613809
