9
Lattice="5.329541924972664 1.9556734690683846e-08 3.077012483800584 1.7765139813437931 5.024740370700339 3.077012504733039 5.124096198032494e-09 2.9260204806544366e-08 6.15402495872597" Properties=species:S:1:pos:R:3:forces:R:3 energy=-53.193458557128906 free_energy=-53.193458557128906 stress="-0.0003991090343333781 4.7264498981292036e-09 -1.0567188013510531e-08 4.7264498981292036e-09 -0.00039907341124489903 -1.6581049422370597e-08 -1.0567188013510531e-08 -1.6581049422370597e-08 -0.00039907751488499343" pbc="T T T"
Ta       1.77651378       1.25618491       3.07701255      -0.00000208      -0.00000434      -0.00000038
Ta       5.32954178       3.76855533       9.23103731      -0.00000490       0.00000328      -0.00000613
Mo       0.00000005       0.00000011       0.00000012      -0.00000351       0.00000032       0.00000330
S        1.91706126       1.35556705       6.15402495      -0.00108135      -0.00076425      -0.00000050
S        5.18899456       3.66917333       6.15402497       0.00108504       0.00076723       0.00000300
S        4.37101139       1.35556700       4.73723632       0.00054112      -0.00076663      -0.00093597
S        2.73504481       3.66917337       7.57081369      -0.00053582       0.00076383       0.00093460
S        2.73504465       3.66917338       4.73723628      -0.00053886       0.00076503      -0.00093418
S        4.37101134       1.35556719       7.57081365       0.00054044      -0.00076455       0.00093633
