9
Lattice="4.193262258149707 -3.2100009483363364e-08 2.4209811309436335 1.397754067486543 3.9534454632236757 2.420981110677228 -5.536057189323543e-09 -2.87357753382176e-08 4.8419622714760004" Properties=species:S:1:pos:R:3:forces:R:3 energy=-64.50228118896484 free_energy=-64.50228118896484 stress="-0.00011767607793444768 2.6378728534837137e-08 6.00346723445e-08 2.6378728534837137e-08 -0.00011807058763224632 -7.019906433924916e-08 6.00346723445e-08 -7.019906433924916e-08 -0.00011766886746045202" pbc="T T T"
Ta       1.39775334       0.98836106       2.42098065      -0.00001205       0.00000040      -0.00000560
Ta       4.19326216       2.96508367       7.26294269       0.00000106      -0.00000522      -0.00000585
Mg      -0.00000012      -0.00000008      -0.00000014       0.00000094      -0.00000447       0.00000733
O        1.47161632       1.04059017       4.84196242      -0.00185212      -0.00131031       0.00000153
O        4.11939996       2.91285550       4.84196248       0.00185564       0.00130974       0.00000354
O        3.45745431       1.04059010       3.69543844       0.00092856      -0.00131030      -0.00160304
O        2.13356252       2.91285516       5.98848664      -0.00091831       0.00130763       0.00160792
O        2.13356225       2.91285594       3.69543879      -0.00092854       0.00132065      -0.00160183
O        3.45745449       1.04058989       5.98848619       0.00092532      -0.00130781       0.00159647
