9
Lattice="6.016725414736047 2.8625949738768413e-08 3.4737581197842053 2.0055751997850844 5.672623035122196 3.473758059940226 3.8882552968532704e-08 -4.579947040263958e-08 6.9475161722217935" Properties=species:S:1:pos:R:3:forces:R:3 energy=-37.30659103393555 free_energy=-37.30659103393555 stress="-2.7649484763969667e-06 -2.275554322750395e-08 -3.5162099898400356e-09 -2.275554322750395e-08 -2.7536502784641925e-06 -2.4171256995941803e-08 -3.5162099898400356e-09 -2.4171256995941803e-08 -2.694906925171381e-06" pbc="T T T"
Ta       2.00557540       1.41815537       3.47375834       0.00000150      -0.00000419       0.00000331
Ta       6.01672658       4.25446811      10.42127459       0.00000854       0.00000545      -0.00000078
Mg       0.00000018       0.00000001      -0.00000012      -0.00000211      -0.00000186       0.00000031
Te       2.12826500       1.50491039       6.94751618      -0.00001194      -0.00000892      -0.00000038
Te       5.89403512       4.16771257       6.94751634       0.00001132       0.00001240       0.00000120
Te       4.95259253       1.50491047       5.31688971       0.00000478      -0.00001176      -0.00001255
Te       3.06970720       4.16771241       8.57814240      -0.00001156       0.00001028       0.00001025
Te       3.06970766       4.16771235       5.31688977      -0.00000925       0.00001225      -0.00001337
Te       4.95259300       1.50491039       8.57814223       0.00000875      -0.00001380       0.00001203
