9
Lattice="5.712949974031956 8.01802571654379e-08 3.298373206224068 1.9043166902818838 5.386220965416287 3.298373281262464 2.1876839807911288e-09 9.34498235455067e-08 6.596746408658939" Properties=species:S:1:pos:R:3:forces:R:3 energy=-48.58187484741211 free_energy=-48.58187484741211 stress="0.00030083119054324925 -3.499401302065053e-08 -1.4755305421942921e-08 -3.499401302065053e-08 0.00030086180777288973 5.980907502589616e-08 -1.4755305421942921e-08 5.980907502589616e-08 0.0003008491767104715" pbc="T T T"
Ta       1.90431601       1.34655630       3.29837295      -0.00000979       0.00001058      -0.00000426
Ta       5.71295072       4.03966604       9.89512221       0.00000907       0.00000338       0.00003215
Mo      -0.00000020      -0.00000017      -0.00000027       0.00000125      -0.00000240      -0.00000216
Se       1.99581660       1.41125569       6.59674627      -0.00501874      -0.00354554      -0.00000072
Se       5.62144997       3.97496515       6.59674583       0.00502008       0.00354345      -0.00000974
Se       4.71504220       1.41125554       5.02680156       0.00251642      -0.00354980      -0.00434592
Se       2.90222477       3.97496535       8.16669064      -0.00252001       0.00354961       0.00434181
Se       2.90222555       3.97496526       5.02680085      -0.00250493       0.00354381      -0.00435212
Se       4.71504104       1.41125550       8.16669153       0.00250658      -0.00355312       0.00434056
