9
Lattice="4.250780119026199 -6.845638950338943e-09 2.4541890734782403 1.4169267079104055 4.007673957135818 2.4541890595829012 8.975450603688971e-09 -1.0671627990266453e-08 4.908378131410542" Properties=species:S:1:pos:R:3:forces:R:3 energy=-63.55619430541992 free_energy=-63.55619430541992 stress="0.0003501029859762639 1.2362902168661094e-07 -6.555578302425147e-09 1.2362902168661094e-07 0.0003499934682622552 8.837694132068918e-09 -6.555578302425147e-09 8.837694132068918e-09 0.00034976916504092515" pbc="T T T"
Ta       1.41692714       1.00191905       2.45418862       0.00000982       0.00000580      -0.00000879
Ta       4.25078144       3.00575590       7.36256758       0.00002691       0.00001185      -0.00000057
Ni       0.00000001       0.00000002      -0.00000024      -0.00000882       0.00000400       0.00002046
O        1.43065354       1.01162539       4.90837799       0.00077191       0.00055409       0.00000067
O        4.23705315       2.99604841       4.90837758      -0.00077069      -0.00055280      -0.00000768
O        3.53545271       1.01162438       3.69317193      -0.00039646       0.00053840       0.00067496
O        2.13225337       2.99604858       6.12358487       0.00038876      -0.00056089      -0.00068139
O        2.13225326       2.99604907       3.69317197       0.00038189      -0.00055162       0.00067961
O        3.53545266       1.01162484       6.12358478      -0.00040326       0.00055171      -0.00067590
