9
Lattice="5.557370079769476 -1.6486878821197676e-08 3.2085491476828665 1.8524566890749115 5.239538686307099 3.208549128002584 4.019419386108639e-08 4.318255267921211e-09 6.417098225747323" Properties=species:S:1:pos:R:3:forces:R:3 energy=-44.33559036254883 free_energy=-44.33559036254883 stress="-7.603138510603458e-05 -6.596682311510449e-09 4.0744179585772144e-08 -6.596682311510449e-09 -7.599154923809692e-05 -3.620529653858284e-08 4.0744179585772144e-08 -3.620529653858284e-08 -7.602899859193712e-05" pbc="T T T"
Ta       1.85245601       1.30988323       3.20854975      -0.00000862      -0.00001802       0.00000538
Ta       5.55737201       3.92965610       9.62564762       0.00002257       0.00002366       0.00000264
Ni       0.00000005      -0.00000010       0.00000002      -0.00000409       0.00000585      -0.00000117
Se       1.90745823       1.34877634       6.41709741      -0.00148559      -0.00105211      -0.00000858
Se       5.50236852       3.89076196       6.41709871       0.00148529       0.00105107       0.00000257
Se       4.60364130       1.34877614       4.86045696       0.00074351      -0.00105518      -0.00128055
Se       2.80618512       3.89076257       7.97373920      -0.00074881       0.00105438       0.00127420
Se       2.80618582       3.89076224       4.86045668      -0.00074324       0.00105101      -0.00128242
Se       4.60364022       1.34877618       7.97373960       0.00073844      -0.00106096       0.00128803
