9
Lattice="5.91699727867927 -2.3468013074920477e-08 3.4161799634421053 1.972332411347954 5.57859852256956 3.416179950889262 3.7127905344715006e-08 1.0879361731991482e-08 6.832359862576757" Properties=species:S:1:pos:R:3:forces:R:3 energy=-42.52421569824219 free_energy=-42.52421569824219 stress="-0.0002767416590359062 -3.085603239583179e-08 9.980236370665807e-08 -3.085603239583179e-08 -0.0002768504782579839 5.903904209958455e-08 9.980236370665807e-08 5.903904209958455e-08 -0.0002769369166344404" pbc="T T T"
Ta       1.97233183       1.39464928       3.41618030       0.00000050      -0.00000567       0.00000125
Ta       5.91699774       4.18394941      10.24853919       0.00000001       0.00000189      -0.00000475
Ni       0.00000015      -0.00000001       0.00000031      -0.00000104      -0.00000177      -0.00000198
Te       2.02156082       1.42945934       6.83236004       0.00045159       0.00032073      -0.00000099
Te       5.86776899       4.14913882       6.83236009      -0.00045085      -0.00031701      -0.00000229
Te       4.90621676       1.42945910       5.16690311      -0.00022492       0.00032124       0.00039838
Te       2.98311295       4.14913954       8.49781653       0.00022535      -0.00031859      -0.00039019
Te       2.98311280       4.14913911       5.16690283       0.00022511      -0.00031908       0.00039238
Te       4.90621685       1.42945943       8.49781670      -0.00022593       0.00031818      -0.00039171
