9
Lattice="5.1956700882558255 8.453589226095074e-08 2.9997216507439357 1.731890136096031 4.898525016853488 2.9997216040197974 5.251590098994814e-08 -2.0090827965751466e-08 5.999443210527644" Properties=species:S:1:pos:R:3:forces:R:3 energy=-48.57024002075195 free_energy=-48.57024002075195 stress="-5.1937135140178725e-05 6.827843179735282e-08 1.992121667626634e-08 6.827843179735282e-08 -5.18499145982787e-05 1.6916068545924645e-08 1.992121667626634e-08 1.6916068545924645e-08 -5.204539775149897e-05" pbc="T T T"
Ta       1.73189165       1.22462841       2.99972349       0.00002495      -0.00005194       0.00004048
Ta       5.19567022       3.67389976       8.99915773      -0.00000284       0.00008920      -0.00010611
Ni      -0.00000039      -0.00000026      -0.00000111       0.00000543      -0.00000255       0.00002241
S        1.79859475       1.27179703       5.99944245       0.00003099      -0.00000280      -0.00001163
S        5.12896586       3.62672802       5.99944599      -0.00004202      -0.00000733       0.00003529
S        4.29637220       1.27179518       4.55735101      -0.00002888      -0.00001454       0.00003773
S        2.63118709       3.62672651       7.44153839       0.00003129      -0.00002652      -0.00002044
S        2.63118632       3.62672803       4.55735067       0.00000146      -0.00000656       0.00003278
S        4.29637345       1.27179756       7.44153730      -0.00002003       0.00002295      -0.00003010
