9
Lattice="4.136164352843093 -1.7033310848182282e-08 2.3880155866198653 1.3787214353978337 3.8996131163011256 2.3880155857377527 5.076906792510255e-09 2.5095412637243818e-09 4.776031164446269" Properties=species:S:1:pos:R:3:forces:R:3 energy=-64.56204223632812 free_energy=-64.56204223632812 stress="4.964489926351234e-05 9.508168830052455e-08 -1.3758965522470135e-08 9.508168830052455e-08 4.963154424331151e-05 5.99523204414254e-08 -1.3758965522470135e-08 5.99523204414254e-08 4.939194332109764e-05" pbc="T T T"
Ta       1.37872224       0.97490372       2.38801351       0.00001335       0.00001110      -0.00003556
Ta       4.13616475       2.92470952       7.16404900       0.00000932       0.00000017       0.00004280
N        0.00000329       0.00000437       0.00000137       0.00012538       0.00016223       0.00004490
O        1.32807147       0.93908855       4.77603105      -0.00081244      -0.00057672      -0.00000470
O        4.18680963       2.96052155       4.77603141       0.00064237       0.00045547      -0.00000090
O        3.47212771       0.93908954       3.53816028       0.00037442      -0.00053594      -0.00065546
O        2.04275860       2.96052229       6.01390047      -0.00035332       0.00049254       0.00060253
O        2.04275822       2.96052320       3.53816130      -0.00035927       0.00050938      -0.00062062
O        3.47212722       0.93908967       6.01390101       0.00036030      -0.00051917       0.00062729
