9
Lattice="4.1313335286622825 2.990176449131082e-08 2.3852265183754127 1.3771112049492191 3.8950585403130367 2.385226517445636 -3.868766062408478e-09 -3.874371409237537e-09 4.770453043451725" Properties=species:S:1:pos:R:3:forces:R:3 energy=-73.51608276367188 free_energy=-73.51608276367188 stress="-0.00023621335276402533 8.595260680976935e-08 1.9856242872151597e-08 8.595260680976935e-08 -0.00023630812938790768 2.957163403038976e-08 1.9856242872151597e-08 2.957163403038976e-08 -0.0002361472579650581" pbc="T T T"
Ta       1.37711113       0.97376473       2.38522649      -0.00000068       0.00000069       0.00000177
Ta       4.13133357       2.92129387       7.15567938      -0.00000004       0.00000046      -0.00000334
P       -0.00000001      -0.00000017       0.00000011       0.00000021       0.00000431       0.00000262
O        1.36193298       0.96303207       4.77045301      -0.00126779      -0.00089830       0.00000095
O        4.14651172       2.93202665       4.77045311       0.00126889       0.00089666      -0.00000094
O        3.45036709       0.96303197       3.56469506       0.00063333      -0.00089566      -0.00109877
O        2.05807761       2.93202666       5.97621106      -0.00063160       0.00089276       0.00109595
O        2.05807762       2.93202653       3.56469507      -0.00063217       0.00089255      -0.00109561
O        3.45036721       0.96303202       5.97621100       0.00063010      -0.00089365       0.00109664
