9
Lattice="5.094623447205952 -3.58891076126922e-07 2.941382312950282 1.6982075301641821 4.803256890625273 2.941382221507293 -1.0351329405709325e-07 -1.8518929226876547e-07 5.882764805190839" Properties=species:S:1:pos:R:3:forces:R:3 energy=-48.62718200683594 free_energy=-48.62718200683594 stress="0.00015261874068528414 1.504003961372291e-07 2.0452758064948284e-07 1.504003961372291e-07 0.00015209763660095632 1.1735596672224347e-07 2.0452758064948284e-07 1.1735596672224347e-07 0.00015288406575564295" pbc="T T T"
Ta       1.69820159       1.20081645       2.94138667      -0.00007410       0.00003543       0.00006891
Ta       5.09462599       3.60243959       8.82413987       0.00004825      -0.00003864      -0.00009264
P       -0.00000037       0.00000026      -0.00000060       0.00000926      -0.00000256       0.00000773
S        1.77620532       1.25596567       5.88276435      -0.00060654      -0.00043923      -0.00000258
S        5.01662632       3.54728943       5.88276590       0.00061405       0.00042838       0.00001102
S        4.20652160       1.25596684       4.47962148       0.00031459      -0.00043327      -0.00053132
S        2.58631076       3.54728942       7.28590901      -0.00030208       0.00043017       0.00054097
S        2.58630779       3.54728927       4.47962311      -0.00033924       0.00043994      -0.00052905
S        4.20652439       1.25596819       7.28590776       0.00033581      -0.00042027       0.00052673
