9
Lattice="5.401225703843445 -6.685009797152208e-08 3.118398698420753 1.8004083720261275 5.092323314337832 3.118398928601023 -1.0550151119731075e-07 2.0731171096509674e-07 6.236797579574848" Properties=species:S:1:pos:R:3:forces:R:3 energy=-43.52165222167969 free_energy=-43.52165222167969 stress="7.933969027362764e-05 1.4418155558360013e-08 1.7190107826081658e-07 1.4418155558360013e-08 7.951525913085788e-05 1.0456110288714626e-07 1.7190107826081658e-07 1.0456110288714626e-07 7.973225001478568e-05" pbc="T T T"
Ta       1.80041641       1.27307887       3.11840857       0.00007792      -0.00001880       0.00009767
Ta       5.40121279       3.81924436       9.35518096      -0.00010489       0.00001804      -0.00013038
P        0.00000088       0.00000061       0.00000028      -0.00000514      -0.00000520       0.00000030
Se       1.87418951       1.32524395       6.23679348       0.00040084       0.00023827      -0.00002963
Se       5.32744587       3.76707894       6.23680507      -0.00039035      -0.00023511       0.00004655
Se       4.46413540       1.32525250       4.74149045      -0.00016540       0.00028813       0.00031304
Se       2.73750099       3.76707190       7.73210635       0.00018036      -0.00028622      -0.00030601
Se       2.73750107       3.76707346       4.74149182       0.00018227      -0.00026765       0.00032389
Se       4.46413370       1.32524961       7.73210399      -0.00017536       0.00026855      -0.00031543
