9
Lattice="4.275684621686875 -6.452658922328942e-10 2.468567736051134 1.4252282369076235 4.031154038885849 2.468567683592458 7.411347229998178e-08 -1.184235499421459e-08 4.937135343733959" Properties=species:S:1:pos:R:3:forces:R:3 energy=-68.81079864501953 free_energy=-68.81079864501953 stress="0.0002845620037987828 4.873000136740302e-08 2.4480044658048428e-08 4.873000136740302e-08 0.00028447798104025424 -1.3676158516773285e-07 2.4480044658048428e-08 -1.3676158516773285e-07 0.0002846164570655674" pbc="T T T"
Ta       1.42522856       1.00778877       2.46856745       0.00000808       0.00000310      -0.00000671
Ta       4.27568493       3.02336544       7.40570338      -0.00000047      -0.00000055       0.00000587
Ru       0.00000014      -0.00000018       0.00000020      -0.00000975       0.00001258      -0.00000109
O        1.52660175       1.07947067       4.93713527      -0.00291878      -0.00205791       0.00000091
O        4.17431100       2.95168341       4.93713516       0.00291604       0.00205991      -0.00000666
O        3.51238370       1.07947039       3.79064386       0.00145876      -0.00206244      -0.00252503
O        2.18852938       2.95168352       6.08362707      -0.00145239       0.00205529       0.00251889
O        2.18852907       2.95168362       3.79064376      -0.00145477       0.00205821      -0.00251931
O        3.51238330       1.07947050       6.08362709       0.00145319      -0.00206813       0.00253338
