9
Lattice="5.379862125659334 -4.591394348299679e-08 3.106064895559468 1.793287297673857 5.072182931456408 3.106064954895824 -5.9452390592251214e-08 3.063268070074887e-08 6.212129894093483" Properties=species:S:1:pos:R:3:forces:R:3 energy=-49.54301452636719 free_energy=-49.54301452636719 stress="6.811011553509161e-05 -3.4009475236018716e-09 -1.1933122934237872e-08 -3.4009475236018716e-09 6.797205423936248e-05 1.8080479335935706e-08 -1.1933122934237872e-08 1.8080479335935706e-08 6.810311606386676e-05" pbc="T T T"
Ta       1.79328941       1.26804903       3.10606624       0.00002854       0.00005045       0.00001265
Ta       5.37986330       3.80413279       9.31819940       0.00001000      -0.00006371       0.00005755
Rh       0.00000021       0.00000013      -0.00000016      -0.00000015       0.00000010       0.00000226
S        1.91839266       1.35651014       6.21212979      -0.00049114      -0.00032228      -0.00000301
S        5.25475553       3.71567421       6.21212776       0.00048244       0.00033808      -0.00002553
S        4.42066480       1.35651040       4.76744056       0.00023586      -0.00031710      -0.00043595
S        2.75248278       3.71567373       7.65681688      -0.00025630       0.00033015       0.00041115
S        2.75248333       3.71567220       4.76744100      -0.00024509       0.00031704      -0.00043511
S        4.42066529       1.35650916       7.65681720       0.00023592      -0.00033230       0.00041640
