9
Lattice="5.727994173420693 -2.887226021927866e-08 3.307059056254882 1.9093313953894016 5.400404664081385 3.3070590017468615 3.469007530329067e-08 -4.2228818331454986e-08 6.614118052424809" Properties=species:S:1:pos:R:3:forces:R:3 energy=-45.626277923583984 free_energy=-45.626277923583984 stress="1.7533968275529332e-05 -2.3865464271466408e-08 -1.514366410049206e-08 -2.3865464271466408e-08 1.755175799189601e-05 -2.6874578118452064e-09 -1.514366410049206e-08 -2.6874578118452064e-09 1.75595505425008e-05" pbc="T T T"
Ta       1.90933090       1.35010200       3.30705663      -0.00000686       0.00000911      -0.00002824
Ta       5.72799355       4.05030334       9.92117638      -0.00000526       0.00000084      -0.00001177
Rh      -0.00000020       0.00000010       0.00000006       0.00000302       0.00000159      -0.00000315
Se       1.97910893       1.39944105       6.61411872       0.00040358       0.00028166       0.00000691
Se       5.65821724       4.00096298       6.61411870      -0.00040054      -0.00029084       0.00000756
Se       4.73844035       1.39944106       5.02101805      -0.00019485       0.00028268       0.00035608
Se       2.89888598       4.00096238       8.20721942       0.00020131      -0.00029218      -0.00033706
Se       2.89888606       4.00096400       5.02101784       0.00020275      -0.00027829       0.00035369
Se       4.73843966       1.39944137       8.20721878      -0.00020301       0.00028530      -0.00034398
