9
Lattice="5.713697599702255 -6.747904071248885e-08 3.2988049077692594 1.9045657976272945 5.386925767451913 3.298804916984228 2.576527730228448e-08 2.950479414366216e-08 6.59760977091175" Properties=species:S:1:pos:R:3:forces:R:3 energy=-47.563140869140625 free_energy=-47.563140869140625 stress="0.00030987837817519903 -1.0838640207566641e-08 -3.95581061241046e-08 -1.0838640207566641e-08 0.00030984930344857275 -1.7445467292986905e-08 -3.95581061241046e-08 -1.7445467292986905e-08 0.00030985052580945194" pbc="T T T"
Ta       1.90456526       1.34673170       3.29880369      -0.00000701       0.00000277      -0.00001817
Ta       5.71369731       4.04019334       9.89641849       0.00000067      -0.00001029       0.00004512
Ru      -0.00000014       0.00000010       0.00000013       0.00000064      -0.00000197      -0.00000277
Se       1.97068311       1.39348425       6.59760990      -0.00234997      -0.00165451       0.00000094
Se       5.64758020       3.99344176       6.59760861       0.00235087       0.00165710      -0.00001696
Se       4.72835658       1.39348424       5.00546658       0.00117883      -0.00165144      -0.00203454
Se       2.88990739       3.99344179       8.18975231      -0.00118226       0.00166103       0.00203228
Se       2.88990864       3.99344244       5.00546639      -0.00116274       0.00166288      -0.00203544
Se       4.72835534       1.39348334       8.18975229       0.00117108      -0.00166562       0.00202966
