9
Lattice="4.282777366760067 9.352180410009898e-08 2.472662649294242 1.4275925196760388 4.037841381540652 2.472662691008703 1.754740062442793e-08 6.349745845434748e-08 4.9453252681954964" Properties=species:S:1:pos:R:3:forces:R:3 energy=-66.02462768554688 free_energy=-66.02462768554688 stress="0.0002515555825084448 6.934404694902696e-08 4.054651370211104e-08 6.934404694902696e-08 0.00025147845735773444 1.5509261430679544e-08 4.054651370211104e-08 1.5509261430679544e-08 0.00025149661814793944" pbc="T T T"
Ta       1.42759222       1.00946024       2.47266254      -0.00000521      -0.00000522      -0.00000452
Ta       4.28277729       3.02838123       7.41798780      -0.00000098       0.00000488      -0.00000208
Rh      -0.00000002       0.00000015      -0.00000003      -0.00000680      -0.00000737       0.00000221
O        1.53630003       1.08632824       4.94532528      -0.00282079      -0.00199494       0.00000037
O        4.17406988       2.95151323       4.94532548       0.00282907       0.00199878       0.00000143
O        3.51462755       1.08632818       3.80313742       0.00140870      -0.00199184      -0.00244099
O        2.19574272       2.95151326       6.08751333      -0.00140551       0.00199068       0.00244331
O        2.19574267       2.95151348       3.80313745      -0.00140882       0.00200027      -0.00243908
O        3.51462737       1.08632819       6.08751306       0.00141129      -0.00199494       0.00243771
