9
Lattice="4.2274732333131535 2.0962072696413793e-08 2.4407328605467464 1.4091577738222183 3.9856998684051903 2.4407328438822415 1.7553435017541093e-07 1.0371175161679015e-07 4.881465417059113" Properties=species:S:1:pos:R:3:forces:R:3 energy=-64.48436737060547 free_energy=-64.48436737060547 stress="-0.00014883950643707067 -1.2828628825900523e-07 -7.50028590346119e-08 -1.2828628825900523e-07 -0.00014929837197996676 -3.6606968478736235e-07 -7.50028590346119e-08 -3.6606968478736235e-07 -0.00014916354848537594" pbc="T T T"
Ta       1.40915636       0.99642451       2.44073216      -0.00003007      -0.00001051      -0.00000583
Ta       4.22746944       2.98927436       7.32220016      -0.00006682      -0.00001261       0.00003753
S        0.00000394       0.00000079      -0.00000132       0.00006782       0.00001986      -0.00002327
O        1.35664707       0.95929407       4.88146511       0.00092244       0.00064057      -0.00000526
O        4.27998216       3.02640399       4.88146561      -0.00095189      -0.00068444      -0.00000755
O        3.54914952       0.95929667       3.61562475      -0.00045502       0.00067955       0.00081629
O        2.08748267       3.02640544       6.14730726       0.00047639      -0.00064498      -0.00079536
O        2.08748286       3.02640466       3.61562404       0.00048527      -0.00065577       0.00080001
O        3.54915074       0.95929573       6.14730655      -0.00044894       0.00066859      -0.00081754
