9
Lattice="4.585862676494789 5.094752358181844e-08 2.6476493117741153 1.5286209020250783 4.32359333683458 2.647649377892813 2.6554184350199e-08 9.975516989301506e-08 5.295298577555035" Properties=species:S:1:pos:R:3:forces:R:3 energy=-42.27809143066406 free_energy=-42.27809143066406 stress="-0.00014713520067743957 -2.2903252627770598e-08 -7.073666652424038e-10 -2.2903252627770598e-08 -0.00014726395602338016 -6.889751347216588e-08 -7.073666652424038e-10 -6.889751347216588e-08 -0.00014740385813638568" pbc="T T T"
Te       1.52862006       1.08089775       2.64765093      -0.00001237      -0.00001147       0.00002663
Te       4.58586242       3.24269479       7.94295058      -0.00000199      -0.00000964       0.00004465
As      -0.00000011      -0.00000006       0.00000015      -0.00000133      -0.00000076       0.00000354
N        1.55534084       1.09979241       5.29529812      -0.00648165      -0.00458097      -0.00001128
N        4.55914283       3.22380131       5.29529710       0.00647998       0.00458664      -0.00002213
N        3.80819248       1.09979297       3.99461352       0.00324315      -0.00457186      -0.00562096
N        2.30629107       3.22380183       6.59598242      -0.00324428       0.00459105       0.00559783
N        2.30629193       3.22380114       3.99461383      -0.00323200       0.00458318      -0.00561893
N        3.80819296       1.09979189       6.59598240       0.00324976      -0.00458640       0.00559938
