9
Lattice="4.825681865809551 -2.8926872213810505e-08 2.786108713110777 1.608560578219407 4.549696528009356 2.78610874159364 -5.929340316097677e-08 -7.042517296574093e-09 5.572217528920751" Properties=species:S:1:pos:R:3:forces:R:3 energy=-37.401329040527344 free_energy=-37.401329040527344 stress="0.0006368482718244195 -9.84358052846801e-08 3.429962802670161e-08 -9.84358052846801e-08 0.0006368636386469007 -3.15763815095238e-09 3.429962802670161e-08 -3.15763815095238e-09 0.0006371685885824263" pbc="T T T"
Te       1.60856126       1.13742459       2.78610841       0.00001018       0.00000623      -0.00000227
Te       4.82568223       3.41227090       8.35832595       0.00000910      -0.00002192      -0.00000190
Bi       0.00000016       0.00000006       0.00000029       0.00000498       0.00000787      -0.00001957
N        1.69833832       1.20090744       5.57221757      -0.00737047      -0.00519544       0.00000151
N        4.73590359       3.34878960       5.57221766       0.00735700       0.00520223       0.00000047
N        3.97651234       1.20090716       4.25691309       0.00367761      -0.00519758      -0.00637633
N        2.45772961       3.34878920       6.88752159      -0.00368786       0.00520301       0.00637931
N        2.45772977       3.34878950       4.25691321      -0.00368190       0.00519592      -0.00637037
N        3.97651229       1.20090758       6.88752213       0.00368148      -0.00520080       0.00638920
