9
Lattice="4.5984809199729275 -4.635613608014219e-08 2.6549341900191488 1.53282694502719 4.3354895287275586 2.6549341633319354 1.6243803590459795e-08 -2.1198929737824557e-08 5.309868351903185" Properties=species:S:1:pos:R:3:forces:R:3 energy=-37.1680793762207 free_energy=-37.1680793762207 stress="-0.00014242189354263246 -2.5316174045997286e-08 -1.8211703434189985e-07 -2.5316174045997286e-08 -0.00014297361485660076 2.6678561582116345e-08 -1.8211703434189985e-07 2.6678561582116345e-08 -0.00014252378605306149" pbc="T T T"
Te       1.53282610       1.08387514       2.65492798      -0.00001429       0.00004811      -0.00010989
Te       4.59848002       3.25161514       7.96479731      -0.00001619      -0.00003410      -0.00009267
Ga      -0.00000026      -0.00000010      -0.00000081       0.00000013       0.00000064      -0.00001280
N        1.65097111       1.16741348       5.30987163       0.00414377       0.00294405       0.00005777
N        4.48033780       3.16807494       5.30987065      -0.00413013      -0.00296357       0.00004248
N        3.77299725       1.16741349       4.08471838      -0.00204372       0.00294021       0.00361332
N        2.35831398       3.16807450       6.53502168       0.00209028      -0.00296843      -0.00355273
N        2.35831129       3.16807645       4.08471833       0.00205666      -0.00293285       0.00361165
N        3.77299421       1.16741467       6.53502158      -0.00208595       0.00296548      -0.00355738
