9
Lattice="4.680477278465604 -5.7186159370677004e-08 2.7022748658968547 1.5601590362586015 4.412796448652359 2.7022748704826904 -8.75778421232459e-08 -5.631041264996759e-08 5.404549883482977" Properties=species:S:1:pos:R:3:forces:R:3 energy=-39.38816452026367 free_energy=-39.38816452026367 stress="-9.630500426283106e-05 -4.370531669906086e-08 9.74603437953192e-08 -4.370531669906086e-08 -9.607216634321958e-05 1.2333477172887797e-07 9.74603437953192e-08 1.2333477172887797e-07 -9.631366265239194e-05" pbc="T T T"
Te       1.56015914       1.10319897       2.70227460       0.00000174      -0.00000124      -0.00000878
Te       4.68047715       3.30959751       8.10682225       0.00000231       0.00000466      -0.00004333
Sb       0.00000001       0.00000003      -0.00000005      -0.00000233      -0.00000652       0.00000370
N        1.65892306       1.17303561       5.40454991      -0.00415134      -0.00293839       0.00000209
N        4.58171326       3.23976062       5.40455118       0.00415605       0.00293833       0.00002342
N        3.85101542       1.17303557       4.13894472       0.00207540      -0.00294459      -0.00359350
N        2.38962108       3.23976068       6.67015549      -0.00206885       0.00294000       0.00360733
N        2.38962017       3.23976062       4.13894503      -0.00208867       0.00294197      -0.00359249
N        3.85101560       1.17303580       6.67015535       0.00207606      -0.00293410       0.00360155
