9
Lattice="5.053105471703661 -2.3192041829089836e-06 2.9174096181088895 1.6843664630935227 4.76410357620522 2.9174093425538947 -2.8758128078715563e-06 -2.3709915729181597e-06 5.834824217272423" Properties=species:S:1:pos:R:3:forces:R:3 energy=-45.84989929199219 free_energy=-45.84989929199219 stress="-3.580675911507569e-05 5.068995051260572e-06 1.6237465388257988e-05 5.068995051260572e-06 3.2570100302109495e-05 1.199097550852457e-05 1.6237465388257988e-05 1.199097550852457e-05 -2.4658793336129747e-05" pbc="T T T"
Te       1.68436821       1.19101851       2.91741408       0.00003143      -0.00024991       0.00014356
Te       5.05310165       3.57307262       8.75223330      -0.00000764      -0.00005589       0.00003359
Y        0.00000047      -0.00000871       0.00000509       0.00002922      -0.00038625       0.00022352
N        2.34862449       1.66072892       5.83485442       0.00046027       0.00080106       0.00158517
N        4.38894549       3.10336570       5.83481170       0.00365621      -0.00093928      -0.00035592
N        3.87882626       1.66070454       4.95137977       0.00129402      -0.00004241       0.00043228
N        2.85862911       3.10334070       6.71834261      -0.00184295      -0.00198478       0.00268298
N        2.85861492       3.10342404       4.95128178      -0.00227880       0.00128064      -0.00353470
N        3.87876556       1.66074907       6.71824999      -0.00134131       0.00157702      -0.00121081
