9
Lattice="4.225514644552009 -1.4950633349501956e-07 2.4396020951794024 1.4085047965837372 3.9838531819067255 2.439601998145881 -1.0355434000100791e-07 -1.920653060527282e-07 4.879204369720182" Properties=species:S:1:pos:R:3:forces:R:3 energy=-62.08834457397461 free_energy=-62.08834457397461 stress="-0.0001639929978409782 6.942268271359353e-08 8.623308644928329e-08 6.942268271359353e-08 -0.0001642442512093112 -9.636234210574912e-08 8.623308644928329e-08 -9.636234210574912e-08 -0.00016382605826947838" pbc="T T T"
Ti       1.40850561       0.99596414       2.43960208       0.00000416       0.00000267      -0.00000008
Ti       4.22551541       2.98788846       7.31880617       0.00001359      -0.00000746      -0.00000148
As      -0.00000005      -0.00000002       0.00000025      -0.00000895       0.00000092      -0.00001659
O        1.45147531       1.02634937       4.87920463      -0.00240564      -0.00168991       0.00000362
O        4.18254336       2.95750361       4.87920414       0.00241160       0.00169617      -0.00000098
O        3.49977593       1.02634806       3.69661743       0.00118667      -0.00169724      -0.00207829
O        2.13424285       2.95750501       6.06179051      -0.00119805       0.00170189       0.00208455
O        2.13424288       2.95750441       3.69661726      -0.00119686       0.00169677      -0.00208473
O        3.49977583       1.02634806       6.06179117       0.00119394      -0.00170374       0.00209373
