9
Lattice="4.173828697094159 -1.738059353848761e-08 2.409761218419273 1.3912762204508315 3.935123604650151 2.409761210672346 2.1681851667434514e-08 5.843384697370369e-09 4.81952239928445" Properties=species:S:1:pos:R:3:forces:R:3 energy=-63.633487701416016 free_energy=-63.633487701416016 stress="0.0003529973910190165 2.111004135940675e-07 5.898564481299218e-08 2.111004135940675e-07 0.00035274072433821857 9.403642309280258e-08 5.898564481299218e-08 9.403642309280258e-08 0.0003526730288285762" pbc="T T T"
Ti       1.39127625       0.98378110       2.40976112      -0.00000002      -0.00000186       0.00000074
Ti       4.17382870       2.95134255       7.22928389       0.00000065       0.00000006      -0.00000023
As      -0.00000001      -0.00000003      -0.00000022      -0.00000162      -0.00000629       0.00000473
N        1.50802115       1.06633192       4.81952222      -0.00379920      -0.00268596      -0.00000318
N        4.05708372       2.86879141       4.81952233       0.00380433       0.00269073       0.00000008
N        3.41981829       1.06633186       3.71574560       0.00189716      -0.00268441      -0.00328833
N        2.14528682       2.86879165       5.92329919      -0.00189900       0.00268602       0.00328928
N        2.14528674       2.86879197       3.71574587      -0.00189930       0.00268638      -0.00328940
N        3.41981800       1.06633163       5.92329916       0.00189734      -0.00268465       0.00328624
