9
Lattice="5.45169606376153 -7.709623525958608e-08 3.147538199858583 1.817231982380177 5.1399085336416555 3.1475381412921575 -2.2409417060215747e-08 -8.757482802232212e-08 6.295076438531465" Properties=species:S:1:pos:R:3:forces:R:3 energy=-39.58536148071289 free_energy=-39.58536148071289 stress="0.00015933599206618965 3.0775755277545613e-08 2.4161398215483132e-08 3.0775755277545613e-08 0.0001592847693245858 2.624561901143352e-08 2.4161398215483132e-08 2.624561901143352e-08 0.0001592572225490585" pbc="T T T"
Ti       1.81723018       1.28497836       3.14753880      -0.00000563       0.00000524       0.00000255
Ti       5.45169556       3.85492742       9.44261147      -0.00000151      -0.00001208      -0.00001274
As       0.00000013       0.00000019       0.00000004      -0.00000123       0.00000125       0.00000193
Se       2.08304071       1.47293303       6.29507641       0.00370818       0.00262323      -0.00000017
Se       5.18588786       3.66697596       6.29507772      -0.00370634      -0.00262335       0.00000422
Se       4.41017629       1.47293292       4.95150447      -0.00185135       0.00262472       0.00321206
Se       2.85875251       3.66697641       7.63864889       0.00185606      -0.00262240      -0.00321275
Se       2.85875247       3.66697623       4.95150433       0.00185654      -0.00262228       0.00321335
Se       4.41017633       1.47293290       7.63864895      -0.00185469       0.00262579      -0.00320852
