9
Lattice="5.189109808170619 -4.4325909273219785e-08 2.995933649512063 1.7297032140703803 4.892339607457723 2.995933672944916 -5.3569022349520756e-08 -9.179759749361566e-09 5.9918673918083964" Properties=species:S:1:pos:R:3:forces:R:3 energy=-45.746826171875 free_energy=-45.746826171875 stress="-0.0002258820168208331 -3.5897468109169495e-08 2.4306219259528916e-08 -3.5897468109169495e-08 -0.00022597346105612814 -1.0453005572230722e-08 2.4306219259528916e-08 -1.0453005572230722e-08 -0.00022575247567147017" pbc="T T T"
Ti       1.72970284       1.22308430       2.99593354      -0.00000108      -0.00000233       0.00000024
Ti       5.18910980       3.66925543       8.98779961      -0.00000046       0.00000257      -0.00000610
B       -0.00000005       0.00000014      -0.00000022      -0.00000001       0.00000073       0.00000114
S        1.62304320       1.14766503       5.99186693       0.00398529       0.00281841      -0.00000080
S        5.29576993       3.74467503       5.99186751      -0.00398767      -0.00281881       0.00000218
S        4.37758780       1.14766462       4.40153061      -0.00199050       0.00281276       0.00345153
S        2.54122513       3.74467431       7.58220530       0.00199381      -0.00281954      -0.00344658
S        2.54122487       3.74467498       4.40153079       0.00199340      -0.00281312       0.00345394
S        4.37758847       1.14766448       7.58220466      -0.00199297       0.00281918      -0.00345549
