9
Lattice="5.9146435037227985 -3.8196240283510157e-08 3.4148210353417183 1.9715477975624092 5.576379372414201 3.4148210370739225 -4.3675188475293996e-09 -9.667624075486727e-10 6.829642078248202" Properties=species:S:1:pos:R:3:forces:R:3 energy=-38.27571487426758 free_energy=-38.27571487426758 stress="-9.372318163514137e-05 3.403627601983317e-08 6.570271438022246e-09 3.403627601983317e-08 -9.372096246806905e-05 -1.010360506370489e-08 6.570271438022246e-09 -1.010360506370489e-08 -9.374112414661795e-05" pbc="T T T"
Ti       1.97154861       1.39409455       3.41482131       0.00000437      -0.00000205       0.00000296
Ti       5.91464369       4.18228350      10.24446261       0.00000127      -0.00000524      -0.00000245
B       -0.00000011      -0.00000026       0.00000021      -0.00000069       0.00000182       0.00000025
Te       1.90645939       1.34807080       6.82964204       0.00537762       0.00380433      -0.00000008
Te       5.97973146       4.22830937       6.82964209      -0.00537980      -0.00380325       0.00000057
Te       4.96141360       1.34807076       5.06586327      -0.00268959       0.00380453       0.00465900
Te       2.92477754       4.22830902       8.59342088       0.00268921      -0.00380296      -0.00466067
Te       2.92477745       4.22830841       5.06586343       0.00268708      -0.00380230       0.00465733
Te       4.96141354       1.34807119       8.59342073      -0.00268932       0.00380483      -0.00465709
