9
Lattice="3.8981360971503953 -1.0460282800563572e-07 2.2505897275827587 1.2993785569880394 3.6751981642355642 2.2505898028258553 -1.342536541642017e-07 -2.778096432658393e-09 4.501179687699709" Properties=species:S:1:pos:R:3:forces:R:3 energy=-66.83705139160156 free_energy=-66.83705139160156 stress="1.6009407772799022e-05 3.536896642231113e-08 1.0946930473210159e-08 3.536896642231113e-08 1.586944745213259e-05 6.882313385858652e-08 1.0946930473210159e-08 6.882313385858652e-08 1.5693452951381914e-05" pbc="T T T"
Ti       1.29937930       0.91879857       2.25058973       0.00000731      -0.00000767      -0.00000344
Ti       3.89813549       2.75639916       6.75177033      -0.00000338       0.00000575       0.00000797
B       -0.00000006      -0.00000004      -0.00000000      -0.00000080       0.00000180      -0.00000030
O        1.26267884       0.89284907       4.50117947       0.00234151       0.00166219       0.00000538
O        3.93483561       2.78234901       4.50117913      -0.00234735      -0.00166273      -0.00000620
O        3.26679579       0.89284892       3.34410159      -0.00116915       0.00165874       0.00202602
O        1.93071839       2.78234908       5.65825726       0.00117466      -0.00165790      -0.00203133
O        1.93071819       2.78234947       3.34410182       0.00117326      -0.00165713       0.00203794
O        3.26679654       0.89284866       5.65825713      -0.00117660       0.00165737      -0.00203681
