9
Lattice="5.43686810607245 -2.0201812622064653e-08 3.138977255777311 1.8122893549828436 5.125928249180794 3.138977246530813 5.32520792146888e-09 -7.559115285984146e-09 6.277954502331127" Properties=species:S:1:pos:R:3:forces:R:3 energy=-42.370094299316406 free_energy=-42.370094299316406 stress="-0.00018397558596916497 5.354429122306215e-10 8.865313816386333e-09 5.354429122306215e-10 -0.00018399892724119127 -2.44858728848385e-08 8.865313816386333e-09 -2.44858728848385e-08 -0.00018396212544757873" pbc="T T T"
Ti       1.81228967       1.28148209       3.13897702       0.00000090       0.00000101      -0.00000066
Ti       5.43686810       3.84444642       9.41693245       0.00000032       0.00000022       0.00000104
B       -0.00000005      -0.00000018      -0.00000008      -0.00000009      -0.00000070       0.00000028
Se       1.72418471       1.21918224       6.27795470       0.00142670       0.00100781      -0.00000047
Se       5.52497316       3.90674536       6.27795457      -0.00142734      -0.00101079       0.00000055
Se       4.57477565       1.21918266       4.63216462      -0.00071361       0.00100878       0.00123609
Se       2.67438114       3.90674597       7.92374402       0.00071373      -0.00100878      -0.00123711
Se       2.67438191       3.90674574       4.63216475       0.00071245      -0.00100606       0.00123435
Se       4.57477559       1.21918259       7.92374403      -0.00071292       0.00100849      -0.00123407
