9
Lattice="5.523561433772895 4.914218611857683e-08 3.189029617723246 1.8411871585879453 5.207663624866648 3.1890296737286294 -1.0077023029116505e-08 6.146677243695764e-08 6.378059252900382" Properties=species:S:1:pos:R:3:forces:R:3 energy=-38.1102294921875 free_energy=-38.1102294921875 stress="-0.00017871239106170833 -1.2162558959971648e-08 -1.872478350151141e-08 -1.2162558959971648e-08 -0.00017873226897791028 2.3352429323608703e-08 -1.872478350151141e-08 2.3352429323608703e-08 -0.0001787321816664189" pbc="T T T"
Ti       1.84118913       1.30191623       3.18902991       0.00000826       0.00000136       0.00000205
Ti       5.52356045       3.90574955       9.56708738      -0.00000376       0.00000815      -0.00000837
Ga       0.00000031       0.00000032       0.00000017      -0.00000427      -0.00000239      -0.00000197
Se       2.00697434       1.41914473       6.37805948      -0.00205079      -0.00144966       0.00000165
Se       5.35777418       3.78851808       6.37805963       0.00205487       0.00145133       0.00000180
Se       4.52007337       1.41914452       4.92712060       0.00102276      -0.00145434      -0.00177824
Se       2.84467505       3.78851857       7.82899864      -0.00102401       0.00145060       0.00177875
Se       2.84467394       3.78851811       4.92712036      -0.00102556       0.00144801      -0.00177509
Se       4.52007359       1.41914479       7.82899807       0.00102292      -0.00145325       0.00177932
