9
Lattice="5.3216469591198905 -4.9394436689108074e-08 3.072454432759173 1.773882324106781 5.0172967032043365 3.072454344477076 4.640210003493465e-08 -7.531180408697806e-08 6.144908785147562" Properties=species:S:1:pos:R:3:forces:R:3 energy=-41.55590057373047 free_energy=-41.55590057373047 stress="-0.00014804251259192824 -5.671082448088782e-08 -4.97415930666989e-09 -5.671082448088782e-08 -0.00014796921459492296 1.9325305800066417e-08 -4.97415930666989e-09 1.9325305800066417e-08 -0.0001479477941757068" pbc="T T T"
Ti       1.77388281       1.25432349       3.07245513       0.00000243      -0.00000438       0.00000638
Ti       5.32164679       3.76297264       9.21736081      -0.00000175       0.00000065      -0.00001609
Ga       0.00000006      -0.00000023       0.00000019      -0.00000132       0.00000184      -0.00000113
S        1.86969214       1.32207190       6.14490848      -0.00413680      -0.00292531      -0.00000300
S        5.22583728       3.69522457       6.14490953       0.00413877       0.00292552       0.00000552
S        4.38680064       1.32207165       4.69165590       0.00206845      -0.00293005      -0.00358343
S        2.70872952       3.69522556       7.59816193      -0.00206274       0.00293428       0.00358316
S        2.70872788       3.69522448       4.69165577      -0.00207302       0.00292283      -0.00358272
S        4.38680026       1.32207232       7.59816256       0.00206609      -0.00292525       0.00359163
