9
Lattice="5.252610522550185 2.5296605178612804e-07 3.032596303594457 1.7508703201174736 4.952209374837465 3.032596463921139 4.802933591995356e-08 2.3032113654781208e-07 6.065192523999691" Properties=species:S:1:pos:R:3:forces:R:3 energy=-48.1473388671875 free_energy=-48.1473388671875 stress="2.316545032954309e-05 3.0157645269923705e-09 -3.7028851096465587e-09 3.0157645269923705e-09 2.317637699889019e-05 -6.124880602698113e-09 -3.7028851096465587e-09 -6.124880602698113e-09 2.3204458557302132e-05" pbc="T T T"
Ti       1.75087043       1.23805316       3.03259611       0.00000100       0.00000224      -0.00000079
Ti       5.25261013       3.71415667       9.09778855      -0.00000185      -0.00000197      -0.00000126
Ir      -0.00000026      -0.00000009       0.00000013      -0.00000037       0.00000164       0.00000177
S        1.88456105       1.33258644       6.06519210      -0.00198889      -0.00140536      -0.00000037
S        5.11891997       3.61962343       6.06519283       0.00198829       0.00140798      -0.00000064
S        4.31033044       1.33258646       4.66467457       0.00099593      -0.00140703      -0.00172335
S        2.69315134       3.61962357       7.46571137      -0.00099164       0.00140339       0.00172216
S        2.69315080       3.61962325       4.66467418      -0.00099504       0.00140566      -0.00172299
S        4.31032987       1.33258651       7.46571123       0.00099272      -0.00140661       0.00172514
