9
Lattice="5.63515868714106 3.912432541084928e-09 3.2534603593923013 1.8783862022989974 5.3128786711127445 3.253460412110188 -7.759358634477043e-08 9.699055269765492e-09 6.506920853180588" Properties=species:S:1:pos:R:3:forces:R:3 energy=-44.418113708496094 free_energy=-44.418113708496094 stress="-0.00017734436551108956 -4.4002099741646816e-08 6.469992097635213e-09 -4.4002099741646816e-08 -0.00017733476124703884 -3.8390702172819147e-08 6.469992097635213e-09 -3.8390702172819147e-08 -0.00017726136138662696" pbc="T T T"
Ti       1.87838600       1.32822022       3.25346060      -0.00000194       0.00000429       0.00000117
Ti       5.63515831       3.98465844       9.76038133      -0.00000019      -0.00000367       0.00000059
Ir      -0.00000002      -0.00000013       0.00000012      -0.00000126       0.00000303      -0.00000157
Se       1.98021010       1.40022052       6.50692086      -0.00652391      -0.00461152       0.00000105
Se       5.53333459       3.91265850       6.50692083       0.00652164       0.00461230      -0.00000071
Se       4.64505338       1.40022047       4.96837306       0.00326288      -0.00461325      -0.00565195
Se       2.86849166       3.91265816       8.04546884      -0.00326020       0.00461099       0.00565058
Se       2.86849149       3.91265808       4.96837260      -0.00326160       0.00461340      -0.00565070
Se       4.64505368       1.40022041       8.04546832       0.00326461      -0.00461552       0.00565130
