9
Lattice="4.412653086632799 -1.0508442413519036e-07 2.547646412879941 1.4708842692392783 4.160289192941548 2.5476464023093754 -5.785865791799973e-08 -5.385846911903014e-08 5.095292925973962" Properties=species:S:1:pos:R:3:forces:R:3 energy=-61.590972900390625 free_energy=-61.590972900390625 stress="0.00010093847231473774 -6.38634318761433e-08 1.1153537116115331e-07 -6.38634318761433e-08 0.00010093722812598571 -8.829356801243193e-08 1.1153537116115331e-07 -8.829356801243193e-08 0.0001011749409371987" pbc="T T T"
Ti       1.47088419       1.04007262       2.54764672      -0.00000376       0.00000559       0.00000748
Ti       4.41265281       3.12021662       7.64293917      -0.00000053      -0.00000349      -0.00000122
Ir       0.00000034       0.00000007      -0.00000009      -0.00002489      -0.00001496      -0.00000787
O        1.53052279       1.08224291       5.09529273       0.00010668       0.00007252      -0.00000301
O        4.35301449       3.07804583       5.09529326      -0.00008289      -0.00005857       0.00000210
O        3.64739196       1.08224310       3.87311813      -0.00004173       0.00006931       0.00008296
O        2.23614547       3.07804622       6.31746730       0.00004364      -0.00006343      -0.00008187
O        2.23614583       3.07804548       3.87311765       0.00004677      -0.00006968       0.00007314
O        3.64739146       1.08224320       6.31746787      -0.00004293       0.00006272      -0.00007213
