9
Lattice="5.542545427465028 3.724380494810463e-08 3.199990364056377 1.8475152085794087 5.22556195916559 3.1999903104021046 -5.464644727249821e-08 -1.0435368960082577e-07 6.399980822763329" Properties=species:S:1:pos:R:3:forces:R:3 energy=-46.22553634643555 free_energy=-46.22553634643555 stress="2.422475972707616e-06 -8.857461608613448e-08 7.804403345801347e-09 -8.857461608613448e-08 2.483533080521738e-06 2.3387144665321102e-08 7.804403345801347e-09 2.3387144665321102e-08 2.565034719737014e-06" pbc="T T T"
Ti       1.84751618       1.30638951       3.19999062       0.00000763      -0.00000336       0.00000311
Ti       5.54254974       3.91917574       9.59997222       0.00002286       0.00002146       0.00000437
Mo      -0.00000029       0.00000005       0.00000037      -0.00000300      -0.00000211      -0.00000848
Se       1.99661061       1.41181593       6.39997950       0.00047427       0.00033024      -0.00000395
Se       5.39344888       3.81374636       6.39998187      -0.00048363      -0.00033170       0.00000639
Se       4.54423892       1.41181695       4.92910565      -0.00023529       0.00033316       0.00040531
Se       2.84581835       3.81374317       7.87085567       0.00022042      -0.00033781      -0.00040510
Se       2.84581990       3.81374502       4.92910622       0.00023106      -0.00033063       0.00041127
Se       4.54423991       1.41181512       7.87085383      -0.00023448       0.00032079      -0.00041303
