9
Lattice="5.246560784026263 -3.591500066528088e-07 3.0291030316095795 1.748853310174034 4.9465042480794414 3.029102937891007 3.949536084842763e-07 1.6449307434366363e-07 6.05820537913944" Properties=species:S:1:pos:R:3:forces:R:3 energy=-50.295494079589844 free_energy=-50.295494079589844 stress="6.257463246583939e-05 -2.5395317848619925e-08 5.74505136796688e-08 -2.5395317848619925e-08 6.283116817940027e-05 -1.8212611507806287e-07 5.74505136796688e-08 -1.8212611507806287e-07 6.297489744611084e-05" pbc="T T T"
Ti       1.74885183       1.23662550       3.02910394      -0.00001315      -0.00000023       0.00000711
Ti       5.24656650       3.70987709       9.08730904       0.00003148      -0.00000413       0.00000092
Mo       0.00000026      -0.00000109       0.00000009      -0.00000222       0.00000972      -0.00000892
S        1.89008448       1.33649401       6.05820365      -0.00123960      -0.00087065      -0.00001123
S        5.10532861       3.61001216       6.05820513       0.00122368       0.00086772      -0.00000631
S        4.30151841       1.33649079       4.66596571       0.00061664      -0.00087345      -0.00106305
S        2.69389462       3.61001166       7.45044577      -0.00062317       0.00087172       0.00106990
S        2.69389519       3.61001254       4.66596639      -0.00061977       0.00088114      -0.00107193
S        4.30151777       1.33649350       7.45044574       0.00062630      -0.00088191       0.00108367
