9
Lattice="4.435809128983902 -1.051854362672477e-08 2.5610156671690207 1.478603073317517 4.182120874587193 2.5610155974715028 5.595778684683778e-08 -4.579355489120005e-08 5.122031237416312" Properties=species:S:1:pos:R:3:forces:R:3 energy=-63.62397384643555 free_energy=-63.62397384643555 stress="0.0005415606428869069 -4.96654584125622e-09 -7.710013960604556e-09 -4.96654584125622e-09 0.0005413834587670863 -2.1220499135665705e-08 -7.710013960604556e-09 -2.1220499135665705e-08 0.0005417834618128836" pbc="T T T"
Ti       1.47860257       1.04553092       2.56101589      -0.00000484       0.00000364       0.00000094
Ti       4.43580869       3.13659042       7.68304720      -0.00000607       0.00000086       0.00000516
Mo      -0.00000008      -0.00000023       0.00000007      -0.00000037       0.00000023       0.00000196
O        1.54021173       1.08909398       5.12203113      -0.00642100      -0.00454026      -0.00000177
O        4.37420075       3.09302667       5.12203142       0.00642803       0.00453654       0.00000089
O        3.66570362       1.08909408       3.89487825       0.00321531      -0.00454447      -0.00556156
O        2.24870885       3.09302697       6.34918421      -0.00321203       0.00454021       0.00556138
O        2.24870967       3.09302659       3.89487757      -0.00320783       0.00453994      -0.00556588
O        3.66570342       1.08909388       6.34918435       0.00320862      -0.00453669       0.00555864
