9
Lattice="3.8796608113515423 -2.3504600673264015e-08 2.2399232681946217 1.2932202958120957 3.6577791193418627 2.239923185884222 1.35688045111355e-07 -4.863287554359058e-09 4.47984630137066" Properties=species:S:1:pos:R:3:forces:R:3 energy=-61.111270904541016 free_energy=-61.111270904541016 stress="0.00082255998859182 6.591633017194454e-09 -1.0222719026842242e-07 6.591633017194454e-09 0.0008222944452427328 -2.2903824969944253e-07 -1.0222719026842242e-07 -2.2903824969944253e-07 0.0008226116187870502" pbc="T T T"
Ti       1.29322074       0.91444318       2.23992540      -0.00001386      -0.00000578       0.00004546
Ti       3.87966068       2.74333443       6.71976716      -0.00002398       0.00001286      -0.00000777
N        0.00001152      -0.00000280      -0.00001161       0.00031108      -0.00007557      -0.00030632
O        1.30923681       0.92577056       4.47984692       0.00135458       0.00096178       0.00000588
O        3.86363850       2.73200563       4.47984702      -0.00149196      -0.00104722       0.00000249
O        3.22503826       0.92577576       3.37376202      -0.00078064       0.00109634       0.00134495
O        1.94783746       2.73201080       5.58593954       0.00064611      -0.00092405      -0.00112396
O        1.94783975       2.73200684       3.37375868       0.00071084      -0.00101501       0.00125164
O        3.22504119       0.92577220       5.58593551      -0.00071216       0.00099725      -0.00121287
