9
Lattice="5.552272860357928 -5.2152784736667394e-08 3.2056062101260516 1.8507575734099608 5.234733001900963 3.2056062058638934 1.1066677611254832e-08 2.6052668103041784e-09 6.411212401084038" Properties=species:S:1:pos:R:3:forces:R:3 energy=-41.056915283203125 free_energy=-41.056915283203125 stress="-0.00022716548119205981 -1.2632616730456903e-08 1.8164513448937214e-08 -1.2632616730456903e-08 -0.00022725046437699348 -3.83604437104168e-08 1.8164513448937214e-08 -3.83604437104168e-08 -0.0002272883866680786" pbc="T T T"
Ti       1.85075750       1.30868253       3.20560624      -0.00000018      -0.00000203       0.00000029
Ti       5.55227355       3.92605064       9.61681905       0.00000290       0.00000465       0.00000122
P       -0.00000005      -0.00000008      -0.00000006      -0.00000019      -0.00000232       0.00000011
Se       1.87668647       1.32701775       6.41121247       0.00462347       0.00327215      -0.00000040
Se       5.52634393       3.90771518       6.41121238      -0.00462252      -0.00327134      -0.00000081
Se       4.61392937       1.32701747       4.83086436      -0.00231427       0.00327051       0.00400472
Se       2.78910081       3.90771551       7.99156021       0.00231102      -0.00326920      -0.00400507
Se       2.78910090       3.90771558       4.83086447       0.00231284      -0.00327069       0.00400537
Se       4.61392933       1.32701722       7.99156015      -0.00231338       0.00326839      -0.00400519
