9
Lattice="4.106733716633589 1.1742191198537555e-08 2.3710237200795556 1.3689112630779798 3.8718654725267463 2.3710236973386523 5.248927008866218e-08 9.263718213638095e-09 4.742047349245033" Properties=species:S:1:pos:R:3:forces:R:3 energy=-67.77657318115234 free_energy=-67.77657318115234 stress="-0.00020369247067719698 -1.714885833337121e-08 1.0215508439159748e-07 -1.714885833337121e-08 -0.00020401683286763728 1.2875153743152623e-07 1.0215508439159748e-07 1.2875153743152623e-07 -0.0002036666264757514" pbc="T T T"
Ti       1.36891118       0.96796664       2.37102386      -0.00000026       0.00000022       0.00000173
Ti       4.10673368       2.90389855       7.11307086      -0.00000098      -0.00000313       0.00000012
P        0.00000009      -0.00000004       0.00000010      -0.00000042       0.00000030       0.00000159
O        1.36235978       0.96333400       4.74204738       0.00060344       0.00042820       0.00000123
O        4.11328520       2.90853161       4.74204735      -0.00060499      -0.00042892      -0.00000280
O        3.42555365       0.96333395       3.55086195      -0.00029874       0.00042760       0.00052369
O        2.05009131       2.90853138       5.93323288       0.00030106      -0.00042498      -0.00052059
O        2.05009129       2.90853162       3.55086206       0.00030077      -0.00042593       0.00052345
O        3.42555402       0.96333404       5.93323272      -0.00030142       0.00042713      -0.00052726
