9
Lattice="5.203083080871173 1.4789316015366636e-08 3.0040015085524256 1.7343610795247975 4.905513716132689 3.0040014416532395 1.9662389865155688e-07 5.709968578814335e-08 6.008002676542164" Properties=species:S:1:pos:R:3:forces:R:3 energy=-44.98906707763672 free_energy=-44.98906707763672 stress="2.9617605832754634e-05 1.1131158217381198e-08 2.6739519043417204e-08 1.1131158217381198e-08 2.9638604246429168e-05 -6.314444078725501e-08 2.6739519043417204e-08 -6.314444078725501e-08 2.9533997803810053e-05" pbc="T T T"
Ti       1.73436006       1.22637784       3.00400124      -0.00000602      -0.00000301      -0.00000186
Ti       5.20308388       3.67913687       9.01200448       0.00000453       0.00000621       0.00000230
P       -0.00000012       0.00000028      -0.00000054       0.00000024      -0.00000195       0.00000169
S        1.75797134       1.24307344       6.00800234      -0.00053215      -0.00037742      -0.00000291
S        5.17947385       3.66243939       6.00800218       0.00053668       0.00037134      -0.00000581
S        4.32409718       1.24307263       4.52644890       0.00026137      -0.00037581      -0.00045878
S        2.61334710       3.66243999       7.48955733      -0.00026315       0.00037253       0.00046134
S        2.61334637       3.66244180       4.52644997      -0.00026762       0.00038743      -0.00045592
S        4.32409792       1.24307307       7.48955649       0.00026619      -0.00037885       0.00045943
