9
Lattice="5.23289457828697 5.99727625213526e-08 3.021213218086726 1.7442981846072592 4.933620661794523 3.0212133301468467 4.138838690863191e-08 1.6651102671664762e-07 6.042426364486784" Properties=species:S:1:pos:R:3:forces:R:3 energy=-47.16233825683594 free_energy=-47.16233825683594 stress="-1.9329261704115197e-05 -9.633875031056505e-09 -2.1424929386171243e-08 -9.633875031056505e-09 -1.931372389663011e-05 -5.086636178930348e-08 -2.1424929386171243e-08 -5.086636178930348e-08 -1.9382077880436555e-05" pbc="T T T"
Ti       1.74429892       1.23340439       3.02121357       0.00000131      -0.00000407       0.00000271
Ti       5.23289477       3.70021635       9.06363896       0.00000004       0.00000255      -0.00000348
Rh       0.00000005       0.00000009      -0.00000079       0.00000038       0.00000102       0.00000877
S        1.87781749       1.32781779       6.04242657       0.00018513       0.00013131       0.00000304
S        5.09937506       3.60580358       6.04242710      -0.00018811      -0.00013101       0.00000124
S        4.29398521       1.32781731       4.64745114      -0.00009298       0.00012994       0.00015891
S        2.68320729       3.60580392       7.43740207       0.00009787      -0.00013441      -0.00016642
S        2.68320680       3.60580274       4.64745114       0.00009143      -0.00012928       0.00015950
S        4.29398563       1.32781731       7.43740201      -0.00009459       0.00013399      -0.00016344
