9
Lattice="5.170395747165651 -3.2340529062238357e-08 2.985129372880433 1.7234652424723353 4.8746956775205135 2.985129331470509 4.169457875264995e-08 -2.1234121294850428e-08 5.970258673543735" Properties=species:S:1:pos:R:3:forces:R:3 energy=-48.91414260864258 free_energy=-48.91414260864258 stress="-4.818621528102085e-05 2.7593328510988613e-08 -2.7585024042764417e-08 2.7593328510988613e-08 -4.812187762581743e-05 -3.58605483086194e-08 -2.7585024042764417e-08 -3.58605483086194e-08 -4.821972834179178e-05" pbc="T T T"
Ti       1.72346544       1.21867389       2.98512995       0.00000041      -0.00000017       0.00000304
Ti       5.17039583       3.65602191       8.95538636       0.00000047       0.00000025      -0.00000507
Ru       0.00000000      -0.00000005      -0.00000013       0.00000102       0.00000099       0.00000188
S        1.86388958       1.31796906       5.97025889      -0.00182998      -0.00129455       0.00000199
S        5.02997137       3.55672672       5.97025955       0.00182676       0.00129122       0.00000110
S        4.23845062       1.31796874       4.59930488       0.00091296      -0.00129062      -0.00158310
S        2.65541007       3.55672696       7.34121261      -0.00091332       0.00129247       0.00158226
S        2.65540972       3.55672639       4.59930513      -0.00091326       0.00129384      -0.00158429
S        4.23845143       1.31796891       7.34121232       0.00091535      -0.00129366       0.00158238
