9
Lattice="4.3826313633265865 -5.4542803010124645e-09 2.530313349416484 1.4608770940386258 4.1319845358429665 2.530313387396716 -1.1235748374526572e-07 -3.2932662940068306e-08 5.0606268934418495" Properties=species:S:1:pos:R:3:forces:R:3 energy=-59.95109558105469 free_energy=-59.95109558105469 stress="0.00039286387618631124 -5.186672424883909e-08 5.2944162831636277e-08 -5.186672424883909e-08 0.00039267094689421356 1.0041723186304807e-07 5.2944162831636277e-08 1.0041723186304807e-07 0.00039295124588534236" pbc="T T T"
Ti       1.46087695       1.03299614       2.53031399      -0.00000273       0.00000135       0.00000513
Ti       4.38263068       3.09898766       7.59093927      -0.00000557      -0.00001093      -0.00001469
Rh       0.00000015       0.00000004       0.00000003      -0.00000566       0.00000577      -0.00000278
O        1.53727611       1.08701832       5.06062731      -0.00578514      -0.00409041       0.00000527
O        4.30623210       3.04496646       5.06062697       0.00578809       0.00409862       0.00000214
O        3.61399300       1.08701859       3.86163303       0.00289041      -0.00409243      -0.00501783
O        2.22951557       3.04496612       6.25962048      -0.00288586       0.00409110       0.00501533
O        2.22951462       3.04496587       3.86163345      -0.00290039       0.00408667      -0.00500607
O        3.61399424       1.08701872       6.25961987       0.00290711      -0.00408928       0.00501314
