9
Lattice="5.493265480798448 -1.8672037414148987e-07 3.171538290830487 1.8310883396653705 5.179100522395948 3.171538252539019 -1.1719874814169533e-07 -1.2976928047961683e-07 6.343076784655083" Properties=species:S:1:pos:R:3:forces:R:3 energy=-44.99632263183594 free_energy=-44.99632263183594 stress="-0.0001810026733437553 1.4908769330190808e-08 -1.1391451337772196e-08 1.4908769330190808e-08 -0.00018097458814736456 -8.075028290477348e-08 -1.1391451337772196e-08 -8.075028290477348e-08 -0.0001809938985388726" pbc="T T T"
Ti       1.83108672       1.29477400       3.17153988      -0.00000945      -0.00000425       0.00000712
Ti       5.49326509       3.88432551       9.51461383      -0.00000157       0.00000160      -0.00000714
Ru       0.00000037      -0.00000006       0.00000015      -0.00000321      -0.00000130      -0.00000131
Se       1.98231952       1.40171297       6.34307644       0.00701207       0.00496534      -0.00000004
Se       5.34203383       3.77738700       6.34307753      -0.00700605      -0.00496006      -0.00000091
Se       4.50210454       1.40171097       4.88827856      -0.00350949       0.00495467       0.00607574
Se       2.82224958       3.77738910       7.79787485       0.00350782      -0.00495434      -0.00607449
Se       2.82224954       3.77738860       4.88827801       0.00351244      -0.00495508       0.00607169
Se       4.50210572       1.40171244       7.79787423      -0.00350276       0.00495374      -0.00607002
