9
Lattice="4.115688470214647 -0.9674456745765445 1.4703893923654463 0.8231310781172393 3.3959181841196733 1.0053442250546247 0.18718971539297197 -0.502493765330775 3.08564213946395" Properties=species:S:1:pos:R:3:forces:R:3 energy=-1013.06982421875 free_energy=-1013.06982421875 stress="50.642398834228516 6.13068151473999 31.88974952697754 6.13068151473999 57.084102630615234 27.05853271484375 31.88974952697754 27.05853271484375 117.49642944335938" pbc="T T T"
Ti       1.12627328       0.70901276       1.61409160    -352.18838501    -523.75915527    -512.25366211
Ti       4.06056667       1.79859925       3.88757972     750.05297852    -321.99847412     709.57263184
Sb       0.29387350      -0.38377680       0.19621940     -85.91955566    -592.15277100    -530.99005127
N        1.32153549      -0.54114400       3.28543397     912.31359863   -1177.92871094    -681.29174805
N        3.62422728       1.26218758       2.32900346     747.43322754     302.47967529      75.37471771
N        3.02065548       0.75314013       2.21377435    -897.37121582    -124.75845337      86.70272827
N        1.69182452       1.77954814       3.23501194    -593.82434082    1863.94299316    2383.85302734
N        2.12553839       2.16356156       1.66618676    -334.32461548     404.64569092   -1024.38684082
N        3.21733889       0.20414597       3.84366671    -146.17042542     169.52893066    -506.58068848
