9
Lattice="4.433580547659207 -1.0138035864622965e-08 2.559728808538611 1.4778601392488144 4.180019795543668 2.559728866988425 -3.471460377914827e-08 4.7039193538535654e-08 5.1194576772046645" Properties=species:S:1:pos:R:3:forces:R:3 energy=-71.16730499267578 free_energy=-71.16730499267578 stress="-1.995949787669815e-05 -5.325232521613543e-08 -6.645792183235244e-08 -5.325232521613543e-08 -1.9850174794555642e-05 6.916121719768853e-08 -6.645792183235244e-08 6.916121719768853e-08 -1.9794841136899777e-05" pbc="T T T"
Ti       1.47785984       1.04500463       2.55972908      -0.00000095      -0.00000029       0.00000346
Ti       4.43358037       3.13501542       7.67918665      -0.00000431       0.00000835       0.00000237
Ta      -0.00000002       0.00000028      -0.00000003       0.00000227      -0.00000157      -0.00000452
O        1.56098970       1.10378558       5.11945774      -0.00367674      -0.00260103      -0.00000002
O        4.35045149       3.07623363       5.11945776       0.00367230       0.00259787      -0.00000175
O        3.65308575       1.10378610       3.91158522       0.00184277      -0.00260320      -0.00318691
O        2.25835492       3.07623383       6.32733030      -0.00183962       0.00260311       0.00318018
O        2.25835486       3.07623372       3.91158475      -0.00183719       0.00259855      -0.00317982
O        3.65308577       1.10378610       6.32732996       0.00184208      -0.00260186       0.00318691
