9
Lattice="5.71381808720868 4.369501024422495e-08 3.2988744282117817 1.9046060269760978 5.387039466139949 3.2988745031914055 -5.4450026458820347e-08 5.3328946111255716e-08 6.59774895073378" Properties=species:S:1:pos:R:3:forces:R:3 energy=-48.66752624511719 free_energy=-48.66752624511719 stress="-5.927564779995009e-05 2.5783231549780794e-08 -5.936602676115399e-08 2.5783231549780794e-08 -5.92383585171774e-05 3.4635878165545364e-08 -5.936602676115399e-08 3.4635878165545364e-08 -5.925852747168392e-05" pbc="T T T"
Ti       1.90460631       1.34675967       3.29887419       0.00000169      -0.00000086      -0.00000127
Ti       5.71381769       4.04027950       9.89662420      -0.00000194      -0.00000149       0.00000494
Ta       0.00000013       0.00000007       0.00000037      -0.00000186      -0.00000032      -0.00000239
Se       2.01328918       1.42361070       6.59774859      -0.00064211      -0.00045445      -0.00000132
Se       5.60513468       3.96342910       6.59774874       0.00064179       0.00045649      -0.00000021
Se       4.70717337       1.42361089       5.04243403       0.00032350      -0.00045494      -0.00055921
Se       2.91125058       3.96342873       8.15306366      -0.00032200       0.00045528       0.00055999
Se       2.91125092       3.96342933       5.04243409      -0.00031818       0.00045421      -0.00055455
Se       4.70717332       1.42361024       8.15306367       0.00031907      -0.00045393       0.00055395
