9
Lattice="6.219428827954559 -1.9094168952765856e-08 3.5907889552707277 2.073142933796166 5.8637337524212745 3.5907889394280494 2.1131319752287317e-08 -4.4611664418215126e-09 7.181577873940967" Properties=species:S:1:pos:R:3:forces:R:3 energy=-44.883323669433594 free_energy=-44.883323669433594 stress="-3.254068360547535e-05 1.1235391284003526e-08 2.653791630891078e-09 1.1235391284003526e-08 -3.251773159718141e-05 -3.6547047610469008e-09 2.653791630891078e-09 -3.6547047610469008e-09 -3.252763781347312e-05" pbc="T T T"
Ti       2.07314268       1.46593296       3.59078922      -0.00000077      -0.00000311       0.00000209
Ti       6.21942884       4.39780028      10.77236708       0.00000016       0.00000005       0.00000384
Ta      -0.00000019      -0.00000036       0.00000017       0.00000165       0.00000632       0.00000030
Te       2.18838947       1.54742511       7.18157781      -0.00023304      -0.00016409      -0.00000144
Te       6.10418248       4.31630894       7.18157792       0.00022662       0.00016029      -0.00000129
Te       5.12523417       1.54742501       5.48598970       0.00011549      -0.00016156      -0.00019947
Te       3.16733764       4.31630891       8.87716586      -0.00011317       0.00016198       0.00019494
Te       3.16733784       4.31630897       5.48598951      -0.00011241       0.00016286      -0.00019719
Te       5.12523421       1.54742508       8.87716577       0.00011543      -0.00016294       0.00019836
