9
Lattice="5.428073732378201 4.424295727162573e-09 3.1338998281889716 1.8093579532949113 5.11763705559606 3.133899761797911 6.377987853274244e-08 -3.621296512456245e-08 6.2677995459079705" Properties=species:S:1:pos:R:3:forces:R:3 energy=-53.409912109375 free_energy=-53.409912109375 stress="-2.819808833010029e-05 1.5193703006843862e-07 4.623663674152567e-09 1.5193703006843862e-07 -2.8310447305557318e-05 -2.2366192453660005e-08 4.623663674152567e-09 -2.2366192453660005e-08 -2.840721390384715e-05" pbc="T T T"
Ti       1.80935693       1.27940928       3.13390014      -0.00000555       0.00000140       0.00000155
Ti       5.42807385       3.83822812       9.40169843      -0.00000182      -0.00000003      -0.00000653
Ta       0.00000028      -0.00000007      -0.00000023      -0.00000317      -0.00000508       0.00000298
S        1.93047993       1.36505532       6.26779974      -0.00079295      -0.00056216       0.00000080
S        5.30695215       3.75258156       6.26779977       0.00079989       0.00056341       0.00000243
S        4.46283416       1.36505500       4.80574368       0.00039250      -0.00055581      -0.00067770
S        2.77459808       3.75258180       7.72985545      -0.00038962       0.00055677       0.00068095
S        2.77459745       3.75258186       4.80574412      -0.00039630       0.00055739      -0.00068146
S        4.46283424       1.36505525       7.72985533       0.00039667      -0.00055608       0.00067702
