9
Lattice="5.855452201055545 -4.457648188027725e-07 3.3806468028600434 1.9518170812829827 5.520572567733354 3.380646627572678 1.9402865304326717e-07 -7.748333363670331e-08 6.761293269652837" Properties=species:S:1:pos:R:3:forces:R:3 energy=-31.31930923461914 free_energy=-31.31930923461914 stress="-8.742932550376281e-05 -1.0084983870228825e-07 -3.0953248852938486e-08 -1.0084983870228825e-07 -8.727447129786015e-05 1.0702767561099336e-08 -3.0953248852938486e-08 1.0702767561099336e-08 -8.720006007933989e-05" pbc="T T T"
Tl       1.95181725       1.38014298       3.38064662       0.00000001       0.00000038      -0.00000028
Tl       5.85545222       4.14042895      10.14193989       0.00000043       0.00000003      -0.00000002
As      -0.00000111       0.00000107       0.00000156       0.00001720      -0.00001303      -0.00001928
S        1.96041139       1.38621959       6.76129324      -0.00077295      -0.00054640      -0.00000105
S        5.84685838       4.13435333       6.76129316       0.00076663       0.00054210      -0.00000086
S        4.87524607       1.38621950       5.07841349       0.00038254      -0.00054097      -0.00066185
S        2.93202405       4.13435122       8.44417243      -0.00039500       0.00055856       0.00068444
S        2.93202353       4.13435113       5.07841324      -0.00038791       0.00054842      -0.00067347
S        4.87524634       1.38622046       8.44417373       0.00038940      -0.00054896       0.00067210
