9
Lattice="5.797894860484629 7.702042122619597e-08 3.3474163861764143 1.9326316157095758 5.466308515308919 3.3474165196613055 -1.8460971788079998e-07 3.294633099527702e-08 6.694833092106294" Properties=species:S:1:pos:R:3:forces:R:3 energy=-30.74307632446289 free_energy=-30.74307632446289 stress="-3.471987656666897e-05 2.267225518437499e-09 4.5465275988476606e-09 2.267225518437499e-09 -3.474176628515124e-05 4.813555332106034e-09 4.5465275988476606e-09 4.813555332106034e-09 -3.4802797017619014e-05" pbc="T T T"
Tl       1.93263143       1.36657692       3.34741647      -0.00000119      -0.00000120       0.00000084
Tl       5.79789488       4.09973120      10.04224934       0.00000082      -0.00000019      -0.00000060
As       0.00000064      -0.00000118       0.00000006      -0.00000193       0.00000405       0.00000049
Se       2.24124660       1.58480035       6.69483307      -0.00322738      -0.00228310      -0.00000040
Se       5.48928081       3.88150825       6.69483269       0.00322810       0.00228213       0.00000019
Se       4.67727138       1.58480094       5.28839300       0.00161424      -0.00228307      -0.00279543
Se       3.05325394       3.88150866       8.10127521      -0.00161348       0.00228280       0.00279519
Se       3.05325431       3.88150862       5.28839098      -0.00161414       0.00228228      -0.00279546
Se       4.67727111       1.58480086       8.10127337       0.00161488      -0.00228369       0.00279540
