9
Lattice="5.857202992310912 2.4802575883096314e-07 3.381657333208875 1.9524011412067022 5.522225401227287 3.3816574892167433 -3.753852160965952e-07 -7.436757912542601e-08 6.763315316603961" Properties=species:S:1:pos:R:3:forces:R:3 energy=-31.319318771362305 free_energy=-31.319318771362305 stress="-4.584062935464317e-06 1.3637025730872665e-08 4.717873647308579e-09 1.3637025730872665e-08 -4.625404926628107e-06 -3.495787126439609e-08 4.717873647308579e-09 -3.495787126439609e-08 -4.5274214244273026e-06" pbc="T T T"
Tl       1.95240147       1.38055647       3.38165800      -0.00000007      -0.00000027       0.00000042
Tl       5.85720276       4.14166911      10.14497316       0.00000003       0.00000004       0.00000015
As       0.00000042      -0.00000029      -0.00000326      -0.00001444       0.00000371       0.00002131
S        1.96044116       1.38624183       6.76331617       0.00028670       0.00020319       0.00000206
S        5.84916171       4.13598313       6.76331570      -0.00027788      -0.00019568       0.00000209
S        4.87698215       1.38624192       5.07944999      -0.00013620       0.00019246       0.00023663
S        2.93262166       4.13598337       8.44718082       0.00014812      -0.00020915      -0.00025588
S        2.93262237       4.13598415       5.07944959       0.00013924      -0.00019646       0.00024140
S        4.87698092       1.38624255       8.44718021      -0.00014436       0.00020230      -0.00024790
