9
Lattice="5.8551959869774715 -1.4515900435719983e-07 3.3804997310512817 1.9517311799562909 5.520333110592931 3.3805009068463256 -8.830233167920387e-07 8.156573019927925e-07 6.761000991543525" Properties=species:S:1:pos:R:3:forces:R:3 energy=-27.866535186767578 free_energy=-27.866535186767578 stress="-0.0003816417302004993 1.844787966831518e-08 -4.3552294215487564e-08 1.844787966831518e-08 -0.000381846766686067 3.3831259571570627e-08 -4.3552294215487564e-08 3.3831259571570627e-08 -0.00038219246198423207" pbc="T T T"
Tl       1.95173042       1.38008360       3.38050041      -0.00000186      -0.00000063      -0.00000090
Tl       5.85519597       4.14025026      10.14150105       0.00000112       0.00000135      -0.00000017
Ag       0.00000414       0.00000489      -0.00000187      -0.00001987      -0.00002395       0.00000892
Se       2.26169704       1.59926073       6.76099984      -0.00591552      -0.00418524      -0.00000142
Se       5.54522439       3.92107008       6.76100162       0.00592426       0.00419333      -0.00000142
Se       4.72434613       1.59926186       5.33918615       0.00296186      -0.00418694      -0.00513926
Se       3.08257918       3.92107156       8.18281564      -0.00295592       0.00419297       0.00513839
Se       3.08258086       3.92107109       5.33918536      -0.00295690       0.00419425      -0.00513984
Se       4.72434650       1.59926113       8.18281799       0.00296284      -0.00418515       0.00513570
