9
Lattice="4.518312737030742 4.340694787020757e-08 2.6086488460115764 1.506104247046826 4.259906107041422 2.60864891452214 1.606794648071433e-08 9.526968909106768e-08 5.217297664192724" Properties=species:S:1:pos:R:3:forces:R:3 energy=-42.88041305541992 free_energy=-42.88041305541992 stress="-0.0001836672454373911 3.0227671476978912e-09 1.890717449271051e-08 3.0227671476978912e-09 -0.00018370569159742445 5.61144446464823e-08 1.890717449271051e-08 5.61144446464823e-08 -0.00018377511878497899" pbc="T T T"
Tl       1.50610442       1.06497669       2.60864879       0.00000048       0.00000079      -0.00000022
Tl       4.51831240       3.19492984       7.82594652      -0.00000094       0.00000054      -0.00000072
As      -0.00000006       0.00000023      -0.00000015      -0.00000151      -0.00000015       0.00000471
O        1.49571337       1.05762931       5.21729736       0.00204861       0.00145030      -0.00000150
O        4.52870371       3.20227694       5.21729781      -0.00204921      -0.00144821       0.00000210
O        3.77045593       1.05762934       3.90397490      -0.00102293       0.00144446       0.00177085
O        2.25396085       3.20227682       6.53062133       0.00102538      -0.00144953      -0.00177586
O        2.25396132       3.20227717       3.90397444       0.00102490      -0.00144601       0.00177526
O        3.77045615       1.05762896       6.53062051      -0.00102460       0.00144732      -0.00177443
