9
Lattice="5.5946690415030496 1.813851880542578e-07 3.230083896077718 1.8648899505898908 5.274703920840705 3.230083724470848 2.1525885882347383e-07 -5.7963640032857235e-08 6.460167419316156" Properties=species:S:1:pos:R:3:forces:R:3 energy=-28.815900802612305 free_energy=-28.815900802612305 stress="-0.00012960925232619047 5.404476155490556e-08 -2.090262407605792e-09 5.404476155490556e-08 -0.00012961581523995847 1.3652684316411978e-08 -2.090262407605792e-09 1.3652684316411978e-08 -0.0001296976552112028" pbc="T T T"
Tl       1.86488960       1.31867593       3.23008365       0.00000044       0.00000017      -0.00000011
Tl       5.59466922       3.95602777       9.69025126      -0.00000131      -0.00000012       0.00000041
Au      -0.00000007      -0.00000021      -0.00000238       0.00000233       0.00000395       0.00002632
S        1.98513312       1.40370113       6.46016766       0.00254655       0.00180069      -0.00000392
S        5.47442686       3.87100391       6.46016836      -0.00254831      -0.00180218      -0.00000313
S        4.60210372       1.40369960       4.94925886      -0.00127324       0.00180006       0.00220290
S        2.85745555       3.87100405       7.97107708       0.00127597      -0.00180379      -0.00221241
S        2.85745525       3.87100429       4.94925889       0.00127272      -0.00180122       0.00220245
S        4.60210337       1.40369973       7.97107678      -0.00127500       0.00180230      -0.00221238
