9
Lattice="4.518487083868694 3.8877571016264723e-07 2.6087514253666 1.5061626051188266 4.26007048487804 2.608751637909693 5.295020374804095e-07 6.347253413252752e-07 5.217501933608582" Properties=species:S:1:pos:R:3:forces:R:3 energy=-42.88041305541992 free_energy=-42.88041305541992 stress="1.0772681889648084e-05 8.57267110632165e-08 8.449261912346628e-08 8.57267110632165e-08 1.0552442290645558e-05 -4.264726527480889e-08 8.449261912346628e-08 -4.264726527480889e-08 1.0972414202115033e-05" pbc="T T T"
Tl       1.50616029       1.06501656       2.60875047      -0.00000406      -0.00000424      -0.00001770
Tl       4.51848849       3.19505428       7.82625331       0.00000374       0.00000401      -0.00001381
As       0.00000080       0.00000109      -0.00000752      -0.00003266      -0.00003164       0.00012390
O        1.49581582       1.05770188       5.21750413      -0.00000584      -0.00000572       0.00001129
O        4.52882808       3.20236972       5.21750591       0.00007045       0.00005305       0.00002107
O        3.77058002       1.05770396       3.90417030       0.00003237      -0.00004900      -0.00006449
O        2.25406867       3.20237173       6.53083725      -0.00000596      -0.00002432       0.00001335
O        2.25407422       3.20236849       3.90417034      -0.00004697       0.00004727      -0.00008106
O        3.77058311       1.05770090       6.53083609      -0.00001055       0.00001049       0.00000799
