9
Lattice="5.797753897422727 3.610388106946634e-07 3.3473350306684564 1.9325847058355705 5.466175964157051 3.3473354931768844 -2.811080690880602e-07 3.676812304237704e-07 6.694670548230586" Properties=species:S:1:pos:R:3:forces:R:3 energy=-30.743080139160156 free_energy=-30.743080139160156 stress="1.5802039570189663e-06 1.3559601441670566e-08 1.3740862669919807e-08 1.3559601441670566e-08 1.5698049082857324e-06 7.722110950680872e-09 1.3740862669919807e-08 7.722110950680872e-09 1.5338275716203498e-06" pbc="T T T"
Tl       1.93258444       1.36654379       3.34733535      -0.00000009       0.00000024       0.00000067
Tl       5.79775390       4.09963257      10.04200552      -0.00000013       0.00000078       0.00000017
As       0.00000009      -0.00000118       0.00000128      -0.00000014       0.00000312      -0.00000442
Se       2.24081851       1.58449926       6.69467022       0.00181836       0.00128451       0.00000019
Se       5.48951966       3.88167804       6.69467061      -0.00181752      -0.00128542      -0.00000021
Se       4.67734511       1.58449906       5.28794054      -0.00091009       0.00128509       0.00157443
Se       3.05299375       3.88167768       8.10139992       0.00090843      -0.00128576      -0.00157273
Se       3.05299406       3.88167851       5.28794108       0.00091058      -0.00128764       0.00157580
Se       4.67734348       1.58449906       8.10139957      -0.00090952       0.00128509      -0.00157413
