9
Lattice="6.713614336666013 -9.259765452191402e-08 3.8761069148392058 2.237871382621532 6.3296560259579495 3.8761068726323042 -4.386710436863763e-08 -8.271130582573671e-08 7.752213905658354" Properties=species:S:1:pos:R:3:forces:R:3 energy=-27.882768630981445 free_energy=-27.882768630981445 stress="4.5939992560306564e-05 2.0318744020642043e-08 8.662817130300482e-09 2.0318744020642043e-08 4.594829442794435e-05 -1.2035656027364894e-08 8.662817130300482e-09 -1.2035656027364894e-08 4.5920689444756135e-05" pbc="T T T"
Tl       2.23787123       1.58241406       3.87610716      -0.00000032       0.00000060       0.00000016
Tl       6.71361441       4.74724171      11.62832058       0.00000015      -0.00000057       0.00000044
Bi       0.00000056       0.00000018      -0.00000174      -0.00000132       0.00000061       0.00000353
Te       2.52179961       1.78318189       7.75221347      -0.00625730      -0.00442511      -0.00000024
Te       6.42968487       4.54647349       7.75221332       0.00625971       0.00442570       0.00000024
Te       5.45271394       1.78318305       6.06005019       0.00312899      -0.00442572      -0.00541981
Te       3.49877055       4.54647526       9.44437847      -0.00312838       0.00442313       0.00541824
Te       3.49877214       4.54647298       6.06005051      -0.00312985       0.00442563      -0.00542039
Te       5.45271543       1.78318074       9.44437881       0.00312831      -0.00442426       0.00541793
