9
Lattice="4.589388101828913 -5.124413817630547e-08 2.6496846012956348 1.5297959862035602 4.326916798355722 2.6496846003014025 4.7270236557968344e-08 3.220741540537088e-08 5.299369120716798" Properties=species:S:1:pos:R:3:forces:R:3 energy=-40.629852294921875 free_energy=-40.629852294921875 stress="-1.6187914297915995e-05 -1.3823331812545803e-07 7.549500935510878e-08 -1.3823331812545803e-07 -1.614629218238406e-05 2.4820584476614727e-10 7.549500935510878e-08 2.4820584476614727e-10 -1.605637589818798e-05" pbc="T T T"
Tl       1.52979590       1.08172922       2.64968468       0.00000098       0.00000085      -0.00000075
Tl       4.58938797       3.24518762       7.94905391       0.00000057      -0.00000055       0.00000103
Be       0.00000014       0.00000012       0.00000054       0.00000053       0.00000029      -0.00001829
O        1.32538020       0.93718510       5.29936901       0.00083154       0.00058857      -0.00000066
O        4.79380407       3.38973162       5.29936936      -0.00083041      -0.00058869      -0.00000171
O        3.92669792       0.93718555       3.79749775      -0.00041491       0.00058746       0.00071672
O        2.19248644       3.38973099       6.80124019       0.00040582      -0.00057676      -0.00070575
O        2.19248641       3.38973110       3.79749796       0.00041345      -0.00058573       0.00071424
O        3.92669751       0.93718596       6.80124000      -0.00040744       0.00057486      -0.00070494
