9
Lattice="6.597324809586604 -7.396243751270403e-07 3.8089682170894377 2.199107985609067 6.220017183024961 3.8089675016286577 1.1821100667915188e-07 -7.926687938305231e-07 7.617936229432112" Properties=species:S:1:pos:R:3:forces:R:3 energy=-28.995878219604492 free_energy=-28.995878219604492 stress="5.499857434188016e-05 -8.807179341374649e-08 5.521330237456823e-08 -8.807179341374649e-08 5.506335946847685e-05 -4.668547504138587e-08 5.521330237456823e-08 -4.668547504138587e-08 5.509156108018942e-05" pbc="T T T"
Tl       2.19910877       1.55500431       3.80896784      -0.00000018      -0.00000020      -0.00000002
Tl       6.59732407       4.66501131      11.42690400      -0.00000004       0.00000025       0.00000034
B        0.00000122      -0.00000085       0.00000161      -0.00001293       0.00001036      -0.00002262
Te       1.88292748       1.33143013       7.61793604      -0.00181065      -0.00127911      -0.00000257
Te       6.91350502       4.88858506       7.61793677       0.00181447       0.00128419      -0.00000057
Te       5.65585991       1.33143028       5.43963300       0.00090685      -0.00128447      -0.00157364
Te       3.14057285       4.88858489       9.79623841      -0.00091171       0.00128968       0.00157488
Te       3.14057306       4.88858451       5.43963416      -0.00090805       0.00128253      -0.00157026
Te       5.65585910       1.33143313       9.79623589       0.00092231      -0.00130326       0.00159439
