9
Lattice="4.478804360632193 1.400419938282849e-07 2.585838843960927 1.4929348699628306 4.2226571646488535 2.5858389287403365 -1.9915138435826772e-07 -3.6988151359768594e-08 5.171678032862166" Properties=species:S:1:pos:R:3:forces:R:3 energy=-44.22636795043945 free_energy=-44.22636795043945 stress="-0.00030322058591991663 3.4781226077029714e-07 -4.546931222648709e-07 3.4781226077029714e-07 -0.0003034156106878072 7.503582821755117e-08 -4.546931222648709e-07 7.503582821755117e-08 -0.0003021653101313859" pbc="T T T"
Tl       1.49293483       1.05566399       2.58583939       0.00000646       0.00000854      -0.00000562
Tl       4.47880393       3.16699304       7.75751670      -0.00000433      -0.00000354       0.00000261
B        0.00000081      -0.00000014       0.00000024      -0.00001545       0.00000189      -0.00001652
O        1.23329791       0.87207447       5.17167762       0.00431553       0.00303456       0.00001096
O        4.73844049       3.35058419       5.17167872      -0.00430086      -0.00305247      -0.00001300
O        3.86215543       0.87207288       3.65390779      -0.00215742       0.00306588       0.00370848
O        2.10958373       3.35058381       6.68944713       0.00215282      -0.00305432      -0.00368413
O        2.10958332       3.35058400       3.65390716       0.00217974      -0.00306296       0.00371295
O        3.86215632       0.87207302       6.68944829      -0.00217663       0.00306216      -0.00371554
