9
Lattice="6.077473947474452 9.719094606744949e-08 3.5088312241988673 2.025824638587468 5.729897584441568 3.5088314012199233 -9.26733590086468e-08 1.5127567492572045e-07 7.01766260891265" Properties=species:S:1:pos:R:3:forces:R:3 energy=-30.106355667114258 free_energy=-30.106355667114258 stress="7.229196398839122e-06 -3.375453871967693e-08 2.1613033585055064e-09 -3.375453871967693e-08 7.227306014101487e-06 -1.879313948904837e-08 2.1613033585055064e-09 -1.879313948904837e-08 7.233121777971974e-06" pbc="T T T"
Tl       2.02582469       1.43247431       3.50883143       0.00000010       0.00000073       0.00000095
Tl       6.07747388       4.29742335      10.52649356       0.00000030       0.00000062       0.00000110
Bi      -0.00000031       0.00000022       0.00000107       0.00000135       0.00000045      -0.00000296
Se       2.40496941       1.70057095       7.01766410       0.00182544       0.00129046       0.00000183
Se       5.69832578       4.02932606       7.01766425      -0.00182924      -0.00129344       0.00000242
Se       4.87499069       1.70056943       5.59159552      -0.00091167       0.00128968       0.00158118
Se       3.22831281       4.02932393       8.44372615       0.00091624      -0.00129430      -0.00158304
Se       3.22830971       4.02932848       5.59159721       0.00091270      -0.00128968       0.00158164
Se       4.87498736       1.70057451       8.44372758      -0.00091516       0.00129552      -0.00158316
