9
Lattice="5.992947941453581 -2.3546792231252272e-07 3.4600301263936353 1.9976491010603754 5.650205424061591 3.4600301103824647 -6.997341502393897e-08 -6.908791813849303e-08 6.920060373984417" Properties=species:S:1:pos:R:3:forces:R:3 energy=-30.23918914794922 free_energy=-30.23918914794922 stress="-9.10438466235064e-05 -1.801612938834296e-07 2.7679691427806574e-08 -1.801612938834296e-07 -9.094005508814007e-05 -3.414712068661174e-08 2.7679691427806574e-08 -3.414712068661174e-08 -9.076061542145908e-05" pbc="T T T"
Tl       1.99764894       1.41255107       3.46003028       0.00000007       0.00000015      -0.00000017
Tl       5.99294746       4.23765401      10.38009076       0.00000007       0.00000000      -0.00000009
Bi       0.00000010       0.00000113       0.00000065      -0.00000086      -0.00002911      -0.00005823
S        2.01082180       1.42186573       6.92006094      -0.00178096      -0.00125766      -0.00000089
S        5.97977490       4.22833897       6.92006036       0.00179422       0.00126746      -0.00000167
S        4.98753701       1.42186524       5.20145382       0.00088838      -0.00125560      -0.00153923
S        3.00306171       4.22833725       8.63866563      -0.00091338       0.00129294       0.00158110
S        3.00306064       4.22833942       5.20145424      -0.00089656       0.00126693      -0.00155339
S        4.98753520       1.42186776       8.63866554       0.00090861      -0.00128528       0.00157261
