9
Lattice="6.5702788501388945 2.335557951930301e-07 3.7933521951005678 2.1900931192723747 6.194518441326892 3.7933522833873026 -3.9336282220300134e-08 8.0313809228478e-08 7.58670445833346" Properties=species:S:1:pos:R:3:forces:R:3 energy=-28.876235961914062 free_energy=-28.876235961914062 stress="-4.9213009333470836e-05 -5.501328814716544e-08 -3.778896306982915e-09 -5.501328814716544e-08 -4.919815546600148e-05 -4.312194334943342e-08 -3.778896306982915e-09 -4.312194334943342e-08 -4.916072794003412e-05" pbc="T T T"
Tl       2.19009293       1.54862938       3.79335226      -0.00000002      -0.00000096      -0.00000006
Tl       6.57027883       4.64588890      11.38005650      -0.00000085       0.00000003      -0.00000090
Ba       0.00000012       0.00000080      -0.00000031       0.00000164      -0.00000112       0.00000065
Se       2.67327402       1.89028988       7.58670483      -0.00385122      -0.00272294       0.00000044
Se       6.08709591       4.30422759       7.58670527       0.00384294       0.00271958       0.00000437
Se       5.23364196       1.89029092       6.10847608       0.00192598      -0.00272202      -0.00333304
Se       3.52673208       4.30422697       9.06493191      -0.00191759       0.00271948       0.00333004
Se       3.52673059       4.30422801       6.10847681      -0.00192365       0.00272329      -0.00333171
Se       5.23364130       1.89029250       9.06493229       0.00192281      -0.00271530       0.00333023
