9
Lattice="5.746214994127632 -8.318323625524846e-08 3.317578916490379 1.9154049482502689 5.417583305358856 3.3175788668954844 -6.89103187424011e-09 -6.561379202257846e-08 6.635157844916384" Properties=species:S:1:pos:R:3:forces:R:3 energy=-33.90675354003906 free_energy=-33.90675354003906 stress="-0.0004354400443844497 2.099870499705503e-08 -8.347784685724946e-09 2.099870499705503e-08 -0.0004354671109467745 -1.3900144146816729e-08 -8.347784685724946e-09 -1.3900144146816729e-08 -0.0004353962722234428" pbc="T T T"
Tl       1.91540501       1.35439581       3.31757894      -0.00000025      -0.00000059      -0.00000001
Tl       5.74621507       4.06318736       9.95273676       0.00000003       0.00000124      -0.00000027
B       -0.00000008      -0.00000005       0.00000014       0.00000416      -0.00000077      -0.00000138
S        1.62096548       1.14619576       6.63515785      -0.00339997      -0.00240374       0.00000081
S        6.04065454       4.27138745       6.63515781       0.00339550       0.00240183       0.00000032
S        4.93573220       1.14619566       4.72137615       0.00169867      -0.00240171      -0.00293952
S        2.72588773       4.27138746       8.54893940      -0.00169826       0.00240254       0.00294060
S        2.72588764       4.27138756       4.72137605      -0.00169894       0.00240338      -0.00294304
S        4.93573217       1.14619564       8.54893933       0.00169906      -0.00240201       0.00294185
