9
Lattice="6.713349175180357 5.255038666994107e-08 3.8759540901974208 2.2377831357870304 6.329406243226709 3.8759540419622898 1.3197016411328629e-07 3.4241263807268426e-08 7.751907951815797" Properties=species:S:1:pos:R:3:forces:R:3 energy=-27.88279151916504 free_energy=-27.88279151916504 stress="3.562711935956031e-05 6.781127659394315e-09 -1.275333283423663e-09 6.781127659394315e-09 3.5617820685729384e-05 3.492664824022995e-09 -1.275333283423663e-09 3.492664824022995e-09 3.5605386074166745e-05" pbc="T T T"
Tl       2.23778306       1.58235151       3.87595403       0.00000000       0.00000018       0.00000040
Tl       6.71334925       4.74705478      11.62786203       0.00000003      -0.00000008       0.00000010
Bi       0.00000064       0.00000071      -0.00000305      -0.00000144      -0.00000127       0.00000565
Te       2.52105826       1.78265738       7.75190730      -0.00065947      -0.00046596      -0.00000074
Te       6.43007298       4.54674821       7.75190762       0.00066045       0.00046706       0.00000007
Te       5.45281905       1.78265909       6.05925586       0.00033057      -0.00046758      -0.00057250
Te       3.49831162       4.54675006       9.44456221      -0.00032924       0.00046568       0.00056997
Te       3.49831364       4.54674736       6.05925597      -0.00033051       0.00046752      -0.00057289
Te       5.45282125       1.78265625       9.44456241       0.00032955      -0.00046548       0.00057010
