9
Lattice="5.159839663230319 -2.1556465662766575e-08 2.9790348796670463 1.7199465435343777 4.864743819176403 2.9790348633027874 -4.567515621927119e-08 -5.2339254290644623e-08 5.958069838445775" Properties=species:S:1:pos:R:3:forces:R:3 energy=-34.70195770263672 free_energy=-34.70195770263672 stress="-0.000113498346763663 -2.0837674696849717e-08 2.918650565675307e-08 -2.0837674696849717e-08 -0.000113545851490926 -4.1763641434044985e-09 2.918650565675307e-08 -4.1763641434044985e-09 -0.00011347956751706079" pbc="T T T"
Tl       1.71994646       1.21618626       2.97903482       0.00000009       0.00000023      -0.00000019
Tl       5.15983962       3.64855721       8.93710469      -0.00000019      -0.00000118      -0.00000025
Ba       0.00000005      -0.00000020      -0.00000020      -0.00000021       0.00000179      -0.00000179
O        2.10906385       1.49133388       5.95807004       0.00306845       0.00217007       0.00000022
O        4.77072182       3.37341011       5.95807002      -0.00306726      -0.00216922       0.00000038
O        4.10530769       1.49133385       4.80553771      -0.00153433       0.00216946       0.00265756
O        2.77447873       3.37340994       7.11060170       0.00153375      -0.00217019      -0.00265615
O        2.77447888       3.37341008       4.80553798       0.00153311      -0.00216965       0.00265586
O        4.10530757       1.49133380       7.11060155      -0.00153348       0.00216869      -0.00265582
