9
Lattice="5.781279688261342 2.598896553726091e-07 3.3378237594376263 1.9270933937583365 5.45064322143457 3.3378238991940985 1.1210673009747185e-07 2.5043752484260453e-07 6.675647324700565" Properties=species:S:1:pos:R:3:forces:R:3 energy=-31.828567504882812 free_energy=-31.828567504882812 stress="-0.00010221554839517921 -6.9746697306527494e-09 -5.037164640953051e-08 -6.9746697306527494e-09 -0.00010231124906567857 1.1339598593451683e-08 -5.037164640953051e-08 1.1339598593451683e-08 -0.00010227223538095132" pbc="T T T"
Tl       1.92709373       1.36266102       3.33782361       0.00000018      -0.00000136       0.00000049
Tl       5.78128000       4.08798288      10.01347118       0.00000084       0.00000047       0.00000027
B       -0.00000061       0.00000044       0.00000059      -0.00000192       0.00000022       0.00000008
Se       1.72190703       1.21757294       6.67564726       0.00614244       0.00434412       0.00000013
Se       5.98646583       4.23307009       6.67564770      -0.00614196      -0.00434610      -0.00000062
Se       4.92032663       1.21757291       4.82903916      -0.00307042       0.00434478       0.00531918
Se       2.78804686       4.23307048       8.52225599       0.00306973      -0.00434358      -0.00531904
Se       2.78804670       4.23307138       4.82903844       0.00307246      -0.00434463       0.00532143
Se       4.92032658       1.21757273       8.52225597      -0.00307134       0.00434621      -0.00532222
