9
Lattice="6.076753603876992 -9.005999212621452e-06 3.508421139103979 2.025580425156947 5.729211480304887 3.508413550181003 4.419699335481372e-06 -6.169295623572419e-06 7.016834623064645" Properties=species:S:1:pos:R:3:forces:R:3 energy=-30.106346130371094 free_energy=-30.106346130371094 stress="-0.00012389309995342046 -3.281291583334678e-06 -1.1262333998729446e-07 -3.281291583334678e-06 -0.00012171396519988775 1.762297046070671e-07 -1.1262333998729446e-07 1.762297046070671e-07 -0.00011999778507743031" pbc="T T T"
Tl       2.02558856       1.43230478       3.50841635       0.00000008       0.00000107       0.00000715
Tl       6.07674757       4.29689679      10.52526242       0.00000382       0.00000256       0.00000225
Bi       0.00000037       0.00002164       0.00004975       0.00000166      -0.00010834      -0.00024959
Se       2.40504290       1.70060707       7.01683940      -0.00418669      -0.00293957       0.00006103
Se       5.69727488       4.02856436       7.01683617       0.00414996       0.00295758       0.00006163
Se       4.87422050       1.70062784       5.59126871       0.00216311      -0.00302702      -0.00369483
Se       3.22815796       4.02852409       8.44234804      -0.00210594       0.00300977       0.00372733
Se       3.22812576       4.02856635       5.59127223      -0.00215357       0.00307982      -0.00367752
Se       4.87419543       1.70067035       8.44238203       0.00212760      -0.00297582       0.00376250
