9
Lattice="7.065266613861059 -6.9663000117482e-08 4.079133533724042 2.355088838102081 6.661197032907847 4.0791334774429115 4.630561478382262e-08 -3.618703668464575e-08 8.158266987244346" Properties=species:S:1:pos:R:3:forces:R:3 energy=-27.88593864440918 free_energy=-27.88593864440918 stress="-6.278853106778115e-05 8.318474797874842e-09 -6.646666772525123e-09 8.318474797874842e-09 -6.279085937421769e-05 4.1356860158714426e-09 -6.646666772525123e-09 4.1356860158714426e-09 -6.280060188146308e-05" pbc="T T T"
Tl       2.35508881       1.66529930       4.07913352       0.00000006       0.00000002      -0.00000018
Tl       7.06526668       4.99589758      12.23740050       0.00000033       0.00000022       0.00000040
Ba      -0.00000010      -0.00000001       0.00000025      -0.00000018      -0.00000074      -0.00000056
Te       2.78495651       1.96926166       8.15826702      -0.00164872      -0.00116570       0.00000004
Te       6.63539904       4.69193546       8.15826707       0.00164942       0.00116578       0.00000040
Te       5.67278833       1.96926158       6.49097655       0.00082392      -0.00116536      -0.00142710
Te       3.74756718       4.69193528       9.82555722      -0.00082446       0.00116559       0.00142806
Te       3.74756716       4.69193524       6.49097654      -0.00082428       0.00116507      -0.00142764
Te       5.67278842       1.96926160       9.82555739       0.00082393      -0.00116489       0.00142660
