9
Lattice="6.404096234942565 1.551345378952203e-08 3.6974067000221744 2.1346987395576265 6.037840331003198 3.6974067347488946 4.34583164051647e-08 7.326102217417557e-08 7.394813324772369" Properties=species:S:1:pos:R:3:forces:R:3 energy=-29.091615676879883 free_energy=-29.091615676879883 stress="2.4913444576668553e-05 4.60511948574549e-08 -2.3681179683876508e-08 4.60511948574549e-08 2.4809382011881098e-05 6.301995814084194e-09 -2.3681179683876508e-08 6.301995814084194e-09 2.4905248210416175e-05" pbc="T T T"
Tl       2.13469854       1.50945986       3.69740681      -0.00000122      -0.00000156       0.00000142
Tl       6.40409634       4.52838047      11.09221990       0.00000078       0.00000140      -0.00000061
Ba       0.00000012      -0.00000018       0.00000072       0.00000110      -0.00000013      -0.00000337
S        2.58032595       1.82456551       7.39481262      -0.00016380      -0.00011697      -0.00000054
S        5.95846912       4.21327448       7.39481351       0.00016468       0.00011932       0.00000134
S        5.11393323       1.82456521       5.93203455       0.00008210      -0.00012122      -0.00014342
S        3.42486155       4.21327609       8.85759214      -0.00008213       0.00011935       0.00014080
S        3.42486129       4.21327527       5.93203482      -0.00008429       0.00011894      -0.00013974
S        5.11393391       1.82456502       8.85759197       0.00008276      -0.00011910       0.00014404
