9
Lattice="6.635222947208834 2.42015985274473e-06 3.830851235885171 2.2117432997811886 6.255736170114023 3.8308511741721163 -2.3380115030592382e-07 -2.409048604776095e-07 7.661702876725723" Properties=species:S:1:pos:R:3:forces:R:3 energy=-27.428451538085938 free_energy=-27.428451538085938 stress="-9.440813300898299e-06 -2.475930216405686e-07 3.2289396045825924e-08 -2.475930216405686e-07 -7.675183042010758e-06 -4.784746820973851e-09 3.2289396045825924e-08 -4.784746820973851e-09 -1.0273204679833725e-05" pbc="T T T"
Tl       2.21174180       1.56393654       3.83085121       0.00000130       0.00000332       0.00000030
Tl       6.63522424       4.69180171      11.49255374      -0.00000140      -0.00000359       0.00000061
Be       0.00000084       0.00000057      -0.00000178      -0.00001499      -0.00000641       0.00001854
Te       1.88821304       1.33514954       7.66170324       0.00101645       0.00066376      -0.00000064
Te       6.95875156       4.92058861       7.66170328      -0.00100245      -0.00065279       0.00000225
Te       5.69112078       1.33514190       5.46610069      -0.00049045       0.00063482       0.00089832
Te       3.15584505       4.92059564       9.85730505       0.00049655      -0.00064723      -0.00091033
Te       3.15584544       4.92059591       5.46610111       0.00048823      -0.00063637       0.00089711
Te       5.69112151       1.33514306       9.85730455      -0.00049330       0.00064451      -0.00090618
