9
Lattice="6.2327553055646 -2.3672717944441986e-07 3.5984830903558964 2.077585028264777 5.876297558936247 3.598482831243629 2.5545326472605055e-07 -1.3671344127303075e-07 7.196965738252531" Properties=species:S:1:pos:R:3:forces:R:3 energy=-31.33233642578125 free_energy=-31.33233642578125 stress="5.9017809689976275e-05 7.769156695758284e-08 -2.1818351569891092e-08 7.769156695758284e-08 5.896245420444757e-05 -1.906702529197446e-08 -2.1818351569891092e-08 -1.906702529197446e-08 5.889564272365533e-05" pbc="T T T"
Tl       2.07758548       1.46907464       3.59848244      -0.00000103      -0.00000051       0.00000088
Tl       6.23275535       4.40722267      10.79544905      -0.00000028       0.00000034      -0.00000187
Co       0.00000060       0.00000010      -0.00000116       0.00000042      -0.00000448       0.00001413
Te       2.00922204       1.42073328       7.19696555       0.00016118       0.00011399      -0.00000010
Te       6.30111964       4.45556419       7.19696459      -0.00015968      -0.00011186      -0.00000022
Te       5.22814520       1.42073321       5.33851830      -0.00008162       0.00011577       0.00013981
Te       3.08219391       4.45556493       9.05541366       0.00008426      -0.00011795      -0.00014546
Te       3.08219508       4.45556424       5.33851923       0.00008142      -0.00011480       0.00014024
Te       5.22814502       1.42073129       9.05541514      -0.00008468       0.00011952      -0.00014741
