9
Lattice="6.243864613184297 -6.495903394251577e-07 3.604897404599108 2.0812877269040406 5.8867718174569 3.604897170860799 6.016162642838559e-08 -2.43729061696538e-07 7.209794704995229" Properties=species:S:1:pos:R:3:forces:R:3 energy=-28.767229080200195 free_energy=-28.767229080200195 stress="-9.013573435368016e-05 9.639861531240967e-08 -2.2713177116884253e-08 9.639861531240967e-08 -9.018440323416144e-05 4.992723745544936e-08 -2.2713177116884253e-08 4.992723745544936e-08 -9.029476495925337e-05" pbc="T T T"
Tl       2.08128808       1.47169277       3.60489717      -0.00000039       0.00000034       0.00000026
Tl       6.24386436       4.41507831      10.81469185      -0.00000051       0.00000017       0.00000112
Ca       0.00000014      -0.00000026      -0.00000014       0.00000227      -0.00000141      -0.00000267
Se       2.45038057       1.73267915       7.20979322      -0.00390144      -0.00276433      -0.00000560
Se       5.87477197       4.15408917       7.20979300       0.00390277       0.00275256      -0.00000648
Se       5.01867354       1.73268212       5.72699095       0.00194698      -0.00275059      -0.00337135
Se       3.30647571       4.15409417       8.69260388      -0.00195953       0.00277132       0.00339466
Se       3.30647840       4.15409126       5.72698596      -0.00194876       0.00275911      -0.00339010
Se       5.01867683       1.73267698       8.69260121       0.00195859      -0.00276715       0.00338016
