9
Lattice="4.554011149678353 -5.3458098648774946e-08 2.6292592654158655 1.5180036480544838 4.293562826223317 2.6292592967731623 -5.3876704728148675e-08 3.082307478538804e-10 5.258518624148864" Properties=species:S:1:pos:R:3:forces:R:3 energy=-41.49399948120117 free_energy=-41.49399948120117 stress="3.468754221103154e-05 -5.790713686337767e-08 2.4018948607817947e-08 -5.790713686337767e-08 3.462218592176214e-05 -1.7273803720740943e-08 2.4018948607817947e-08 -1.7273803720740943e-08 3.470998126431368e-05" pbc="T T T"
Tl       1.51800379       1.07339057       2.62925926       0.00000080      -0.00000019       0.00000047
Tl       4.55401155       3.22017202       7.88777773       0.00000037       0.00000008       0.00000136
Co      -0.00000013       0.00000002       0.00000046      -0.00000037      -0.00000036      -0.00000355
O        1.47493449       1.04293631       5.25851860      -0.00013417      -0.00009349      -0.00000013
O        4.59708012       3.25062659       5.25851828       0.00013179       0.00009376       0.00000025
O        3.81654344       1.04293631       3.90659056       0.00006720      -0.00009546      -0.00011712
O        2.25547085       3.25062661       6.61044672      -0.00006557       0.00009510       0.00011611
O        2.25547075       3.25062658       3.90659020      -0.00006822       0.00009486      -0.00011563
O        3.81654368       1.04293618       6.61044669       0.00006801      -0.00009421       0.00011802
