9
Lattice="6.576693028597178 -5.634420290837223e-08 3.7970546232394558 2.1922310642867524 6.200564822005019 3.797054436392341 4.5771683298301416e-08 -1.9647451634276298e-07 7.594109167199829" Properties=species:S:1:pos:R:3:forces:R:3 energy=-24.437610626220703 free_energy=-24.437610626220703 stress="-3.3707558486639755e-06 9.961372837707927e-10 -2.0053631644145753e-08 9.961372837707927e-10 -3.5126699913234916e-06 -4.42065095640487e-09 -2.0053631644145753e-08 -4.42065095640487e-09 -3.291107759650913e-06" pbc="T T T"
Tl       2.19223127       1.55014044       3.79705513      -0.00000023      -0.00000007       0.00000001
Tl       6.57669272       4.65042460      11.39116345       0.00000011       0.00000011      -0.00000002
Cd      -0.00000233       0.00000086       0.00000067       0.00000617      -0.00000266      -0.00000228
Te       2.46159845       1.74060775       7.59410835      -0.00083467      -0.00059044      -0.00000109
Te       6.30732778       4.45995719       7.59410945       0.00082813       0.00058905      -0.00000024
Te       5.34589470       1.74060871       5.92886195       0.00041464      -0.00058796      -0.00071764
Te       3.42302968       4.45995408       9.25935640      -0.00041619       0.00059155       0.00071800
Te       3.42302869       4.45995498       5.92886070      -0.00041547       0.00059013      -0.00071649
Te       5.34589564       1.74060966       9.25935673       0.00041752      -0.00058977       0.00071985
