9
Lattice="5.976980281054871 -1.5468380932537665e-07 3.4508109525903734 1.9923267060987067 5.635151006363048 3.4508107939615265 5.031866602853337e-07 1.6152679240606003e-07 6.901621033635951" Properties=species:S:1:pos:R:3:forces:R:3 energy=-26.23935317993164 free_energy=-26.23935317993164 stress="4.0437316783936694e-05 3.539663850915531e-08 -1.9848886267936905e-07 3.539663850915531e-08 4.087093111593276e-05 -5.620959342422793e-08 -1.9848886267936905e-07 -5.620959342422793e-08 4.065125176566653e-05" pbc="T T T"
Tl       1.99232739       1.40878943       3.45081000      -0.00000023      -0.00000326       0.00000046
Tl       5.97698070       4.22636210      10.35242980      -0.00000053       0.00000099       0.00000290
Cd      -0.00000611      -0.00000380       0.00000896       0.00002267       0.00001404      -0.00003224
Se       2.35295477       1.66379402       6.90161879       0.00176096       0.00125676      -0.00000450
Se       5.61635844       3.97135999       6.90162247      -0.00176741      -0.00125773       0.00001103
Se       4.80050220       1.66378816       5.48852856      -0.00088942       0.00124784       0.00153980
Se       3.16880547       3.97135894       8.31471407       0.00087855      -0.00125556      -0.00152561
Se       3.16880036       3.97136145       5.48852495       0.00087219      -0.00125752       0.00153437
Se       4.80050666       1.66379227       8.31471291      -0.00087680       0.00125442      -0.00152613
