9
Lattice="5.779958802688592 -2.5401074241325024e-08 3.3370605255704313 1.9266528461489425 5.449396405829481 3.3370606366506426 -2.440535454233883e-07 -3.6526878913276735e-08 6.674121473853746" Properties=species:S:1:pos:R:3:forces:R:3 energy=-33.16580581665039 free_energy=-33.16580581665039 stress="0.00011855050252052024 -5.66778890487285e-09 1.320436315843665e-09 -5.66778890487285e-09 0.00011858549987664446 1.2507858748733724e-08 1.320436315843665e-09 1.2507858748733724e-08 0.0001185275541502051" pbc="T T T"
Tl       1.92665292       1.36234900       3.33706050      -0.00000041      -0.00000221       0.00000105
Tl       5.77995854       4.08704742      10.01118179      -0.00000260       0.00000201       0.00000019
Co      -0.00000029      -0.00000192       0.00000150       0.00000386       0.00001029      -0.00000729
Se       1.90719121       1.34858938       6.67412153       0.00685623       0.00484584       0.00000052
Se       5.79942079       4.10080843       6.67412145      -0.00685984      -0.00485095       0.00000033
Se       4.82636271       1.34858922       4.98873663      -0.00342803       0.00484729       0.00593922
Se       2.88024703       4.10080786       8.35950491       0.00342971      -0.00484883      -0.00593711
Se       2.88024898       4.10080806       4.98873648       0.00342949      -0.00485078       0.00594041
Se       4.82636367       1.34858801       8.35950561      -0.00342847       0.00484738      -0.00593737
