9
Lattice="6.287060778624677 2.7249518972471393e-07 3.6298370366380976 2.0956869670920373 5.927498824552851 3.6298374108079168 -2.778647786260863e-07 2.617825905414815e-07 7.259674554552211" Properties=species:S:1:pos:R:3:forces:R:3 energy=-33.653831481933594 free_energy=-33.653831481933594 stress="-6.454651884268969e-05 2.9596920469998622e-08 -1.9995509248360577e-08 2.9596920469998622e-08 -6.457635754486546e-05 1.8376391963670358e-08 -1.9995509248360577e-08 1.8376391963670358e-08 -6.452423986047506e-05" pbc="T T T"
Tl       2.09568712       1.48187496       3.62983689       0.00000274       0.00000147       0.00000009
Tl       6.28706042       4.44562435      10.88951217      -0.00000171      -0.00000095      -0.00000038
Cr      -0.00000085      -0.00000062       0.00000022       0.00000298       0.00000085       0.00000033
Te       2.20699129       1.56057891       7.25967405      -0.00454271      -0.00321256       0.00000017
Te       6.17575549       4.36691995       7.25967441       0.00454353       0.00321319       0.00000046
Te       5.18356687       1.56057777       5.54115030       0.00226947      -0.00321297      -0.00393638
Te       3.19918136       4.36692240       8.97819893      -0.00227124       0.00321062       0.00393658
Te       3.19918121       4.36692207       5.54115031      -0.00227107       0.00320955      -0.00393466
Te       5.18356685       1.56057768       8.97819872       0.00226797      -0.00320917       0.00393384
