9
Lattice="5.5230731753898965 3.453102312563737e-07 3.188747085366722 1.841024609292606 5.207203862396861 3.1887472725417436 -4.7763916747683285e-08 1.9546768140603532e-07 6.377494253462935" Properties=species:S:1:pos:R:3:forces:R:3 energy=-35.66950988769531 free_energy=-35.66950988769531 stress="-0.00027381558902561665 4.932551700420618e-09 -1.0889963597549013e-08 4.932551700420618e-09 -0.00027377449441701174 -1.6193054008795116e-08 -1.0889963597549013e-08 -1.6193054008795116e-08 -0.0002737965842243284" pbc="T T T"
Tl       1.84102420       1.30180138       3.18874716       0.00000083      -0.00000066       0.00000036
Tl       5.52307316       3.90540311       9.56624168       0.00000004      -0.00000040       0.00000139
Co       0.00000058       0.00000019      -0.00000079      -0.00000184      -0.00000047       0.00000188
S        1.77926135       1.25812864       6.37749456       0.00713372       0.00504392      -0.00000126
S        5.58483646       3.94907624       6.37749533      -0.00713366      -0.00504306      -0.00000233
S        4.63344294       1.25812758       4.72963208      -0.00356832       0.00504640       0.00617841
S        2.73065586       3.94907602       8.02535601       0.00356695      -0.00504395      -0.00617900
S        2.73065447       3.94907616       4.72963238       0.00356880      -0.00504497       0.00617808
S        4.63344199       1.25812850       8.02535564      -0.00356644       0.00504315      -0.00617778
