9
Lattice="6.241290084821272 -2.220594854512587e-06 3.603412922817337 2.0804274613950104 5.884340163145592 3.6034137425650092 -1.3542420432096208e-06 4.6388605485062446e-08 7.20682819125044" Properties=species:S:1:pos:R:3:forces:R:3 energy=-27.386829376220703 free_energy=-27.386829376220703 stress="3.455438854871318e-05 -9.118210897440804e-08 2.992959835523834e-08 -9.118210897440804e-08 3.4461951145203784e-05 4.544305198805887e-08 2.992959835523834e-08 4.544305198805887e-08 3.4173503081547096e-05" pbc="T T T"
Tl       2.08042343       1.47108495       3.60341227      -0.00000780      -0.00000552       0.00000290
Tl       6.24129043       4.41325275      10.81024163       0.00000136      -0.00000613      -0.00000244
Cu       0.00000442       0.00000482       0.00000012      -0.00000643      -0.00000693       0.00000062
Te       2.23224888       1.57843384       7.20682761       0.00016523       0.00011452       0.00000029
Te       6.08948221       4.30590899       7.20682403      -0.00017957      -0.00011727      -0.00000015
Te       5.12515838       1.57842727       5.53659221      -0.00007988       0.00012756       0.00013477
Te       3.19655125       4.30590695       8.87706785       0.00009470      -0.00011794      -0.00014130
Te       3.19655075       4.30590470       5.53658534       0.00009396      -0.00011534       0.00014247
Te       5.12515417       1.57842745       8.87706844      -0.00008156       0.00012704      -0.00013717
