9
Lattice="4.726477393664822 1.9070903026535395e-07 2.728832699580599 1.5754924793525644 4.456166132769044 2.728832985376815 -2.1313983038290837e-07 1.9931490086774054e-07 5.457665768330163" Properties=species:S:1:pos:R:3:forces:R:3 energy=-32.46802520751953 free_energy=-32.46802520751953 stress="8.845325646689162e-05 -2.3036501772821794e-07 1.4519797275625024e-07 -2.3036501772821794e-07 8.868386794347316e-05 -8.283403474251827e-08 1.4519797275625024e-07 -8.283403474251827e-08 8.89343791641295e-05" pbc="T T T"
Tl       1.57549324       1.11404077       2.72883396       0.00000218       0.00000215       0.00000347
Tl       4.72647610       3.34212504       8.18649796      -0.00000386       0.00000292      -0.00000303
Cd      -0.00000029       0.00000239       0.00000004       0.00000481      -0.00004089      -0.00000233
O        1.74004528       1.23039771       5.45766546      -0.00136244      -0.00096422       0.00000040
O        4.56192391       3.22576861       5.45766536       0.00137645       0.00097406      -0.00000293
O        3.85645318       1.23039862       4.23575688       0.00068195      -0.00096875      -0.00118694
O        2.44551742       3.22576707       6.67957446      -0.00069064       0.00098357       0.00120679
O        2.44551569       3.22576624       4.23575860      -0.00069921       0.00098506      -0.00120673
O        3.85645375       1.23039983       6.67957318       0.00069085      -0.00097409       0.00119132
