9
Lattice="5.4428316567707755 -2.9373406685388854e-08 3.142420045210614 1.8142770320547361 5.131552368113839 3.1424203209103845 -1.6755853513149793e-07 2.191800684697819e-07 6.284840380641078" Properties=species:S:1:pos:R:3:forces:R:3 energy=-29.81064224243164 free_energy=-29.81064224243164 stress="-0.0004639615654014051 1.1364345908759788e-08 3.5406362286494186e-08 1.1364345908759788e-08 -0.0004639925609808415 2.537273280367458e-09 3.5406362286494186e-08 2.537273280367458e-09 -0.0004639315593522042" pbc="T T T"
Tl       1.81427736       1.28288806       3.14241959       0.00000153       0.00000139       0.00000140
Tl       5.44283066       3.84866418       9.42726012       0.00000053       0.00000107      -0.00000041
Cu      -0.00000032      -0.00000065      -0.00000069       0.00000385       0.00000528       0.00000564
S        1.87859461       1.32836819       6.28484073       0.00833815       0.00589657      -0.00000114
S        5.37851386       3.80318518       6.28484003      -0.00834012      -0.00589794       0.00000041
S        4.50353476       1.32836790       4.76933127      -0.00416955       0.00589293       0.00722113
S        2.75357355       3.80318542       7.80035017       0.00416934      -0.00589865      -0.00722301
S        2.75357497       3.80318489       4.76933195       0.00416708      -0.00589657       0.00722045
S        4.50353456       1.32836758       7.80034981      -0.00417084       0.00589600      -0.00722453
