9
Lattice="5.955937014638522 -2.9807714574823217e-07 3.4386616683730327 1.9853120388882937 5.6153114517358445 3.4386617000604915 -2.3834311167427474e-07 -1.2972501432094997e-07 6.877323749568417" Properties=species:S:1:pos:R:3:forces:R:3 energy=-25.537715911865234 free_energy=-25.537715911865234 stress="7.53919521230273e-05 5.438080918906962e-08 5.107383671543175e-08 5.438080918906962e-08 7.532022573286667e-05 1.7403163354856588e-08 5.107383671543175e-08 1.7403163354856588e-08 7.531952724093571e-05" pbc="T T T"
Tl       1.98531233       1.40382770       3.43866141       0.00000033      -0.00000005      -0.00000004
Tl       5.95593646       4.21148323      10.31598544       0.00000009      -0.00000003       0.00000031
Cd      -0.00000015      -0.00000001       0.00000039       0.00000157      -0.00000034      -0.00000089
S        2.28982934       1.61915282       6.87732431       0.00244649       0.00172818       0.00000451
S        5.65141920       3.99615736       6.87732368      -0.00244607      -0.00172831       0.00000182
S        4.81102267       1.61915351       5.42171058      -0.00122068       0.00172494       0.00211276
S        3.13022502       3.99615872       8.33293628       0.00121582      -0.00172488      -0.00211486
S        3.13022719       3.99615817       5.42171071       0.00122323      -0.00172578       0.00211310
S        4.81102316       1.61915252       8.33293554      -0.00122074       0.00172634      -0.00211665
