9
Lattice="5.456144134285148 1.8840659392957475e-07 3.15010632908901 1.8187149423825502 5.144103699950746 3.1501062367312986 2.942083083193034e-07 9.492224192784724e-08 6.300212148594242" Properties=species:S:1:pos:R:3:forces:R:3 energy=-38.064796447753906 free_energy=-38.064796447753906 stress="-5.8736757637234405e-05 3.698299266829963e-08 1.1023221446748721e-08 3.698299266829963e-08 -5.88316070206929e-05 -3.9766508308503035e-08 1.1023221446748721e-08 -3.9766508308503035e-08 -5.8765952417161316e-05" pbc="T T T"
Tl       1.81871470       1.28602596       3.15010615       0.00000075       0.00000215      -0.00000133
Tl       5.45614464       3.85807782       9.45031870      -0.00000038      -0.00000397       0.00000153
Cr       0.00000156       0.00000173      -0.00000011      -0.00000649      -0.00000071      -0.00000060
S        1.83544290       1.29785218       6.30021253       0.00186786       0.00132295       0.00000089
S        5.43941726       3.84625126       6.30021271      -0.00186372      -0.00131726      -0.00000049
S        4.53842322       1.29785240       4.73964482      -0.00093369       0.00132307       0.00161657
S        2.73643488       3.84625158       7.86078029       0.00093471      -0.00132412      -0.00162053
S        2.73643472       3.84625045       4.73964442       0.00093436      -0.00132269       0.00161862
S        4.53842364       1.29785256       7.86077952      -0.00093322       0.00132057      -0.00161466
