9
Lattice="4.838652996943988 -1.3107789073734856e-08 2.7935975999359632 1.6128843328163067 4.561925887462512 2.7935975776621707 -5.664282878379043e-08 -6.733225094220929e-08 5.587195297980175" Properties=species:S:1:pos:R:3:forces:R:3 energy=-36.65068435668945 free_energy=-36.65068435668945 stress="-0.0001597298396518454 -1.5653615292876566e-08 5.044456852232315e-09 -1.5653615292876566e-08 -0.00015973576228134334 -2.308170010678623e-08 5.044456852232315e-09 -2.308170010678623e-08 -0.00015975089627318084" pbc="T T T"
Tl       1.61288415       1.14048147       2.79359745      -0.00000091       0.00000071      -0.00000052
Tl       4.83865292       3.42144408       8.38079278       0.00000066      -0.00000066      -0.00000081
Ca      -0.00000002       0.00000018      -0.00000015      -0.00000019      -0.00000090       0.00000028
O        1.83972960       1.30088538       5.58719524      -0.00252041      -0.00178218       0.00000016
O        4.61180775       3.26104074       5.58719545       0.00252050       0.00178286       0.00000078
O        3.91878843       1.30088529       4.38685055       0.00126077      -0.00178257      -0.00218281
O        2.53274885       3.26104020       6.78754045      -0.00126044       0.00178124       0.00218359
O        2.53274897       3.26104039       4.38685014      -0.00126185       0.00178438      -0.00218414
O        3.91878835       1.30088552       6.78753999       0.00126198      -0.00178279       0.00218379
