9
Lattice="5.715244200437888 3.55277257193038e-07 3.299698283018149 1.9050816591513762 5.388384860261205 3.299698414572892 -1.0444873053848142e-07 8.726456821650191e-08 6.599396746946803" Properties=species:S:1:pos:R:3:forces:R:3 energy=-29.04840850830078 free_energy=-29.04840850830078 stress="-0.0002474898938089609 -5.157843219194547e-08 -1.7988185163630988e-08 -5.157843219194547e-08 -0.0002476356748957187 -1.4910668255652126e-09 -1.7988185163630988e-08 -1.4910668255652126e-09 -0.00024768165894784033" pbc="T T T"
Tl       1.90508099       1.34709647       3.29969848      -0.00000062       0.00000135      -0.00000147
Tl       5.71524498       4.04128905       9.89909510       0.00000277       0.00000023      -0.00000239
Cu       0.00000044       0.00000194       0.00000033      -0.00000128      -0.00000362      -0.00000071
Se       2.16786408       1.53291080       6.59939680      -0.00439489      -0.00310848       0.00000010
Se       5.45245904       3.85547275       6.59939663       0.00439495       0.00310947       0.00000090
Se       4.63131186       1.53291288       5.17712366       0.00219664      -0.00310739      -0.00380686
Se       2.98901559       3.85547225       8.02166856      -0.00219661       0.00310834       0.00380921
Se       2.98901503       3.85547253       5.17712433      -0.00219734       0.00310787      -0.00380675
Se       4.63131100       1.53291262       8.02166985       0.00219639      -0.00310776       0.00380801
