9
Lattice="6.80270937301254 -5.5426903195822546e-08 3.927545973294558 2.2675697336111167 6.413655917137947 3.927545982190451 4.3969159795611075e-09 1.4004262469919653e-08 7.855091938973419" Properties=species:S:1:pos:R:3:forces:R:3 energy=-27.7276611328125 free_energy=-27.7276611328125 stress="-1.5907191482256167e-05 -5.543547398900728e-09 3.5482750071480496e-09 -5.543547398900728e-09 -1.589567182236351e-05 -9.791911725898217e-10 3.5482750071480496e-09 -9.791911725898217e-10 -1.59038227138808e-05" pbc="T T T"
Tl       2.26756971       1.60341397       3.92754583       0.00000017       0.00000014       0.00000010
Tl       6.80270933       4.81024184      11.78263790      -0.00000004      -0.00000004      -0.00000047
Ca       0.00000011      -0.00000006       0.00000098      -0.00000048      -0.00000002      -0.00000303
Te       2.59645821       1.83597330       7.85509172      -0.00010571      -0.00007446       0.00000056
Te       6.47382137       4.57768301       7.85509147       0.00010376       0.00007330       0.00000071
Te       5.50448038       1.83597315       6.17614461       0.00005337      -0.00007441      -0.00009013
Te       3.56579860       4.57768248       9.53403904      -0.00005165       0.00007397       0.00009118
Te       3.56579868       4.57768272       6.17614471      -0.00005249       0.00007522      -0.00009019
Te       5.50448009       1.83597312       9.53403925       0.00005307      -0.00007372       0.00009130
