9
Lattice="4.3964809279301305 -8.764095351060541e-08 2.538309661098933 1.4654936122431717 4.145042164358943 2.5383095706364744 4.808893457610848e-09 -1.0739302542958136e-07 5.076619313868609" Properties=species:S:1:pos:R:3:forces:R:3 energy=-42.59424591064453 free_energy=-42.59424591064453 stress="-0.0002963534207083285 4.50659136674858e-08 6.535845198385459e-09 4.50659136674858e-08 -0.00029636587714776397 -4.1352564039698336e-08 6.535845198385459e-09 -4.1352564039698336e-08 -0.00029650484793819487" pbc="T T T"
Tl       1.46549367       1.03626070       2.53830961       0.00000311       0.00000331      -0.00000048
Tl       4.39648103       3.10878183       7.61492884       0.00000032       0.00000182       0.00000131
C       -0.00000125      -0.00000346       0.00000034      -0.00000198      -0.00000361       0.00000030
O        1.25494783       0.88738257       5.07661952      -0.00121880      -0.00085723      -0.00000271
O        4.60702774       3.25766031       5.07661944       0.00121748       0.00086176      -0.00000390
O        3.76900695       0.88738215       3.62512609       0.00060952      -0.00085711      -0.00105524
O        2.09296767       3.25766074       6.52811282      -0.00061244       0.00086129       0.00105047
O        2.09296769       3.25766081       3.62512561      -0.00060886       0.00085688      -0.00105071
O        3.76900698       0.88738251       6.52811189       0.00061285      -0.00086606       0.00105977
