9
Lattice="5.806409884306992 -1.4446650883331397e-08 3.3523326065692487 1.9354700102972457 5.474335753296311 3.352332498347321 9.10201133925481e-08 -6.818337894399099e-08 6.704665055486986" Properties=species:S:1:pos:R:3:forces:R:3 energy=-35.838829040527344 free_energy=-35.838829040527344 stress="-8.588105265516788e-05 5.918660406223353e-08 -7.448706540458261e-09 5.918660406223353e-08 -8.587418415118009e-05 -6.23418117129404e-08 -7.448706540458261e-09 -6.23418117129404e-08 -8.598090789746493e-05" pbc="T T T"
Tl       1.93547000       1.36858389       3.35233290      -0.00000121       0.00000227      -0.00000108
Tl       5.80641020       4.10575159      10.05699765      -0.00000098       0.00000050       0.00000059
Cr      -0.00000023      -0.00000200      -0.00000279       0.00000014       0.00000786       0.00001262
Se       2.01804757       1.42697481       6.70466551      -0.00211248      -0.00149369      -0.00000097
Se       5.72383231       4.04736118       6.70466567       0.00211003       0.00149025      -0.00000020
Se       4.79738610       1.42697459       5.10001156       0.00105671      -0.00149255      -0.00182783
Se       2.94449318       4.04736206       8.30931847      -0.00105140       0.00148560       0.00181976
Se       2.94449406       4.04736148       5.10001299      -0.00105538       0.00149173      -0.00182854
Se       4.79738676       1.42697499       8.30931868       0.00105461      -0.00149196       0.00182560
