9
Lattice="5.9078693485928255 -5.975935853377502e-07 3.4109102969744876 1.9692893893432148 5.569992002615696 3.4109100027068506 7.307703503138795e-08 -3.0872960022128383e-07 6.821820467375887" Properties=species:S:1:pos:R:3:forces:R:3 energy=-35.65410232543945 free_energy=-35.65410232543945 stress="-1.9578983483370394e-05 -1.991168261383791e-07 6.062625601543914e-08 -1.991168261383791e-07 -1.942436210811138e-05 -7.079993480374469e-08 6.062625601543914e-08 -7.079993480374469e-08 -1.9261806301074103e-05" pbc="T T T"
Tl       1.96928962       1.39249783       3.41091028       0.00000071      -0.00000041      -0.00000055
Tl       5.90786917       4.17749350      10.23273060      -0.00000102      -0.00000011      -0.00000056
Fe      -0.00000032       0.00000010       0.00000048       0.00000678      -0.00000376      -0.00001516
Se       1.86258155       1.31704411       6.82182065       0.00022021       0.00015518       0.00000010
Se       6.01457735       4.25294707       6.82182035      -0.00022265      -0.00015652       0.00000005
Se       4.97657780       1.31704378       5.02395427      -0.00010735       0.00015143       0.00018534
Se       2.90058125       4.25294644       8.61968600       0.00010109      -0.00014263      -0.00017428
Se       2.90058102       4.25294686       5.02395439       0.00010176      -0.00014371       0.00017640
Se       4.97657763       1.31704435       8.61968634      -0.00009958       0.00014088      -0.00017157
