9
Lattice="4.562489670615375 -4.1771343612104366e-08 2.6341546078938505 1.5208299048635943 4.3015563917958275 2.634154514292211 5.9040126924567536e-08 -7.289041487722339e-08 5.268309113527237" Properties=species:S:1:pos:R:3:forces:R:3 energy=-42.569358825683594 free_energy=-42.569358825683594 stress="9.597803000360727e-05 5.324912777382451e-08 3.2714776665443424e-08 5.324912777382451e-08 9.598449832992628e-05 -2.9428244729956532e-08 3.2714776665443424e-08 -2.9428244729956532e-08 9.59180761128664e-05" pbc="T T T"
Tl       1.52083004       1.07538918       2.63415496      -0.00000011       0.00000039       0.00000006
Tl       4.56248955       3.22616733       7.90246469       0.00000010      -0.00000038      -0.00000074
Fe       0.00000015      -0.00000001       0.00000008      -0.00000246      -0.00000115       0.00000011
O        1.48433527       1.04958360       5.26830884      -0.00271781      -0.00192052       0.00000146
O        4.59898428       3.25197242       5.26830871       0.00271953       0.00192280       0.00000177
O        3.82032200       1.04958305       3.91962590       0.00135638      -0.00191955      -0.00234842
O        2.26299742       3.25197345       6.61699208      -0.00135374       0.00191598       0.00234613
O        2.26299820       3.25197276       3.91962634      -0.00135884       0.00192297      -0.00235301
O        3.82032169       1.04958312       6.61699142       0.00135683      -0.00192072       0.00235293
