9
Lattice="6.642292812713914 -1.0597852168330329e-08 3.8349294689720637 2.214097638579002 6.262413639880313 3.834929392185357 5.231493050238444e-08 -5.7051875621269137e-08 7.66985884733203" Properties=species:S:1:pos:R:3:forces:R:3 energy=-33.30508041381836 free_energy=-33.30508041381836 stress="6.623543595196679e-05 1.410098082743616e-08 1.2966233420286244e-08 1.410098082743616e-08 6.622755608987063e-05 -2.3299474349869342e-08 1.2966233420286244e-08 -2.3299474349869342e-08 6.621771171921864e-05" pbc="T T T"
Tl       2.21409764       1.56560340       3.83492935       0.00000017      -0.00000008       0.00000013
Tl       6.64229289       4.69681017      11.50478837      -0.00000007      -0.00000019       0.00000013
Fe      -0.00000001      -0.00000017       0.00000008      -0.00000392       0.00000573       0.00000136
Te       1.93765259       1.37012712       7.66985872      -0.00172257      -0.00121798       0.00000003
Te       6.91873807       4.89228655       7.66985877       0.00172223       0.00121817      -0.00000014
Te       5.67346650       1.37012729       5.51298562       0.00086080      -0.00121734      -0.00149088
Te       3.18292384       4.89228647       9.82673217      -0.00085846       0.00121425       0.00148731
Te       3.18292391       4.89228645       5.51298557      -0.00086012       0.00121673      -0.00149067
Te       5.67346658       1.37012695       9.82673213       0.00086195      -0.00121930       0.00149279
