9
Lattice="5.5183264522203395 -3.243932513301152e-07 3.1860076201380805 1.8394420769824802 5.202728114297893 3.1860072181577967 4.7356739291141866e-07 -1.5746070561553278e-07 6.372014420033379" Properties=species:S:1:pos:R:3:forces:R:3 energy=-29.310047149658203 free_energy=-29.310047149658203 stress="1.1938225270569092e-06 -9.421248137186922e-08 3.095088985105576e-08 -9.421248137186922e-08 1.2345266213742434e-06 -6.27751362003437e-08 3.095088985105576e-08 -6.27751362003437e-08 1.295613742513524e-06" pbc="T T T"
Tl       1.83944203       1.30068183       3.18600758       0.00000024      -0.00000028       0.00000041
Tl       5.51832698       3.90204562       9.55802205      -0.00000036      -0.00000143      -0.00000200
Ga      -0.00000028       0.00000025      -0.00000098       0.00000272       0.00000211       0.00000856
S        1.91294099       1.35265256       6.37201443       0.00016147       0.00011405      -0.00000033
S        5.44482866       3.85007549       6.37201401      -0.00016629      -0.00011557      -0.00000090
S        4.56185628       1.35265330       4.84266364      -0.00007804       0.00011152       0.00013854
S        2.79591280       3.85007454       7.90136697       0.00008442      -0.00011614      -0.00014186
S        2.79591301       3.85007386       4.84266305       0.00007730      -0.00010973       0.00013612
S        4.56185558       1.35265324       7.90136622      -0.00008144       0.00011542      -0.00013847
