9
Lattice="4.546380469013647 -2.4667786259593406e-07 2.6248543028452094 1.5154600080916942 4.286368537986181 2.6248541567916597 6.584361095363165e-08 -1.3231963327295282e-07 5.249708491645874" Properties=species:S:1:pos:R:3:forces:R:3 energy=-38.86517333984375 free_energy=-38.86517333984375 stress="-0.00019253598293289542 1.1975322955493084e-08 -3.382360347359281e-08 1.1975322955493084e-08 -0.00019250922196079046 -6.779650618682354e-08 -3.382360347359281e-08 -6.779650618682354e-08 -0.000192277628229931" pbc="T T T"
Tl       1.51546071       1.07159292       2.62485390      -0.00000042      -0.00000244      -0.00000276
Tl       4.54638007       3.21477563       7.87456374       0.00000236       0.00000179      -0.00000659
Ga       0.00000051      -0.00000006      -0.00000224      -0.00000902       0.00000220       0.00003174
O        1.58782976       1.12276531       5.24970763      -0.00379640      -0.00268573      -0.00000381
O        4.47401001       3.16360230       5.24970817       0.00380111       0.00269008      -0.00000020
O        3.75246614       1.12276619       3.99995651       0.00190440      -0.00269157      -0.00329942
O        2.30937482       3.16360223       6.49946209      -0.00189716       0.00268126       0.00328797
O        2.30937511       3.16360317       3.99995683      -0.00190356       0.00269151      -0.00329548
O        3.75246492       1.12276518       6.49946111       0.00189835      -0.00268692       0.00328904
