9
Lattice="5.797074734993064 -1.5212525984619317e-07 3.3469420275241273 1.9323583806260027 5.4655338130878794 3.346941544189262 -2.786704347942767e-08 -6.116668162846649e-07 6.693884103315345" Properties=species:S:1:pos:R:3:forces:R:3 energy=-28.641977310180664 free_energy=-28.641977310180664 stress="-3.411135185160674e-05 1.0582087384136685e-07 5.408485215241399e-09 1.0582087384136685e-07 -3.406473115319386e-05 3.359253142320995e-08 5.408485215241399e-09 3.359253142320995e-08 -3.393846782273613e-05" pbc="T T T"
Tl       1.93235892       1.36638425       3.34694221       0.00000213       0.00000096      -0.00000056
Tl       5.79707471       4.09914968      10.04082509      -0.00000232       0.00000097       0.00000058
Ga       0.00000046      -0.00000022      -0.00000412      -0.00000035       0.00000063       0.00000656
Se       2.21479056       1.56609447       6.69388416      -0.00210939      -0.00148919      -0.00000087
Se       5.51463877       3.89943806       6.69388379       0.00210507       0.00148867      -0.00000362
Se       4.68967998       1.56609420       5.26500927       0.00105590      -0.00148928      -0.00182441
Se       3.03975292       3.89944105       8.12275880      -0.00105584       0.00149123       0.00182028
Se       3.03975494       3.89943931       5.26500971      -0.00105279       0.00149101      -0.00182262
Se       4.68968116       1.56609141       8.12276179       0.00105757      -0.00149499       0.00182457
