9
Lattice="4.546699594500914 -5.4331586002567e-07 2.625036188206878 1.5155660219801936 4.286670725635957 2.6250361834905456 2.1488192567454874e-07 1.4616808734933374e-07 5.250072004227386" Properties=species:S:1:pos:R:3:forces:R:3 energy=-38.86518096923828 free_energy=-38.86518096923828 stress="7.294944953173399e-05 -5.709447137292045e-08 1.1338372907232497e-08 -5.709447137292045e-08 7.319160067709163e-05 8.327711853439723e-09 1.1338372907232497e-08 8.327711853439723e-09 7.343474862864241e-05" pbc="T T T"
Tl       1.51556857       1.07166812       2.62503531       0.00000423       0.00000043      -0.00000055
Tl       4.54669645       3.21500260       7.87510473       0.00001106      -0.00000434       0.00000663
Ga       0.00000430      -0.00000113       0.00000061      -0.00005565       0.00001526      -0.00001918
O        1.58777383       1.12272785       5.25007259       0.00019389       0.00013900       0.00000001
O        4.47449160       3.16394083       5.25007515      -0.00017297      -0.00012976       0.00000024
O        3.75280904       1.12272721       4.00008981      -0.00009257       0.00012505       0.00015295
O        2.30945533       3.16394203       6.50005359       0.00009301      -0.00012589      -0.00016063
O        2.30945458       3.16394390       4.00009009       0.00010487      -0.00013113       0.00016940
O        3.75281002       1.12272844       6.50005280      -0.00008610       0.00011164      -0.00014883
