9
Lattice="6.429086557214514 -3.7693802153397937e-07 3.7118350314455713 2.1430287098442866 6.061400509118711 3.711834662830637 1.9560734262071454e-07 -3.131440055278682e-07 7.423669724089249" Properties=species:S:1:pos:R:3:forces:R:3 energy=-26.89544105529785 free_energy=-26.89544105529785 stress="-0.00026548755704425275 -1.520512071806479e-08 -5.519655843500004e-09 -1.520512071806479e-08 -0.00026546165463514626 9.61405732802234e-10 -5.519655843500004e-09 9.61405732802234e-10 -0.00026541700935922563" pbc="T T T"
Tl       2.14302916       1.51534993       3.71183521       0.00000012       0.00000024      -0.00000039
Tl       6.42908657       4.54604971      11.13550437      -0.00000013      -0.00000017       0.00000040
Ga      -0.00000023       0.00000016       0.00000051       0.00000101      -0.00000019      -0.00000068
Te       2.32080215       1.64105452       7.42366967       0.00559244       0.00395501       0.00000002
Te       6.25131345       4.42034548       7.42366991      -0.00559422      -0.00395575      -0.00000055
Te       5.26868485       1.64105450       5.72171000      -0.00279659       0.00395600       0.00484431
Te       3.30343072       4.42034474       9.12562929       0.00279633      -0.00395478      -0.00484365
Te       3.30342956       4.42034518       5.72170938       0.00279719      -0.00395528       0.00484391
Te       5.26868561       1.64105497       9.12562934      -0.00279626       0.00395477      -0.00484338
