9
Lattice="5.9038481891637105 9.484918776003161e-08 3.4085882991285037 1.9679494960255695 5.5662014292903965 3.4085882814391035 2.296656231636733e-08 -5.425138220417198e-09 6.817176558477829" Properties=species:S:1:pos:R:3:forces:R:3 energy=-30.07210922241211 free_energy=-30.07210922241211 stress="0.00023028822033666074 8.584178701198653e-09 -2.788185149427136e-08 8.584178701198653e-09 0.00023024191614240408 -2.996661407905776e-08 -2.788185149427136e-08 -2.996661407905776e-08 0.0002301947824889794" pbc="T T T"
Tl       1.96794943       1.39155034       3.40858836       0.00000215       0.00000032      -0.00000069
Tl       5.90384833       4.17465119      10.22576496       0.00000205      -0.00000015      -0.00000052
Ge       0.00000002       0.00000005       0.00000027      -0.00000165       0.00000176       0.00000008
Se       2.04466207       1.44579413       6.81717640      -0.00221057      -0.00156093       0.00000125
Se       5.82713533       4.12040733       6.81717652       0.00220923       0.00156653      -0.00000130
Se       4.88151745       1.44579414       5.17931696       0.00110672      -0.00156496      -0.00191149
Se       2.99028042       4.12040742       8.45503584      -0.00110682       0.00156119       0.00191391
Se       2.99028050       4.12040735       5.17931712      -0.00110728       0.00156042      -0.00191315
Se       4.88151729       1.44579414       8.45503603       0.00110604      -0.00156404       0.00191191
