9
Lattice="5.794450140323754 1.0099410598402984e-06 3.34542708867796 1.931484215184909 5.463060705547399 3.345427291508945 -2.0686123597463644e-07 1.0214321738345193e-07 6.690854535650212" Properties=species:S:1:pos:R:3:forces:R:3 energy=-28.641929626464844 free_energy=-28.641929626464844 stress="-0.0003809935296885669 -1.5297632049993126e-09 -1.6254986690000806e-08 -1.5297632049993126e-09 -0.00038084672996774316 -5.635192312780646e-09 -1.6254986690000806e-08 -5.635192312780646e-09 -0.00038100729580037296" pbc="T T T"
Tl       1.93148301       1.36576563       3.34542729       0.00000028      -0.00000333      -0.00000025
Tl       5.79445060       4.09729623      10.03628172      -0.00000103       0.00000121       0.00000113
Ga      -0.00000135      -0.00000061       0.00000059       0.00000209       0.00000062      -0.00000094
Se       2.21325386       1.56500733       6.69085456      -0.00317384      -0.00224347       0.00000018
Se       5.51268373       3.89805628       6.69085433       0.00317533       0.00224446      -0.00000017
Se       4.68782486       1.56500673       5.26215951       0.00158587      -0.00224386      -0.00274977
Se       3.03810883       3.89805403       8.11954968      -0.00158623       0.00224379       0.00274877
Se       3.03810860       3.89805434       5.26215850      -0.00158697       0.00224355      -0.00274819
Se       4.68782438       1.56500758       8.11954944       0.00158449      -0.00224304       0.00274934
