9
Lattice="5.517997543146706 -6.941626105161436e-08 3.185817237447768 1.8393324791127856 5.202418026953361 3.185817185180235 -9.753041990525405e-08 -1.3297883435752842e-07 6.371634643823047" Properties=species:S:1:pos:R:3:forces:R:3 energy=-29.310043334960938 free_energy=-29.310043334960938 stress="-1.76151061168639e-05 7.177242622447011e-08 1.1523513698818988e-08 7.177242622447011e-08 -1.7687149011180736e-05 -2.2352155681915065e-08 1.1523513698818988e-08 -2.2352155681915065e-08 -1.7760659829946235e-05" pbc="T T T"
Tl       1.83933144       1.30060462       3.18581712       0.00000251      -0.00000112       0.00000191
Tl       5.51799753       3.90181236       9.55745118       0.00000045       0.00000122       0.00000145
Ga       0.00000153      -0.00000166       0.00000098      -0.00001239       0.00001423      -0.00000826
S        1.91299707       1.35269206       6.37163467      -0.00070295      -0.00049667      -0.00000282
S        5.44433368       3.84972504       6.37163402       0.00070447       0.00050062      -0.00000254
S        4.56150018       1.35269289       4.84252033       0.00035042      -0.00049663      -0.00061239
S        2.79583039       3.84972606       7.90074899      -0.00035033       0.00049548       0.00060232
S        2.79582955       3.84972614       4.84251999      -0.00034685       0.00048697      -0.00059754
S        4.56149835       1.35269378       7.90074893       0.00035477      -0.00050414       0.00061785
