9
Lattice="6.4312408602260955 -3.1650971766863775e-07 3.7130794041443527 2.143746642056379 6.063431804908132 3.713079426563831 1.4252891090669544e-07 1.2824170992808926e-07 7.426158561420846" Properties=species:S:1:pos:R:3:forces:R:3 energy=-26.89551544189453 free_energy=-26.89551544189453 stress="-7.398417074000463e-05 -6.808642982747415e-09 -1.2534520088536283e-09 -6.808642982747415e-09 -7.387518417090178e-05 -5.720900642103288e-09 -1.2534520088536283e-09 -5.720900642103288e-09 -7.399220339721069e-05" pbc="T T T"
Tl       2.14374707       1.51585814       3.71307940      -0.00000020      -0.00000066      -0.00000013
Tl       6.43124065       4.54757344      11.13923777       0.00000008       0.00000093       0.00000066
Ga       0.00000013       0.00000046       0.00000110      -0.00000028      -0.00000032      -0.00000148
Te       2.32257615       1.64231238       7.42615859      -0.00011526      -0.00008209      -0.00000035
Te       6.25241089       4.42111910       7.42615899       0.00011660       0.00008228      -0.00000041
Te       5.26995216       1.64231088       5.72448962       0.00005718      -0.00008173      -0.00010009
Te       3.30503615       4.42111987       9.12782704      -0.00005838       0.00008291       0.00010186
Te       3.30503543       4.42112027       5.72448963      -0.00005809       0.00008162      -0.00010094
Te       5.26995201       1.64231209       9.12782739       0.00005818      -0.00008298       0.00010091
