9
Lattice="5.7615067413566 2.332928156829754e-07 3.3264068547376135 1.9205025062016405 5.43200044587105 3.3264067869588057 1.641957202488688e-07 3.309218824746699e-08 6.652813425079909" Properties=species:S:1:pos:R:3:forces:R:3 energy=-31.597978591918945 free_energy=-31.597978591918945 stress="-1.3104157005727757e-05 1.866356313939832e-07 -1.1148404865934936e-08 1.866356313939832e-07 -1.3261566891742405e-05 3.4651339575475504e-08 -1.1148404865934936e-08 3.4651339575475504e-08 -1.339901518804254e-05" pbc="T T T"
Tl       1.92050212       1.35800023       3.32640678      -0.00000012      -0.00000011      -0.00000043
Tl       5.76150705       4.07400004       9.97922034      -0.00000038       0.00000074       0.00000047
Ge       0.00000153      -0.00000019       0.00000015      -0.00001679      -0.00000637       0.00000037
S        1.91332717       1.35292691       6.65281354       0.00017667       0.00012439      -0.00000004
S        5.76868086       4.07907346       6.65281382      -0.00015801      -0.00011134       0.00000077
S        4.80484398       1.35292597       4.98339507      -0.00008947       0.00012386       0.00015229
S        2.87716526       4.07907552       8.32223157       0.00008944      -0.00012773      -0.00015539
S        2.87716554       4.07907484       4.98339489       0.00008905      -0.00012773       0.00015515
S        4.80484382       1.35292581       8.32223218      -0.00009036       0.00012475      -0.00015318
