9
Lattice="6.557337525587433 -1.338277298337777e-07 3.78588043732005 2.1857790803385155 6.182317693848561 3.785880383077873 -1.6475046192971437e-07 -1.829290824898224e-07 7.571761159996379" Properties=species:S:1:pos:R:3:forces:R:3 energy=-23.53564453125 free_energy=-23.53564453125 stress="-1.3079635209578555e-05 -4.270056253030674e-10 4.2315191350894565e-09 -4.270056253030674e-10 -1.3090540960547514e-05 2.6432556143873853e-09 4.2315191350894565e-09 2.6432556143873853e-09 -1.3061135177849792e-05" pbc="T T T"
Tl       2.18577907       1.54557945       3.78588043       0.00000016      -0.00000012       0.00000010
Tl       6.55733732       4.63673796      11.35764125       0.00000020       0.00000034      -0.00000008
Hg       0.00000084       0.00000037      -0.00000030      -0.00000150      -0.00000043       0.00000038
Te       2.46124502       1.74036313       7.57176138       0.00047983       0.00033888       0.00000004
Te       6.28187100       4.44195353       7.57176088      -0.00047687      -0.00033693      -0.00000019
Te       5.32671437       1.74036351       5.91738234      -0.00024000       0.00033818       0.00041507
Te       3.41640183       4.44195425       9.22614007       0.00023855      -0.00033879      -0.00041516
Te       3.41640209       4.44195440       5.91738158       0.00023923      -0.00033846       0.00041464
Te       5.32671430       1.74036302       9.22614020      -0.00023961       0.00033735      -0.00041482
