9
Lattice="5.982781233675579 -1.453573982021811e-07 3.4541600542228923 1.9942603510557018 5.640620700767734 3.454159921071919 1.7960439388027345e-07 -3.6076530724601775e-08 6.908319797361824" Properties=species:S:1:pos:R:3:forces:R:3 energy=-25.606077194213867 free_energy=-25.606077194213867 stress="-6.385683082044125e-05 4.714414458817373e-08 -2.968308443485057e-08 4.714414458817373e-08 -6.40071666566655e-05 -1.2523002634878821e-09 -2.968308443485057e-08 -1.2523002634878821e-09 -6.373407813953236e-05" pbc="T T T"
Tl       1.99425991       1.41015481       3.45416003       0.00000098       0.00000069       0.00000022
Tl       5.98278162       4.23046601      10.36247952       0.00000025      -0.00000112       0.00000146
Hg       0.00000021       0.00000002      -0.00000020      -0.00000140      -0.00000111       0.00000041
Se       2.35848806       1.66770185       6.90831965      -0.00299653      -0.00212115      -0.00000045
Se       5.61855331       3.97291834       6.90832053       0.00299817       0.00212282       0.00000085
Se       4.80353733       1.66770107       5.49667195       0.00149973      -0.00212483      -0.00259303
Se       3.17350411       3.97291962       8.31996787      -0.00149979       0.00212367       0.00259225
Se       3.17350398       3.97291933       5.49667149      -0.00150102       0.00212379      -0.00259331
Se       4.80353851       1.66770102       8.31996823       0.00149959      -0.00212276       0.00259146
