9
Lattice="5.839731917235041 3.523646664492099e-07 3.3715707396772494 1.946577619515352 5.50575233920191 3.371570771620284 3.0666884010268814e-07 2.5596965737985564e-07 6.743140948188406" Properties=species:S:1:pos:R:3:forces:R:3 energy=-24.867185592651367 free_energy=-24.867185592651367 stress="-3.659027424873784e-05 -5.424709925705429e-08 -9.329991002005045e-08 -5.424709925705429e-08 -3.662674134830013e-05 -3.08684988681307e-08 -9.329991002005045e-08 -3.08684988681307e-08 -3.647284029284492e-05" pbc="T T T"
Tl       1.94657785       1.37643805       3.37157132      -0.00000024       0.00000063      -0.00000089
Tl       5.83973232       4.12931470      10.11471249      -0.00000047       0.00000028      -0.00000030
Hg      -0.00000049       0.00000136      -0.00000254       0.00000466      -0.00000690       0.00001204
S        2.21777343       1.56820233       6.74314013      -0.00097075      -0.00068812      -0.00000661
S        5.56853709       3.93755078       6.74314144       0.00096935       0.00068782      -0.00000149
S        4.73084357       1.56820328       5.29222188       0.00047818      -0.00067952      -0.00082874
S        3.05546642       3.93754762       8.19406140      -0.00047825       0.00068007       0.00082874
S        3.05546456       3.93754884       5.29222099      -0.00048435       0.00068372      -0.00083372
S        4.73084465       1.56820486       8.19406283       0.00048208      -0.00067781       0.00083077
