9
Lattice="5.966715155502091 -1.6842861634508479e-07 3.4448845410320734 1.988904955657745 5.625472812029338 3.4448844325714947 1.4204415913371283e-07 -3.239613355080296e-08 6.889768836036465" Properties=species:S:1:pos:R:3:forces:R:3 energy=-28.574111938476562 free_energy=-28.574111938476562 stress="7.251309580169618e-05 4.149516996676539e-08 -9.413228418964081e-09 4.149516996676539e-08 7.249916234286502e-05 3.3799001375456328e-09 -9.413228418964081e-09 3.3799001375456328e-09 7.254108641063794e-05" pbc="T T T"
Tl       1.98890499       1.40636820       3.44488452       0.00000042       0.00000044       0.00000031
Tl       5.96671535       4.21910470      10.33465333      -0.00000041       0.00000015       0.00000053
In      -0.00000023       0.00000019       0.00000072       0.00000026      -0.00000320      -0.00000393
Se       2.31677089       1.63820472       6.88976875      -0.00363019      -0.00256595      -0.00000041
Se       5.63884762       3.98726759       6.88976911       0.00362962       0.00256641       0.00000015
Se       4.80833035       1.63820407       5.45126636       0.00181619      -0.00256667      -0.00314228
Se       3.14729130       3.98726818       8.32826919      -0.00181597       0.00256705       0.00314306
Se       3.14729075       3.98726848       5.45126814      -0.00181579       0.00256763      -0.00314106
Se       4.80832999       1.63820432       8.32827123       0.00181583      -0.00256586       0.00314350
