9
Lattice="5.013882379490936 1.8916469602730791e-07 2.8947665961723326 1.6712942889501057 4.727134455380208 2.89476662370011 -5.7515868920809346e-08 -6.955415604360593e-09 5.789533291965298" Properties=species:S:1:pos:R:3:forces:R:3 energy=-45.899818420410156 free_energy=-45.899818420410156 stress="2.144641030099592e-06 2.0563861369282677e-07 1.1742674388415253e-07 2.0563861369282677e-07 1.9651663478725823e-06 -1.1886020701012967e-07 1.1742674388415253e-07 -1.1886020701012967e-07 1.752834236867784e-06" pbc="T T T"
Tl       1.67129383       1.18178406       2.89476535      -0.00000052       0.00000152      -0.00000314
Tl       5.01388364       3.54535076       8.68429962      -0.00000025      -0.00000098      -0.00000235
Ir      -0.00000037       0.00000015      -0.00000058       0.00001110      -0.00000187       0.00001272
O        1.53313742       1.08409217       5.78953523       0.00026947       0.00019023      -0.00000115
O        5.15203917       3.64304196       5.78953465      -0.00027680      -0.00019395       0.00000127
O        4.24731480       1.08409103       4.22250003      -0.00015303       0.00021467       0.00026244
O        2.43786144       3.64304294       7.35656691       0.00015131      -0.00021249      -0.00026456
O        2.43786202       3.64304378       4.22250110       0.00014356      -0.00020292       0.00025222
O        4.24731456       1.08409119       7.35656493      -0.00014520       0.00020581      -0.00025791
