9
Lattice="6.575511004609262 -1.7596662091696065e-07 3.796373018568163 2.191836819848299 6.199451166607159 3.7963730459088385 -1.354950276939132e-07 -6.232404709468471e-08 7.592746271820588" Properties=species:S:1:pos:R:3:forces:R:3 energy=-26.86283302307129 free_energy=-26.86283302307129 stress="-0.00018959779117722064 -4.742234605004114e-09 -6.015962394911867e-09 -4.742234605004114e-09 -0.00018958312284667045 1.1995182624957579e-08 -6.015962394911867e-09 1.1995182624957579e-08 -0.00018958565487992018" pbc="T T T"
Tl       2.19183696       1.54986251       3.79637302      -0.00000017       0.00000016      -0.00000010
Tl       6.57551076       4.64958816      11.38911918       0.00000012      -0.00000001       0.00000013
In      -0.00000068      -0.00000058      -0.00000092       0.00000343       0.00000436       0.00000500
Te       2.41048689       1.70447158       7.59274617       0.00708017       0.00500737       0.00000021
Te       6.35686167       4.49497994       7.59274594      -0.00708538      -0.00501019       0.00000044
Te       5.37026733       1.70447169       5.88391643      -0.00353917       0.00500593       0.00613049
Te       3.39707971       4.49497982       9.30157683       0.00354214      -0.00501005      -0.00613523
Te       3.39708050       4.49497949       5.88391613       0.00354025      -0.00500675       0.00613286
Te       5.37026764       1.70447108       9.30157654      -0.00354148       0.00500911      -0.00613372
