9
Lattice="5.833506604216976 7.893819074936661e-08 3.367976463322051 1.944502224317002 5.499882872660983 3.3679765525439453 3.355281557913545e-08 1.3299952221494957e-07 6.735952868528884" Properties=species:S:1:pos:R:3:forces:R:3 energy=-28.832998275756836 free_energy=-28.832998275756836 stress="-4.577761501423083e-05 -2.0040173964730457e-09 9.207167472879974e-09 -2.0040173964730457e-09 -4.584131602314301e-05 -1.4423917171768608e-08 9.207167472879974e-09 -1.4423917171768608e-08 -4.5862696424592286e-05" pbc="T T T"
Tl       1.94450227       1.37497093       3.36797646      -0.00000026       0.00000017       0.00000005
Tl       5.83350694       4.12491220      10.10392914      -0.00000011      -0.00000013      -0.00000053
In      -0.00000058      -0.00000031      -0.00000052       0.00000201       0.00000194       0.00000394
S        2.16172563       1.52857112       6.73595292       0.00148401       0.00104867      -0.00000068
S        5.61628390       3.97131245       6.73595306      -0.00148654      -0.00105101       0.00000205
S        4.75264384       1.52857091       5.24008553      -0.00074264       0.00104815       0.00128524
S        3.02536457       3.97131269       8.23182069       0.00074257      -0.00105007      -0.00128798
S        3.02536479       3.97131190       5.24008561       0.00074296      -0.00104891       0.00128523
S        4.75264420       1.52857045       8.23182063      -0.00074200       0.00105101      -0.00128751
