9
Lattice="5.845789599642083 1.4599659031479686e-07 3.3750681045928674 1.948596611569103 5.511463620658555 3.375068207289322 -9.641086812359824e-08 5.7604297477116305e-08 6.7501363761741855" Properties=species:S:1:pos:R:3:forces:R:3 energy=-35.36783218383789 free_energy=-35.36783218383789 stress="-0.00016677855455782264 1.8993256745147846e-08 -1.0459851651489771e-08 1.8993256745147846e-08 -0.0001667802280280739 2.1687689866212168e-08 -1.0459851651489771e-08 2.1687689866212168e-08 -0.00016679921827744693" pbc="T T T"
Tl       1.94859661       1.37786590       3.37506816       0.00000145       0.00000056      -0.00000014
Tl       5.84578974       4.13359787      10.12520446       0.00000012      -0.00000008       0.00000140
Ir      -0.00000019      -0.00000016       0.00000016      -0.00000390       0.00000064      -0.00000001
Se       2.03091331       1.43607249       6.75013641       0.00602229       0.00425891      -0.00000055
Se       5.76347162       4.07539024       6.75013637      -0.00601795      -0.00425437      -0.00000030
Se       4.83033305       1.43607338       5.13389215      -0.00300992       0.00425477       0.00520976
Se       2.96405365       4.07539093       8.36638190       0.00300856      -0.00425734      -0.00521348
Se       2.96405364       4.07539129       5.13389050       0.00301027      -0.00425950       0.00521539
Se       4.83033311       1.43607338       8.36638060      -0.00301088       0.00425644      -0.00521199
