9
Lattice="5.569078541660252 1.563901031891805e-07 3.2153086698396245 1.8563596471055308 5.250577629487635 3.2153086944819504 -1.1004875962940491e-07 -4.7635729475186695e-08 6.430617530289337" Properties=species:S:1:pos:R:3:forces:R:3 energy=-37.55488586425781 free_energy=-37.55488586425781 stress="7.242520950967446e-06 1.0072451317455489e-07 2.2198621607572022e-08 1.0072451317455489e-07 7.163220743677812e-06 -3.241128609943189e-08 2.2198621607572022e-08 -3.241128609943189e-08 7.112776074791327e-06" pbc="T T T"
Tl       1.85635953       1.31264451       3.21530876      -0.00000018      -0.00000047       0.00000057
Tl       5.56907878       3.93793330       9.64592609      -0.00000026      -0.00000008      -0.00000067
Ir      -0.00000109      -0.00000094      -0.00000027      -0.00000089       0.00000041      -0.00000000
S        1.89304806       1.33858692       6.43061759       0.00031257       0.00022155       0.00000009
S        5.53238989       3.91199078       6.43061736      -0.00031406      -0.00022185       0.00000065
S        4.62255508       1.33858660       4.85473506      -0.00016034       0.00022769       0.00027788
S        2.80288319       3.91199167       8.00650018       0.00016209      -0.00022787      -0.00027943
S        2.80288356       3.91199158       4.85473502       0.00016007      -0.00022572       0.00027716
S        4.62255512       1.33858656       8.00649970      -0.00015905       0.00022656      -0.00027645
