9
Lattice="6.206503287342622 6.510320782309657e-07 3.5833260326586154 2.0688349461215543 5.8515472799180035 3.5833262003067463 1.114450467858625e-07 2.841297405775169e-07 7.1666518722886465" Properties=species:S:1:pos:R:3:forces:R:3 energy=-33.32838439941406 free_energy=-33.32838439941406 stress="0.00012131499534007162 9.018602042942803e-08 -4.140362719340374e-09 9.018602042942803e-08 0.00012127342779422179 4.0811976020904694e-09 -4.140362719340374e-09 4.0811976020904694e-09 0.00012119974417146295" pbc="T T T"
Tl       2.06883452       1.46288710       3.58332576      -0.00000012       0.00000032       0.00000061
Tl       6.20650366       4.38866096      10.74997826       0.00000026      -0.00000004      -0.00000068
Mn       0.00000001      -0.00000013      -0.00000099      -0.00000041       0.00000190       0.00001115
Te       2.06868671       1.46278253       7.16665245       0.00163622       0.00115637      -0.00000042
Te       6.20665167       4.38876571       7.16665208      -0.00163683      -0.00115716      -0.00000079
Te       5.17216069       1.46278200       5.37485979      -0.00082006       0.00116004       0.00142069
Te       3.10317700       4.38876692       8.95844454       0.00082261      -0.00116451      -0.00142644
Te       3.10317782       4.38876677       5.37485995       0.00082118      -0.00116158       0.00142217
Te       5.17216133       1.46278101       8.95844454      -0.00082289       0.00116470      -0.00142640
