9
Lattice="6.02772857490127 -6.248096476071864e-08 3.4801107711689596 2.0092427570863216 5.682997358436972 3.48011084444604 -5.803203898835814e-08 4.8710891555088974e-08 6.960221642852289" Properties=species:S:1:pos:R:3:forces:R:3 energy=-38.417877197265625 free_energy=-38.417877197265625 stress="-5.949056867393665e-05 -4.8433626886890124e-08 -4.009557841300193e-08 -4.8433626886890124e-08 -5.945043812971562e-05 4.544350318269608e-08 -4.009557841300193e-08 4.544350318269608e-08 -5.942776260781102e-05" pbc="T T T"
Tl       2.00924282       1.42074944       3.48011085       0.00000006       0.00000006      -0.00000035
Tl       6.02772849       4.26224798      10.44033245      -0.00000005      -0.00000002      -0.00000004
Mo      -0.00000020      -0.00000022       0.00000096       0.00000428      -0.00000068      -0.00001240
Se       1.98925633       1.40661681       6.96022132       0.00043875       0.00030954      -0.00000038
Se       6.04771476       4.27638058       6.96022137      -0.00044027      -0.00031160      -0.00000062
Se       5.03310000       1.40661718       5.20285770      -0.00021926       0.00030969       0.00037993
Se       3.00387133       4.27638013       8.71758493       0.00021365      -0.00030261      -0.00037019
Se       3.00387141       4.27638046       5.20285769       0.00022042      -0.00031154       0.00038132
Se       5.03310016       1.40661689       8.71758565      -0.00021757       0.00030735      -0.00037712
