9
Lattice="5.832692909198136 2.03756315936285e-07 3.3675068420980714 1.9442311261613012 5.49911572636335 3.3675069038885086 2.0578393901795236e-08 9.022856640820127e-08 6.7350136485532754" Properties=species:S:1:pos:R:3:forces:R:3 energy=-41.30119323730469 free_energy=-41.30119323730469 stress="-1.3008973837713711e-05 -1.9185115995856705e-10 -1.4426674965761777e-08 -1.9185115995856705e-10 -1.2991563380637672e-05 2.578489954885299e-08 -1.4426674965761777e-08 2.578489954885299e-08 -1.301705287914956e-05" pbc="T T T"
Tl       1.94423112       1.37477932       3.36750660       0.00000025       0.00000034       0.00000027
Tl       5.83269326       4.12433669      10.10252068       0.00000016       0.00000083      -0.00000029
Mo      -0.00000018      -0.00000023       0.00000026      -0.00000231      -0.00000234      -0.00000193
S        1.88409440       1.33225639       6.73501382       0.00029247       0.00020493      -0.00000060
S        5.89282898       4.16685870       6.73501394      -0.00028659      -0.00020242      -0.00000019
S        4.89064566       1.33225698       4.99918099      -0.00014567       0.00020301       0.00025039
S        2.88627876       4.16685944       8.47084569       0.00014250      -0.00020248      -0.00024813
S        2.88627868       4.16685970       4.99918124       0.00014441      -0.00020518       0.00025172
S        4.89064570       1.33225712       8.47084628      -0.00014519       0.00020327      -0.00025111
