9
Lattice="6.572298749145859 4.685815785655703e-07 3.7945192668523995 2.190766614042903 6.196422801058901 3.794519401008984 -8.643168035027207e-08 1.031912118406642e-07 7.589038683408808" Properties=species:S:1:pos:R:3:forces:R:3 energy=-25.871835708618164 free_energy=-25.871835708618164 stress="-1.2114310266042594e-05 -5.92917004382798e-09 -5.957619286789395e-09 -5.92917004382798e-09 -1.2101472748327069e-05 7.852067440694555e-09 -5.957619286789395e-09 7.852067440694555e-09 -1.2333761333138682e-05" pbc="T T T"
Tl       2.19076713       1.54910623       3.79451938       0.00000009      -0.00000005      -0.00000002
Tl       6.57229824       4.64731710      11.38355798       0.00000004       0.00000008       0.00000001
Mg      -0.00000068      -0.00000026      -0.00000032       0.00000161       0.00000155       0.00000067
Te       2.45307410       1.73458516       7.58903873       0.00031940       0.00022673       0.00000002
Te       6.30999243       4.46183864       7.58903863      -0.00032293      -0.00022868      -0.00000003
Te       5.34576223       1.73458502       5.91893977      -0.00016167       0.00022989       0.00027584
Te       3.41730259       4.46183814       9.25913807       0.00016260      -0.00022961      -0.00027661
Te       3.41730293       4.46183827       5.91893882       0.00016278      -0.00022952       0.00027673
Te       5.34576217       1.73458522       9.25913842      -0.00016189       0.00022958      -0.00027657
