9
Lattice="5.932248649967064 1.7303388839418026e-07 3.4249851099400304 1.97741624278845 5.592977748990158 3.424985347240056 -8.065187433305175e-08 2.3360244533608616e-07 6.8499703595730725" Properties=species:S:1:pos:R:3:forces:R:3 energy=-36.3152961730957 free_energy=-36.3152961730957 stress="4.855304359807633e-05 -1.9001582529654115e-08 -2.250491526467613e-08 -1.9001582529654115e-08 4.854264989262447e-05 3.341692433878052e-08 -2.250491526467613e-08 3.341692433878052e-08 4.851018456974998e-05" pbc="T T T"
Tl       1.97741598       1.39824453       3.42498529      -0.00000024      -0.00000036       0.00000023
Tl       5.93224893       4.19473366      10.27495559       0.00000016      -0.00000042      -0.00000123
Mn      -0.00000057       0.00000086      -0.00000047       0.00000399      -0.00000520      -0.00000162
Se       1.91832617       1.35646113       6.84997064      -0.00166526      -0.00117701       0.00000026
Se       5.99133878       4.23651676       6.84997049       0.00166383       0.00117698       0.00000008
Se       4.97308564       1.35646116       5.08630468       0.00083248      -0.00117636      -0.00144166
Se       2.93657957       4.23651666       8.61363732      -0.00083390       0.00118005       0.00144535
Se       2.93657937       4.23651684       5.08630364      -0.00083314       0.00117794      -0.00144312
Se       4.97308538       1.35646139       8.61363643       0.00083211      -0.00117564       0.00144160
