9
Lattice="4.5882422226131965 6.925398781202007e-08 2.6490228043574566 1.5294141353328823 4.325836310856862 2.649022811571029 9.883990453905448e-08 7.872523321155272e-08 5.298045437519174" Properties=species:S:1:pos:R:3:forces:R:3 energy=-37.109153747558594 free_energy=-37.109153747558594 stress="0.00014729250688105822 9.133471756683775e-09 1.877913113901286e-08 9.133471756683775e-09 0.0001472703879699111 4.055610958175748e-08 1.877913113901286e-08 4.055610958175748e-08 0.00014722808555234224" pbc="T T T"
Tl       1.52941455       1.08145887       2.64902317      -0.00000035       0.00000097       0.00000287
Tl       4.58824197       3.24437738       7.94706932       0.00000090       0.00000097       0.00000240
Mg       0.00000052       0.00000036       0.00000219      -0.00000449      -0.00000567      -0.00002721
O        1.64411178       1.16256261       5.29804545      -0.00223228      -0.00158007      -0.00000146
O        4.47354421       3.16327351       5.29804494       0.00223830       0.00158286       0.00000013
O        3.76618685       1.16256272       4.07286461       0.00111341      -0.00157414      -0.00192806
O        2.35147041       3.16327349       6.52322485      -0.00112078       0.00158592       0.00194114
O        2.35146998       3.16327391       4.07286454      -0.00111468       0.00157422      -0.00193113
O        3.76618552       1.16256286       6.52322517       0.00111987      -0.00158508       0.00194103
