9
Lattice="5.68616716982664 8.757474919684513e-07 3.2829109905517537 1.8953898723219151 5.360970805027516 3.2829110077851604 1.506941000905819e-08 3.1762174628751014e-08 6.565821955002495" Properties=species:S:1:pos:R:3:forces:R:3 energy=-27.475616455078125 free_energy=-27.475616455078125 stress="-0.00011318593169562519 -1.4733373632225266e-07 1.3051533187535824e-08 -1.4733373632225266e-07 -0.00011322912178002298 -1.0732265742774416e-08 1.3051533187535824e-08 -1.0732265742774416e-08 -0.00011339722550474107" pbc="T T T"
Tl       1.89538983       1.34024321       3.28291109      -0.00000217      -0.00000078      -0.00000184
Tl       5.68616778       4.02072894       9.84873259       0.00000228       0.00000079      -0.00000104
Mg      -0.00000089       0.00000034      -0.00000069       0.00000198      -0.00000257       0.00000522
S        2.06871370       1.46279973       6.56582218      -0.00141049      -0.00100319       0.00000262
S        5.51284365       3.89816910       6.56582262       0.00141379       0.00099743       0.00000375
S        4.65180826       1.46280506       5.07446805       0.00070409      -0.00099487      -0.00122860
S        2.92974769       3.89817019       8.05717448      -0.00070282       0.00099856       0.00122192
S        2.92974838       3.89816739       5.07446986      -0.00070674       0.00099938      -0.00122460
S        4.65180973       1.46280291       8.05717583       0.00070013      -0.00099476       0.00122263
