9
Lattice="5.915052623112762 -4.918012795725464e-07 3.4150572400566452 1.9716838620913237 5.576764387449231 3.4150570355675223 1.2001380980944538e-07 -1.6558444479474736e-07 6.830114272243271" Properties=species:S:1:pos:R:3:forces:R:3 energy=-27.216144561767578 free_energy=-27.216144561767578 stress="-1.6677677194820717e-05 7.45422852332922e-08 -2.77615352928251e-08 7.45422852332922e-08 -1.650576086831279e-05 2.9344445096057825e-08 -2.77615352928251e-08 2.9344445096057825e-08 -1.6616373613942415e-05" pbc="T T T"
Tl       1.97168396       1.39419086       3.41505717       0.00000205      -0.00000022       0.00000028
Tl       5.91505246       4.18257296      10.24517144       0.00000135       0.00000008       0.00000064
Mg       0.00000025      -0.00000047       0.00000044       0.00000059       0.00000081      -0.00000036
Se       2.30018445       1.62647514       6.83011421      -0.00070561      -0.00049930      -0.00000091
Se       5.58655001       3.95028463       6.83011436       0.00070023       0.00048717       0.00000105
Se       4.76496149       1.62647626       5.40707747       0.00035710      -0.00049589      -0.00060434
Se       3.12177765       3.95028781       8.25315263      -0.00035149       0.00049796       0.00061015
Se       3.12177550       3.95029027       5.40707492      -0.00035784       0.00050258      -0.00061134
Se       4.76496062       1.62647749       8.25315160       0.00035363      -0.00049317       0.00060484
