9
Lattice="4.603775711390767 -7.807296071467588e-09 2.6579911115724957 1.5345918690127192 4.340480643709081 2.6579911590712295 -1.776764712891468e-08 4.561018059309419e-08 5.315982253919491" Properties=species:S:1:pos:R:3:forces:R:3 energy=-46.061553955078125 free_energy=-46.061553955078125 stress="5.695613072020933e-05 2.5653275770309847e-07 5.0208026181053356e-08 2.5653275770309847e-07 5.648853039019741e-05 -6.212534486849108e-08 5.0208026181053356e-08 -6.212534486849108e-08 5.6163440603995696e-05" pbc="T T T"
Tl       1.53459209       1.08512021       2.65799100      -0.00000110      -0.00000060       0.00000109
Tl       4.60377553       3.25536038       7.97397313      -0.00000019      -0.00000041       0.00000097
Mn       0.00000016      -0.00000010       0.00000020      -0.00000065       0.00000019       0.00000229
O        1.52699498       1.07974826       5.31598230      -0.00129580      -0.00091481      -0.00000071
O        4.61137263       3.26073239       5.31598218       0.00130308       0.00091344      -0.00000090
O        3.84027809       1.07974808       3.98040746       0.00064462      -0.00091136      -0.00111747
O        2.29808938       3.26073266       6.65155699      -0.00064719       0.00091207       0.00112081
O        2.29808922       3.26073272       3.98040768      -0.00064647       0.00091040      -0.00112116
O        3.84027823       1.07974813       6.65155738       0.00064397      -0.00090945       0.00111538
