9
Lattice="6.439420118795153 -5.621617560830991e-07 3.717801456359293 2.146472865394021 6.071143632047475 3.7178014174340803 2.9076864617849376e-08 -2.7113033413319418e-08 7.435602862355883" Properties=species:S:1:pos:R:3:forces:R:3 energy=-35.44076919555664 free_energy=-35.44076919555664 stress="0.00011843561514979228 -1.1837307312134726e-07 1.5780747375515602e-08 -1.1837307312134726e-07 0.00011851859744638205 -2.05163086519633e-08 1.5780747375515602e-08 -2.05163086519633e-08 0.00011860240920213982" pbc="T T T"
Tl       2.14647334       1.51778542       3.71780148      -0.00000019       0.00000020      -0.00000022
Tl       6.43941975       4.55335763      11.15340428       0.00000004      -0.00000031      -0.00000010
Nb      -0.00000094      -0.00000059      -0.00000035       0.00000484       0.00000204       0.00000118
Te       2.26563354       1.60204473       7.43560267      -0.00422569      -0.00298730       0.00000044
Te       6.32026016       4.46909906       7.43560280       0.00422199       0.00298464       0.00000038
Te       5.30660217       1.60204558       5.67989944       0.00211747      -0.00299379      -0.00366702
Te       3.27929064       4.46909768       9.19130642      -0.00211713       0.00299320       0.00366668
Te       3.27929081       4.46909715       5.67989984      -0.00211880       0.00299580      -0.00366964
Te       5.30660263       1.60204550       9.19130637       0.00211741      -0.00299450       0.00366819
