9
Lattice="5.782891143486201 -1.0649948833667804e-06 3.3387558805927116 1.9276291061555082 5.452158323633302 3.3387563498392763 -8.171122974415399e-07 -3.0782998370586625e-09 6.677513176465431" Properties=species:S:1:pos:R:3:forces:R:3 energy=-31.55486488342285 free_energy=-31.55486488342285 stress="-9.478176798438653e-05 8.279566543478722e-08 2.8121652562163035e-08 8.279566543478722e-08 -9.48854794842191e-05 6.27187759505432e-08 2.8121652562163035e-08 6.27187759505432e-08 -9.492180834058672e-05" pbc="T T T"
Tl       1.92763082       1.36303855       3.33875582      -0.00000012      -0.00001714      -0.00000013
Tl       5.78288891       4.08911879      10.01626906      -0.00000439      -0.00000431       0.00000260
Ni       0.00000033       0.00000857       0.00000116      -0.00000202      -0.00007220      -0.00000946
Se       1.91270768       1.35248734       6.67751367       0.00241289       0.00171565      -0.00000065
Se       5.79782039       4.09966665       6.67751242      -0.00239927      -0.00168476      -0.00000099
Se       4.82653669       1.35248359       4.99521008      -0.00120680       0.00172031       0.00209478
Se       2.88397810       4.09967058       8.35982170       0.00120026      -0.00168552      -0.00207864
Se       2.88397554       4.09966846       4.99520441       0.00120533      -0.00168909       0.00208502
Se       4.82653790       1.35248404       8.35981484      -0.00120588       0.00171699      -0.00209244
