9
Lattice="4.46861052041134 -8.435013748858743e-08 2.5799533128750465 1.4895367832679842 4.213046009834804 2.579953273632081 -1.580353276196626e-08 -5.9237407581633514e-08 5.1599066531226105" Properties=species:S:1:pos:R:3:forces:R:3 energy=-39.091087341308594 free_energy=-39.091087341308594 stress="2.1147046936675906e-05 2.624259565209286e-08 -5.6580375940029626e-08 2.624259565209286e-08 2.118852899002377e-05 -6.619108461336509e-08 -5.6580375940029626e-08 -6.619108461336509e-08 2.1041318177594803e-05" pbc="T T T"
Tl       1.48953687       1.05326156       2.57995328       0.00000186       0.00000040      -0.00000035
Tl       4.46861056       3.15978432       7.73986007       0.00000078       0.00000091       0.00000009
N       -0.00000087      -0.00000075      -0.00000007      -0.00000379      -0.00000276       0.00000193
O        1.31028863       0.92651403       5.15990640       0.00128078       0.00090575       0.00000188
O        4.64785939       3.28653256       5.15990675      -0.00127542      -0.00090480      -0.00000448
O        3.81346612       0.92651358       3.71469593      -0.00063837       0.00090718       0.00110805
O        2.14468115       3.28653228       6.60511721       0.00063705      -0.00090581      -0.00110686
O        2.14468105       3.28653254       3.71469618       0.00063920      -0.00090331       0.00110579
O        3.81346630       0.92651334       6.60511714      -0.00064212       0.00090206      -0.00110698
