9
Lattice="5.983490218397959 -5.411172866765304e-07 3.4545700023758044 1.9944963895022454 5.641288650376673 3.454569724889821 2.124301657140129e-07 -1.8963863884824005e-07 6.909139636811882" Properties=species:S:1:pos:R:3:forces:R:3 energy=-38.53351593017578 free_energy=-38.53351593017578 stress="0.00011506157170515507 -2.1388233051311545e-07 5.3573700142806047e-08 -2.1388233051311545e-07 0.00011522846762090921 -4.6066176651038404e-08 5.3573700142806047e-08 -4.6066176651038404e-08 0.00011533667566254735" pbc="T T T"
Tl       1.99449662       1.41032217       3.45456965      -0.00000060      -0.00000063       0.00000057
Tl       5.98349039       4.23096591      10.36370940      -0.00000117      -0.00000076       0.00000090
Nb      -0.00000139      -0.00000092       0.00000219       0.00001702       0.00000884      -0.00002248
Se       2.05937934       1.45620070       6.90913967      -0.00442594      -0.00312866      -0.00000032
Se       5.91860925       4.18508856       6.90914007       0.00441002       0.00311878      -0.00000102
Se       4.95380047       1.45620033       5.23804484       0.00221181      -0.00312752      -0.00383055
Se       3.02418723       4.18508569       8.58023334      -0.00221825       0.00313918       0.00384290
Se       3.02418622       4.18508695       5.23804554      -0.00221476       0.00313192      -0.00383735
Se       4.95379911       1.45620240       8.58023283       0.00222177      -0.00314111       0.00384747
