9
Lattice="5.710711381629811 -3.637923540306837e-08 3.297080075912136 1.9035703039885887 5.384109715119152 3.2970802876651546 -3.5652182434800843e-07 7.245071841106508e-09 6.594160769338471" Properties=species:S:1:pos:R:3:forces:R:3 energy=-41.460105895996094 free_energy=-41.460105895996094 stress="-3.5794546420220286e-05 -1.5429125710397784e-07 -3.6193372920934053e-07 -1.5429125710397784e-07 -3.5718454455491155e-05 5.258971782495792e-07 -3.6193372920934053e-07 5.258971782495792e-07 -3.5622910218080506e-05" pbc="T T T"
Tl       1.90357053       1.34602763       3.29708056      -0.00000088       0.00000177      -0.00000090
Tl       5.71071050       4.03808247       9.89124083       0.00000017       0.00000150      -0.00000134
Nb      -0.00000176       0.00000492      -0.00000145       0.00002169      -0.00005847       0.00002175
S        1.94285101       1.37380313       6.59416086      -0.00137961      -0.00097415       0.00000108
S        5.67142896       4.01030531       6.59416031       0.00139403       0.00098372       0.00000016
S        4.73928403       1.37380589       4.97964200       0.00070319      -0.00099438      -0.00121552
S        2.87499934       4.01030280       8.20867777      -0.00071372       0.00100747       0.00123662
S        2.87499644       4.01030536       4.97963971      -0.00070031       0.00098825      -0.00121108
S        4.73928646       1.37380087       8.20868389       0.00067554      -0.00095567       0.00116941
