9
Lattice="6.182157582089354 1.9345381568426273e-06 3.5692712204109696 2.060721125122975 5.828590567239028 3.569271034747245 4.898300763756499e-07 1.1897149910518481e-07 7.138541592411545" Properties=species:S:1:pos:R:3:forces:R:3 energy=-29.59822654724121 free_energy=-29.59822654724121 stress="6.974953430471942e-05 7.171313143317093e-08 -9.356506680546772e-09 7.171313143317093e-08 6.972149276407436e-05 -1.5178674983573615e-09 -9.356506680546772e-09 -1.5178674983573615e-09 6.964521162444726e-05" pbc="T T T"
Tl       2.06071933       1.45714752       3.56927116       0.00000936       0.00000997       0.00000229
Tl       6.18215903       4.37144526      10.70781311      -0.00000761      -0.00001139       0.00000108
Ni       0.00000151      -0.00000006      -0.00000178      -0.00000869       0.00000149       0.00000465
Te       2.12809206       1.50478550       7.13854475       0.00697570       0.00493352      -0.00000107
Te       6.11478782       4.32380651       7.13854434      -0.00697283      -0.00493004      -0.00000104
Te       5.11811635       1.50478083       5.41225448      -0.00348848       0.00493457       0.00604335
Te       3.12476341       4.32381061       8.86482838       0.00349118      -0.00493737      -0.00604934
Te       3.12476237       4.32381242       5.41225323       0.00349049      -0.00493609       0.00604644
Te       5.11811502       1.50478184       8.86482840      -0.00348908       0.00493534      -0.00604632
