9
Lattice="4.535497234458476 -8.89695050240776e-08 2.6185705148546035 1.5118323369314393 4.276107681342782 2.6185704987006218 -2.4190054067713198e-08 -3.688943987096215e-08 5.237141071607611" Properties=species:S:1:pos:R:3:forces:R:3 energy=-37.69700622558594 free_energy=-37.69700622558594 stress="-0.00017839338397607207 -8.630082959371066e-08 2.3922407166310222e-08 -8.630082959371066e-08 -0.00017834304890129715 -2.204997784360785e-08 2.3922407166310222e-08 -2.204997784360785e-08 -0.00017833561287261546" pbc="T T T"
Tl       1.51183251       1.06902722       2.61857042      -0.00000057       0.00000060      -0.00000084
Tl       4.53549704       3.20708070       7.85571041       0.00000012       0.00000020       0.00000084
Ni      -0.00000008       0.00000000       0.00000024       0.00000272       0.00000054      -0.00001253
O        1.47675547       1.04422392       5.23714111       0.00304618       0.00215331       0.00000051
O        4.57057436       3.23188366       5.23714133      -0.00304902      -0.00215346       0.00000083
O        3.79711959       1.04422375       3.89747831      -0.00152376       0.00215525       0.00263901
O        2.25021001       3.23188364       6.57680414       0.00152198      -0.00215152      -0.00263501
O        2.25020988       3.23188343       3.89747846       0.00152288      -0.00215423       0.00263962
O        3.79711934       1.04422397       6.57680382      -0.00152054       0.00214926      -0.00263211
