9
Lattice="5.875646027962136 -1.7554177534249147e-07 3.3923058042406558 1.9585485886950889 5.539611986649069 3.3923056687767343 5.972004847208391e-08 -1.236802915406298e-07 6.784611505043201" Properties=species:S:1:pos:R:3:forces:R:3 energy=-31.31327247619629 free_energy=-31.31327247619629 stress="7.520837243646383e-05 -3.679027216207942e-08 4.853560753304009e-08 -3.679027216207942e-08 7.522099622292444e-05 -5.925098278680707e-08 4.853560753304009e-08 -5.925098278680707e-08 7.522793748648837e-05" pbc="T T T"
Tl       1.95854875       1.38490289       3.39230580       0.00000051       0.00000179      -0.00000120
Tl       5.87564605       4.15470886      10.17691717      -0.00000031      -0.00000050       0.00000030
Pd       0.00000007      -0.00000053      -0.00000038      -0.00000129       0.00000653       0.00000330
Se       2.06766667       1.46206098       6.78461134      -0.00153095      -0.00108269       0.00000011
Se       5.76652821       4.07755085       6.78461149       0.00152943       0.00108103      -0.00000047
Se       4.84181246       1.46206105       5.18295786       0.00076623      -0.00108340      -0.00132680
Se       2.99238170       4.07755118       8.38626587      -0.00076424       0.00107899       0.00132285
Se       2.99238237       4.07755040       5.18295795      -0.00076689       0.00108342      -0.00132717
Se       4.84181244       1.46206106       8.38626482       0.00076745      -0.00108512       0.00132909
