9
Lattice="5.575832714665813 -8.530981651716337e-08 3.2192086945365292 1.8586108171091167 5.256945731576619 3.2192087072648228 2.0961519093003686e-08 3.041098420769065e-08 6.438417352766618" Properties=species:S:1:pos:R:3:forces:R:3 energy=-32.48512649536133 free_energy=-32.48512649536133 stress="-2.0352321371319704e-05 -1.5183045931621564e-08 6.675937025413248e-10 -1.5183045931621564e-08 -2.0317396774771623e-05 1.7649183448043004e-08 6.675937025413248e-10 1.7649183448043004e-08 -2.0322979253251106e-05" pbc="T T T"
Tl       1.85861074       1.31423624       3.21920878       0.00000051       0.00000056       0.00000046
Tl       5.57583276       3.94270926       9.65762626       0.00000037      -0.00000095       0.00000076
Pd       0.00000022      -0.00000053       0.00000070      -0.00000273       0.00001079      -0.00001026
S        1.93027720       1.36491178       6.43841777      -0.00064117      -0.00045520       0.00000106
S        5.50416601       3.89203398       6.43841821       0.00064057       0.00045407       0.00000111
S        4.61069392       1.36491225       4.89087835       0.00032169      -0.00045604      -0.00055718
S        2.82374991       3.89203356       7.98595613      -0.00032172       0.00045449       0.00055718
S        2.82374943       3.89203374       4.89087754      -0.00032043       0.00045067      -0.00055373
S        4.61069387       1.36491241       7.98595550       0.00032288      -0.00045836       0.00056076
