9
Lattice="6.781556419415105 -6.164213190339272e-09 3.915333602848743 2.2605188372793212 6.393712795796841 3.9153335394223503 -1.9123612249734243e-08 -9.120365916077029e-08 7.830667238820615" Properties=species:S:1:pos:R:3:forces:R:3 energy=-27.427701950073242 free_energy=-27.427701950073242 stress="-5.469790266943164e-05 -5.527525548387757e-09 3.391421365961378e-09 -5.527525548387757e-09 -5.4697749874321744e-05 8.92011797759551e-09 3.391421365961378e-09 8.92011797759551e-09 -5.470163159770891e-05" pbc="T T T"
Tl       2.26051927       1.59842827       3.91533345       0.00000007       0.00000027      -0.00000043
Tl       6.78155608       4.79528448      11.74600105      -0.00000013      -0.00000005       0.00000075
Pb       0.00000019       0.00000020       0.00000049       0.00000049      -0.00000053      -0.00000068
Te       2.59614892       1.83575430       7.83066739       0.00156239       0.00110539       0.00000062
Te       6.44592591       4.55795783       7.83066675      -0.00156182      -0.00110476      -0.00000011
Te       5.48348195       1.83575498       6.16366472      -0.00078082       0.00110428       0.00135271
Te       3.55859364       4.55795756       9.49766962       0.00078077      -0.00110516      -0.00135271
Te       3.55859365       4.55795825       6.16366452       0.00078078      -0.00110445       0.00135276
Te       5.48348132       1.83575492       9.49766956      -0.00078171       0.00110500      -0.00135289
