9
Lattice="5.824026384858938 -1.9761380298606606e-07 3.362502815569787 1.941342095362644 5.490944034569112 3.362502549893133 1.5039582183729438e-07 -2.1904008666878074e-07 6.725005370646353" Properties=species:S:1:pos:R:3:forces:R:3 energy=-31.373947143554688 free_energy=-31.373947143554688 stress="-4.73427317047026e-05 3.7104022077016907e-09 5.605273134534627e-09 3.7104022077016907e-09 -4.735336187877692e-05 -1.4908710710415107e-08 5.605273134534627e-09 -1.4908710710415107e-08 -4.7382429329445586e-05" pbc="T T T"
Tl       1.94134200       1.37273574       3.36250269      -0.00000290       0.00000233      -0.00000084
Tl       5.82402673       4.11820785      10.08750782       0.00000042      -0.00000109       0.00000112
P        0.00000052      -0.00000074      -0.00000021      -0.00000093       0.00001364       0.00000437
Se       1.89562450       1.34040841       6.72500575       0.00163674       0.00115675      -0.00000052
Se       5.86974426       4.15053587       6.72500555      -0.00164220      -0.00116017       0.00000056
Se       4.87621397       1.34040814       5.00416074      -0.00081833       0.00115603       0.00141543
Se       2.88915425       4.15053552       8.44584946       0.00082417      -0.00116396      -0.00142512
Se       2.88915389       4.15053554       5.00416138       0.00082232      -0.00116163       0.00142270
Se       4.87621421       1.34040796       8.44585005      -0.00081933       0.00115815      -0.00141785
