9
Lattice="5.844960788091808 4.254944344812766e-07 3.3745894767299505 1.948320600310382 5.510682002375779 3.3745895867964166 6.575251969514057e-08 1.8129743339860785e-07 6.749178839573163" Properties=species:S:1:pos:R:3:forces:R:3 energy=-32.81681442260742 free_energy=-32.81681442260742 stress="3.4982781471626367e-06 1.3703522938612878e-07 -6.212515302195243e-08 1.3703522938612878e-07 3.3917146993189817e-06 1.3158901879251061e-07 -6.212515302195243e-08 1.3158901879251061e-07 3.285102138761431e-06" pbc="T T T"
Tl       1.94832044       1.37767057       3.37458938       0.00000169      -0.00000105      -0.00000003
Tl       5.84496109       4.13301210      10.12376840       0.00000054      -0.00000024      -0.00000173
Pt       0.00000323      -0.00000012      -0.00000280      -0.00004612      -0.00000183       0.00003642
Se       2.02052268       1.42872500       6.74917913      -0.00064308      -0.00045466      -0.00000099
Se       5.77275628       4.08195535       6.74917935       0.00067353       0.00047445      -0.00000100
Se       4.83469872       1.42872723       5.12441463       0.00033357      -0.00047092      -0.00057774
Se       2.95858173       4.08195753       8.37394535      -0.00031864       0.00045097       0.00055172
Se       2.95858161       4.08195721       5.12441313      -0.00032271       0.00045756      -0.00056088
Se       4.83470007       1.42872561       8.37394505       0.00032122      -0.00045431       0.00055435
