9
Lattice="5.831687883068811 4.6238619061170215e-07 3.3669262150748325 1.943896370815701 5.4981679394877645 3.3669262603664687 -3.9488592876128347e-07 -2.2375582320491617e-07 6.733853114112019" Properties=species:S:1:pos:R:3:forces:R:3 energy=-29.44654083251953 free_energy=-29.44654083251953 stress="9.874447277979925e-05 1.2080582756368585e-08 -1.276673433636688e-08 1.2080582756368585e-08 9.873884846456349e-05 1.0415375228944868e-08 -1.276673433636688e-08 1.0415375228944868e-08 9.862826846074313e-05" pbc="T T T"
Tl       1.94389587       1.37454219       3.36692703      -0.00000016       0.00000004      -0.00000062
Tl       5.83168750       4.12362689      10.10077956      -0.00000019      -0.00000036      -0.00000047
Pb      -0.00000161       0.00000079      -0.00000485       0.00001043       0.00000074       0.00003291
S        2.13853352       1.51217090       6.73385418       0.00211832       0.00150194      -0.00000332
S        5.63705275       3.98599615       6.73385433      -0.00212678      -0.00150211      -0.00000493
S        4.76242310       1.51217058       5.21895114      -0.00105977       0.00150392       0.00183331
S        3.01316425       3.98599590       8.24875795       0.00106473      -0.00150406      -0.00184827
S        3.01316114       3.98599714       5.21894760       0.00106105      -0.00150414       0.00183519
S        4.76241878       1.51217235       8.24875526      -0.00106743       0.00150401      -0.00184389
