9
Lattice="4.50211362006765 -6.833997656413914e-08 2.599296551592655 1.5007044491941068 4.244633618227626 2.5992965973133972 -7.327826508996849e-08 4.180681305660675e-09 5.198593230107004" Properties=species:S:1:pos:R:3:forces:R:3 energy=-46.68152618408203 free_energy=-46.68152618408203 stress="-0.00015986953803803772 -6.339816138734022e-08 7.805616775158342e-08 -6.339816138734022e-08 -0.00016019275062717497 -5.3828333790306715e-08 7.805616775158342e-08 -5.3828333790306715e-08 -0.00015984124911483377" pbc="T T T"
Tl       1.50070453       1.06115856       2.59929654       0.00000051       0.00000030      -0.00000081
Tl       4.50211367       3.18347526       7.79788945      -0.00000030      -0.00000005      -0.00000106
P        0.00000011      -0.00000008      -0.00000071      -0.00000150       0.00000013      -0.00000648
O        1.39439860       0.98598878       5.19859336       0.00109291       0.00077236       0.00000240
O        4.60841952       3.25864470       5.19859337      -0.00109148      -0.00077319       0.00000023
O        3.80491402       0.98598876       3.80688178      -0.00054550       0.00077260       0.00094724
O        2.19790380       3.25864470       6.59030536       0.00054753      -0.00077116      -0.00094533
O        2.19790363       3.25864459       3.80688188       0.00054598      -0.00077224       0.00094736
O        3.80491414       0.98598885       6.59030523      -0.00054789       0.00077283      -0.00094521
