9
Lattice="5.560291731567192 -8.625717938564341e-08 3.2102358313114867 1.8534305546917929 5.242292615386963 3.210235729420321 -2.0065313539468424e-08 -1.3897883170939596e-07 6.420471697376999" Properties=species:S:1:pos:R:3:forces:R:3 energy=-34.70146179199219 free_energy=-34.70146179199219 stress="-1.1975808774877805e-05 -6.654177653331317e-09 -6.247371509005006e-09 -6.654177653331317e-09 -1.1952252862101886e-05 -1.1856545745203562e-09 -6.247371509005006e-09 -1.1856545745203562e-09 -1.192046511278022e-05" pbc="T T T"
Tl       1.85343042       1.31057320       3.21023583       0.00000044       0.00000040       0.00000099
Tl       5.56029175       3.93171928       9.63070740      -0.00000041      -0.00000012      -0.00000051
Pt      -0.00000002       0.00000015       0.00000021       0.00000183       0.00000035      -0.00000178
S        1.88896573       1.33570032       6.42047167       0.00035179       0.00024912      -0.00000030
S        5.52475690       3.90659237       6.42047159      -0.00035435      -0.00025085       0.00000007
S        4.61580903       1.33569996       4.84612782      -0.00017640       0.00024962       0.00030515
S        2.79791354       3.90659217       7.99481512       0.00017545      -0.00024837      -0.00030413
S        2.79791317       3.90659210       4.84612790       0.00017622      -0.00024825       0.00030398
S        4.61580861       1.33570011       7.99481556      -0.00017464       0.00024810      -0.00030339
