9
Lattice="6.124971975729964 2.1303448361022604e-08 3.5362542167909115 2.0416573475496427 5.774678645816623 3.5362542129436356 -9.234999345426318e-08 -7.0013261076317e-08 7.072508593536688" Properties=species:S:1:pos:R:3:forces:R:3 energy=-29.2276611328125 free_energy=-29.2276611328125 stress="0.00011270416871411726 -2.3209458799300364e-09 4.65262228743768e-09 -2.3209458799300364e-09 0.0001127650320995599 -1.2241577529437109e-08 4.65262228743768e-09 -1.2241577529437109e-08 0.00011271376570221037" pbc="T T T"
Tl       2.04165721       1.44366965       3.53625433      -0.00000029       0.00000033       0.00000040
Tl       6.12497208       4.33100909      10.60876237       0.00000070      -0.00000056       0.00000069
Pb       0.00000005       0.00000077       0.00000040      -0.00000038      -0.00000274      -0.00000029
Se       2.44673755       1.73010602       7.07250977       0.00536437       0.00379685       0.00000144
Se       5.71988560       4.04456985       7.07250969      -0.00537330      -0.00380078       0.00000128
Se       4.90160442       1.73010612       5.65519166      -0.00268043       0.00379834       0.00464656
Se       3.26503023       4.04457006       8.48982061       0.00268871      -0.00379948      -0.00465466
Se       3.26502779       4.04457330       5.65519501       0.00268459      -0.00379428       0.00465225
Se       4.90160196       1.73010950       8.48982429      -0.00268399       0.00380234      -0.00464770
