9
Lattice="4.678402624563867 1.7353640603615993e-07 2.701076307687625 1.5594676726921515 4.4108397610992 2.701076363876622 1.3795266581433728e-07 1.6636468582928431e-07 5.402152376434141" Properties=species:S:1:pos:R:3:forces:R:3 energy=-40.91365051269531 free_energy=-40.91365051269531 stress="5.3627190936822444e-05 -1.3181369240555796e-07 2.1098736979752175e-08 -1.3181369240555796e-07 5.370601866161451e-05 4.252997509723855e-09 2.1098736979752175e-08 4.252997509723855e-09 5.3815638239029795e-05" pbc="T T T"
Tl       1.55946685       1.10271041       2.70107621      -0.00000219      -0.00000019      -0.00000215
Tl       4.67840251       3.30813037       8.10322673      -0.00000162       0.00000005      -0.00000581
Pt       0.00000002       0.00000002      -0.00000038       0.00001365       0.00000159       0.00001091
O        1.56656229       1.10772664       5.40215118      -0.00051308      -0.00036615      -0.00000706
O        4.67130842       3.30311343       5.40215503       0.00050582       0.00035691       0.00000720
O        3.89512243       1.10772692       4.05775951       0.00026379      -0.00036265      -0.00044578
O        2.34274846       3.30311213       6.74654601      -0.00026453       0.00036293       0.00044908
O        2.34274956       3.30311351       4.05775935      -0.00025511       0.00037174      -0.00045180
O        3.89512107       1.10772743       6.74654611       0.00025325      -0.00036414       0.00044516
