9
Lattice="4.967406680982669 9.379758925839143e-08 2.8679333867318717 1.6558023577426093 4.683315474919451 2.8679333134398455 1.9330604434958405e-07 4.692391298913934e-08 5.735866438647864" Properties=species:S:1:pos:R:3:forces:R:3 energy=-36.9206428527832 free_energy=-36.9206428527832 stress="-0.0003530181129463017 3.9867295242856926e-08 1.0697370989021238e-08 3.9867295242856926e-08 -0.0003529567620716989 3.2707156094602396e-08 1.0697370989021238e-08 3.2707156094602396e-08 -0.00035293001565150917" pbc="T T T"
Tl       1.65580323       1.17082969       2.86793353       0.00000356       0.00000027       0.00000062
Tl       4.96740733       3.51248647       8.60380003       0.00000168       0.00000150       0.00000116
Pb       0.00000015      -0.00000010       0.00000019       0.00000090       0.00000435       0.00000029
O        1.71829089       1.21501539       5.73586676       0.00534457       0.00378075      -0.00000066
O        4.90491807       3.46830096       5.73586611      -0.00535029      -0.00378266      -0.00000121
O        4.10826106       1.21501495       4.35601655      -0.00267465       0.00378060       0.00462982
O        2.51494785       3.46830002       7.11571651       0.00267510      -0.00378224      -0.00463006
O        2.51494748       3.46830040       4.35601649       0.00267279      -0.00378343       0.00463089
O        4.10826111       1.21501472       7.11571634      -0.00267349       0.00378078      -0.00463134
