9
Lattice="5.806968822413823 6.752763186958567e-08 3.352654785046216 1.935656357278758 5.474861596488253 3.3526547513141587 4.068415652076796e-07 2.463673638013335e-07 6.705308865422068" Properties=species:S:1:pos:R:3:forces:R:3 energy=-33.748573303222656 free_energy=-33.748573303222656 stress="3.890404695994221e-05 -1.8739369167519726e-08 -1.9144368312851157e-09 -1.8739369167519726e-08 3.8874441088410094e-05 7.045138517014493e-08 -1.9144368312851157e-09 7.045138517014493e-08 3.889329673256725e-05" pbc="T T T"
Tl       1.93565590       1.36871442       3.35265496      -0.00000031       0.00000042       0.00000025
Tl       5.80696945       4.10614706      10.05796397      -0.00000012       0.00000029      -0.00000024
P        0.00000047      -0.00000064       0.00000015      -0.00000435       0.00000909      -0.00000373
S        1.78223726       1.26023265       6.70530919      -0.00495565      -0.00350291       0.00000023
S        5.96038804       4.21463033       6.70530916       0.00495493       0.00350100      -0.00000007
S        4.91584983       1.26023215       4.89611675       0.00248027      -0.00350738      -0.00429499
S        2.82677605       4.21462997       8.51450101      -0.00247824       0.00350475       0.00429273
S        2.82677527       4.21462982       4.89611646      -0.00247401       0.00349945      -0.00428605
S        4.91585038       1.26023244       8.51450166       0.00247753      -0.00350493       0.00429118
