9
Lattice="5.528303289348646 -3.5416365096482914e-08 3.191767692369111 1.8427677618562526 5.212134311792361 3.191767636716687 1.0839434315703446e-08 -6.049537238099535e-08 6.383535365963736" Properties=species:S:1:pos:R:3:forces:R:3 energy=-36.215152740478516 free_energy=-36.215152740478516 stress="0.00013006041990593076 2.7842759209306678e-08 8.377091909039791e-09 2.7842759209306678e-08 0.00013003112690057606 -7.103688304255229e-09 8.377091909039791e-09 -7.103688304255229e-09 0.00013005282380618155" pbc="T T T"
Tl       1.84276768       1.30303361       3.19176764       0.00000033      -0.00000009      -0.00000010
Tl       5.52830332       3.90910071       9.57530304       0.00000044      -0.00000057       0.00000021
Rh      -0.00000000       0.00000033      -0.00000021       0.00000099      -0.00000258      -0.00000074
S        1.87897845       1.32863806       6.38353538      -0.00050634      -0.00035739      -0.00000014
S        5.49209280       3.88349594       6.38353540       0.00050598       0.00035769      -0.00000001
S        4.58881411       1.32863805       4.81901069       0.00025207      -0.00035608      -0.00043648
S        2.78225705       3.88349606       7.94806010      -0.00025320       0.00035766       0.00043848
S        2.78225683       3.88349600       4.81901083      -0.00025329       0.00035787      -0.00043884
S        4.58881410       1.32863811       7.94806009       0.00025290      -0.00035679       0.00043762
