9
Lattice="5.491526672350853 1.6185542194550556e-07 3.170534263824216 1.8305089455036443 5.17746171118495 3.1705344333551646 -2.697043917953079e-07 1.692234069699991e-08 6.341068994790213" Properties=species:S:1:pos:R:3:forces:R:3 energy=-37.9122314453125 free_energy=-37.9122314453125 stress="1.1025144885934424e-05 8.106670001950533e-09 -1.2709459262794098e-08 8.106670001950533e-09 1.1000161066476721e-05 -1.2145188854617572e-08 -1.2709459262794098e-08 -1.2145188854617572e-08 1.0981312698277179e-05" pbc="T T T"
Tl       1.83050906       1.29436558       3.17053449      -0.00000061       0.00000009      -0.00000067
Tl       5.49152631       3.88309651       9.51160299       0.00000051      -0.00000186      -0.00000136
Ru      -0.00000055      -0.00000093      -0.00000202      -0.00000183      -0.00000295      -0.00000561
S        1.89214413       1.33794822       6.34106916      -0.00038999      -0.00027490       0.00000232
S        5.42989151       3.83951416       6.34106885       0.00039011       0.00027624       0.00000094
S        4.54545462       1.33794842       4.80917974       0.00019589      -0.00027400      -0.00033605
S        2.77658026       3.83951410       7.87295897      -0.00019452       0.00027514       0.00033855
S        2.77658103       3.83951397       4.80917980      -0.00019434       0.00027618      -0.00033534
S        4.54545473       1.33794772       7.87295874       0.00019488      -0.00027370       0.00033766
