9
Lattice="4.667749735282251 -1.9686262200115036e-07 2.6949278154869045 1.5559165719957189 4.400796546676818 2.6949275051515382 3.925029153665762e-07 -1.0254007174729926e-07 5.389854951138767" Properties=species:S:1:pos:R:3:forces:R:3 energy=-42.600486755371094 free_energy=-42.600486755371094 stress="-0.00026187533512711525 -1.6703391736427875e-07 -4.114350460326932e-08 -1.6703391736427875e-07 -0.0002618464932311326 5.9246354489062014e-09 -4.114350460326932e-08 5.9246354489062014e-09 -0.0002619800507090986" pbc="T T T"
Tl       1.55591207       1.10019765       2.69492770      -0.00001077      -0.00000321      -0.00000126
Tl       4.66775111       3.30059731       8.08478331       0.00000104      -0.00000087       0.00000057
Rh       0.00000041       0.00000022      -0.00000113      -0.00001816      -0.00002100       0.00003998
O        1.56376781       1.10575120       5.38985483      -0.00633092      -0.00447630       0.00000028
O        4.65989820       3.29504459       5.38985548       0.00635576       0.00449155       0.00000181
O        3.88586697       1.10575227       4.04919200       0.00318409      -0.00449519      -0.00550455
O        2.33780162       3.29504565       6.73051831      -0.00316801       0.00448446       0.00549020
O        2.33780132       3.29504527       4.04919243      -0.00318250       0.00450251      -0.00550644
O        3.88586702       1.10575031       6.73051825       0.00316944      -0.00448162       0.00547943
