9
Lattice="4.876296848922427 5.8356428670205435e-09 2.815331267476162 1.6254322929404053 4.597416729307015 2.8153312597436506 1.1829471680789102e-08 -1.1056561048339375e-09 5.6306625144630775" Properties=species:S:1:pos:R:3:forces:R:3 energy=-47.105751037597656 free_energy=-47.105751037597656 stress="0.0006473008543252945 -1.3256440389852742e-08 -2.4549836122322866e-11 -1.3256440389852742e-08 0.0006472580716945231 -6.917335593215057e-09 -2.4549836122322866e-11 -6.917335593215057e-09 0.0006473184912465513" pbc="T T T"
Tl       1.62543227       1.14935420       2.81533127       0.00000050       0.00000060       0.00000005
Tl       4.87629685       3.44806254       8.44599379      -0.00000028      -0.00000027      -0.00000025
Ru       0.00000006      -0.00000003       0.00000010      -0.00000017      -0.00000002      -0.00000039
O        1.51663466       1.07242266       5.63066253       0.00205848       0.00145495       0.00000004
O        4.98509449       3.52499406       5.63066252      -0.00205848      -0.00145549       0.00000008
O        4.11797957       1.07242262       4.12877535      -0.00102915       0.00145531       0.00178373
O        2.38374964       3.52499404       7.13254962       0.00102912      -0.00145498      -0.00178373
O        2.38374958       3.52499413       4.12877534       0.00102840      -0.00145546       0.00178391
O        4.11797951       1.07242271       7.13254965      -0.00102885       0.00145519      -0.00178334
