9
Lattice="5.819352309507407 7.264586023414534e-08 3.359804789339941 1.9397841250604986 5.4865384114212254 3.3598048700531122 -4.290372352301059e-08 6.851558921906179e-08 6.719609652991269" Properties=species:S:1:pos:R:3:forces:R:3 energy=-34.24717712402344 free_energy=-34.24717712402344 stress="-0.00015123517368920147 1.8271938628799944e-08 1.1617615314207796e-08 1.8271938628799944e-08 -0.0001512466260464862 -1.3007660726316317e-08 1.1617615314207796e-08 -1.3007660726316317e-08 -0.00015128379163797945" pbc="T T T"
Tl       1.93978407       1.37163461       3.35980475       0.00000001       0.00000009      -0.00000014
Tl       5.81935213       4.11490383      10.07941451       0.00000064      -0.00000010      -0.00000003
Rh       0.00000113       0.00000021       0.00000006      -0.00001223       0.00000020      -0.00000023
Se       2.01229582       1.42290793       6.71960956      -0.00030051      -0.00021217       0.00000024
Se       5.74684018       4.06363008       6.71960952       0.00030816       0.00021707       0.00000018
Se       4.81320407       1.42290831       5.10250436       0.00015262      -0.00021474      -0.00026384
Se       2.94593187       4.06363059       8.33671558      -0.00015018       0.00021231       0.00026029
Se       2.94593208       4.06363047       5.10250372      -0.00015126       0.00021301      -0.00026105
Se       4.81320418       1.42290815       8.33671511       0.00015267      -0.00021570       0.00026468
