9
Lattice="5.94999131191481 -1.3397157623902987e-07 3.435229400263318 1.983330492653428 5.609705276020409 3.435229085621931 3.2646088251789346e-07 -1.5451249846740983e-07 6.870458235079854" Properties=species:S:1:pos:R:3:forces:R:3 energy=-30.39732551574707 free_energy=-30.39732551574707 stress="-2.2394811821868643e-05 8.932464545807761e-09 -4.8523607354411524e-09 8.932464545807761e-09 -2.2421030735131353e-05 -1.7930760876083696e-08 -4.8523607354411524e-09 -1.7930760876083696e-08 -2.2473217541119084e-05" pbc="T T T"
Tl       1.98333072       1.40242620       3.43522918      -0.00000075      -0.00000009      -0.00000029
Tl       5.94999139       4.20727857      10.30568772       0.00000059       0.00000060      -0.00000001
Sb       0.00000011       0.00000049       0.00000036      -0.00000022      -0.00000210      -0.00000039
Se       2.32525975       1.64420602       6.87045822      -0.00067955      -0.00047967      -0.00000029
Se       5.60806243       3.96549900       6.87045882       0.00068009       0.00048178       0.00000007
Se       4.78736170       1.64420630       5.44896192       0.00033864      -0.00047936      -0.00058773
Se       3.14596104       3.96549812       8.29195360      -0.00033927       0.00048000       0.00058705
Se       3.14595997       3.96549874       5.44896281      -0.00033958       0.00047964      -0.00058758
Se       4.78736154       1.64420657       8.29195412       0.00034000      -0.00048077       0.00058912
