9
Lattice="6.413783591208835 -6.62482030307961e-08 3.7029996839403077 2.1379278935223933 6.046973793624417 3.7029995241664975 1.2246895824759135e-07 -1.0908357315477514e-07 7.405999155758205" Properties=species:S:1:pos:R:3:forces:R:3 energy=-28.541797637939453 free_energy=-28.541797637939453 stress="-4.903845547232777e-05 -1.0839273478779887e-08 -7.82903875062857e-09 -1.0839273478779887e-08 -4.91720529680606e-05 7.360592579885861e-09 -7.82903875062857e-09 7.360592579885861e-09 -4.901450301986188e-05" pbc="T T T"
Tl       2.13792794       1.51174327       3.70299937       0.00000008      -0.00000111      -0.00000086
Tl       6.41378362       4.53523032      11.10899883      -0.00000001       0.00000090      -0.00000070
Sr      -0.00000035      -0.00000074      -0.00000020      -0.00000000       0.00000278       0.00000237
Se       2.55852932       1.80915305       7.40600008      -0.00126341      -0.00089791       0.00000299
Se       5.99318271       4.23782113       7.40599991       0.00126418       0.00089856       0.00000301
Se       5.13451981       1.80915114       5.91875091       0.00063438      -0.00090413      -0.00109610
Se       3.41719351       4.23781983       8.89324628      -0.00062884       0.00089124       0.00109154
Se       3.41719190       4.23782274       5.91875095      -0.00063442       0.00090313      -0.00109531
Se       5.13451797       1.80915377       8.89324742       0.00062807      -0.00089349       0.00109313
