9
Lattice="5.859381830165078 -2.3490508532106653e-07 3.3829155587804847 1.9531270392586026 5.524278104201653 3.382915586480138 -1.4865825749590768e-07 -7.119217847174727e-08 6.765831375044665" Properties=species:S:1:pos:R:3:forces:R:3 energy=-30.368703842163086 free_energy=-30.368703842163086 stress="-0.00016617552319075912 -9.198741679483646e-08 -1.0461209676293493e-08 -9.198741679483646e-08 -0.00016614394553471357 -3.550519211970027e-09 -1.0461209676293493e-08 -3.550519211970027e-09 -0.00016609628801234066" pbc="T T T"
Tl       1.95312718       1.38106943       3.38291566      -0.00000044       0.00000045      -0.00000072
Tl       5.85938159       4.14320831      10.14874688       0.00000021       0.00000004       0.00000006
Se      -0.00000019      -0.00000038       0.00000106       0.00000601       0.00000199       0.00000417
S        1.84062032       1.30151540       6.76583099       0.00379330       0.00268215      -0.00000013
S        5.97188784       4.22276293       6.76583106      -0.00380141      -0.00268716      -0.00000018
S        4.93907085       1.30151633       4.97694039      -0.00189486       0.00268102       0.00328171
S        2.87343729       4.22276242       8.55472163       0.00189573      -0.00267923      -0.00328261
S        2.87343838       4.22276162       4.97694060       0.00189632      -0.00267965       0.00328106
S        4.93907166       1.30151525       8.55472169      -0.00189474       0.00268060      -0.00328314
