9
Lattice="4.650783164953809 -5.842492197594755e-08 2.685130646269711 1.5502610508673156 4.384799811381093 2.685130557993693 1.6415672289293163e-07 7.960637961992152e-09 5.3702610082116635" Properties=species:S:1:pos:R:3:forces:R:3 energy=-39.821922302246094 free_energy=-39.821922302246094 stress="0.00012964042252860963 -1.2289051198877132e-07 -8.595776535003097e-08 -1.2289051198877132e-07 0.0001297465496463701 -1.889064726867673e-08 -8.595776535003097e-08 -1.889064726867673e-08 0.00012958981096744537" pbc="T T T"
Tl       1.55025986       1.09619969       2.68513086       0.00000011       0.00000068       0.00000032
Tl       4.65078467       3.28860065       8.05539210      -0.00000012       0.00000046      -0.00000080
Sn       0.00000018       0.00000011      -0.00000049       0.00000152       0.00000062       0.00001177
O        1.65855604       1.17277610       5.37026093       0.00224054       0.00158310       0.00000266
O        4.54248843       3.21202381       5.37026054      -0.00224417      -0.00158352      -0.00000324
O        3.82150520       1.17277583       4.12148264      -0.00111604       0.00157970       0.00193608
O        2.37953919       3.21202388       6.61903971       0.00112084      -0.00158405      -0.00194222
O        2.37953854       3.21202274       4.12148213       0.00111875      -0.00158215       0.00193560
O        3.82150588       1.17277617       6.61903976      -0.00112084       0.00158459      -0.00194067
