9
Lattice="5.950763496149891 -2.9538755077153707e-07 3.435675079060783 1.9835876700423232 5.610433506768798 3.4356748773000825 7.069435519385208e-08 -1.9711682831663395e-07 6.871350035675522" Properties=species:S:1:pos:R:3:forces:R:3 energy=-30.39731788635254 free_energy=-30.39731788635254 stress="0.00011878275108756498 5.669769986837991e-09 -8.491209513294962e-09 5.669769986837991e-09 0.0001187718371511437 3.982664509294409e-08 -8.491209513294962e-09 3.982664509294409e-08 0.00011879679368576035" pbc="T T T"
Tl       1.98358771       1.40260825       3.43567492       0.00000062       0.00000104       0.00000058
Tl       5.95076341       4.20782487      10.30702500       0.00000092       0.00000087      -0.00000036
Sb       0.00000056       0.00000036       0.00000060      -0.00000069      -0.00000021      -0.00000276
Se       2.32538035       1.64429237       6.87135024       0.00280887       0.00198641       0.00000047
Se       5.60896672       3.96613869       6.87135003      -0.00281245      -0.00198852       0.00000067
Se       4.78807350       1.64429349       5.44951464      -0.00140383       0.00198637       0.00243300
Se       3.14627982       3.96613984       8.29318373       0.00140573      -0.00198674      -0.00243361
Se       3.14627964       3.96614083       5.44951551       0.00140552      -0.00198700       0.00243546
Se       4.78807319       1.64429331       8.29318537      -0.00140470       0.00198780      -0.00243345
