9
Lattice="5.903019081309868 -4.761500565610572e-09 3.408109757305443 1.9676730391153727 5.565419865543436 3.408109728724383 2.086720995666307e-09 -3.352897588941929e-08 6.816219510996562" Properties=species:S:1:pos:R:3:forces:R:3 energy=-31.137001037597656 free_energy=-31.137001037597656 stress="-3.136736631859094e-05 -3.125121850189316e-08 1.0007353168361988e-08 -3.125121850189316e-08 -3.1394742109114304e-05 1.1044022363293493e-09 1.0007353168361988e-08 1.1044022363293493e-09 -3.1338600820163265e-05" pbc="T T T"
Tl       1.96767301       1.39135479       3.40810971       0.00000055       0.00000047      -0.00000014
Tl       5.90301907       4.17406506      10.22432932       0.00000005       0.00000083      -0.00000034
Sb       0.00000038       0.00000052      -0.00000034      -0.00000415      -0.00001226       0.00001102
S        2.00526983       1.41793997       6.81621946      -0.00048161      -0.00034076       0.00000071
S        5.86542190       4.14747976       6.81621948       0.00049150       0.00034776       0.00000059
S        4.90038374       1.41794032       5.14472465       0.00024420      -0.00034785      -0.00042439
S        2.97030838       4.14747947       8.48771407      -0.00024441       0.00034475       0.00042373
S        2.97030828       4.14747927       5.14472505      -0.00024763       0.00034994      -0.00042915
S        4.90038383       1.41794011       8.48771441       0.00024158      -0.00034282       0.00041813
