9
Lattice="4.480196481563322 -6.637179497981938e-07 2.5866432775482355 1.4933985090663504 4.223968946066826 2.5866427447037714 1.598560698611881e-07 -5.39563160732652e-07 5.173286278217601" Properties=species:S:1:pos:R:3:forces:R:3 energy=-44.036861419677734 free_energy=-44.036861419677734 stress="0.00020225209300406277 -7.119558631529799e-08 -7.9050082035792e-08 -7.119558631529799e-08 0.0002021835680352524 -5.899561017486121e-08 -7.9050082035792e-08 -5.899561017486121e-08 0.00020263774786144495" pbc="T T T"
Tl       1.49339739       1.05599257       2.58664313       0.00000314      -0.00000092      -0.00000428
Tl       4.48019608       3.16797607       7.75992928       0.00000185      -0.00000381      -0.00000152
S        0.00000023       0.00000042      -0.00000115      -0.00000110       0.00000004       0.00002709
O        1.32488834       0.93683491       5.17328641      -0.00102746      -0.00071323       0.00001096
O        4.64870869       3.28713121       5.17328596       0.00101829       0.00072002       0.00000399
O        3.81775207       0.93683591       3.73402993       0.00052422      -0.00073123      -0.00090218
O        2.15584304       3.28713267       6.61254405      -0.00050223       0.00070131       0.00087035
O        2.15584313       3.28713165       3.73402991      -0.00052196       0.00073743      -0.00089288
O        3.81775301       0.93683495       6.61254303       0.00050509      -0.00071013       0.00088906
