9
Lattice="6.538745870416886 1.5327002292509735e-07 3.775146405300502 2.1795819945958557 6.164788781756735 3.7751465901348005 -1.3551802541304312e-07 1.3054915923633011e-07 7.550293045325201" Properties=species:S:1:pos:R:3:forces:R:3 energy=-32.72333908081055 free_energy=-32.72333908081055 stress="-5.262340891931672e-06 2.27277325848263e-08 -4.690341004476295e-09 2.27277325848263e-08 -5.321829576132586e-06 -1.3881197524767686e-08 -4.690341004476295e-09 -1.3881197524767686e-08 -5.374372904043412e-06" pbc="T T T"
Tl       2.17958171       1.54119703       3.77514707       0.00000004       0.00000004      -0.00000075
Tl       6.53874567       4.62359167      11.32543883       0.00000005      -0.00000013      -0.00000035
Sc      -0.00000047      -0.00000015      -0.00000652       0.00000371       0.00000161       0.00003948
Te       2.37068888       1.67633012       7.55029327      -0.00034126      -0.00023932      -0.00000060
Te       6.34763889       4.48845872       7.55029359       0.00033947       0.00024000      -0.00000076
Te       5.35339967       1.67633007       5.82822273       0.00017383      -0.00024548      -0.00030047
Te       3.36492639       4.48846191       9.27236631      -0.00016501       0.00022987       0.00028042
Te       3.36492808       4.48845868       5.82822206      -0.00017457       0.00024542      -0.00029908
Te       5.35340204       1.67632820       9.27236676       0.00016369      -0.00023201       0.00028209
