9
Lattice="5.968770050953906 6.339455457751681e-08 3.446070874328234 1.9895900725708155 5.627410263101624 3.446070881572938 4.125710077984853e-08 3.804610462877886e-08 6.8921416771969435" Properties=species:S:1:pos:R:3:forces:R:3 energy=-30.0928955078125 free_energy=-30.0928955078125 stress="-4.439694021129981e-05 -2.9676224144736807e-08 1.9520054905797224e-08 -2.9676224144736807e-08 -4.4422798964660615e-05 -1.68849805248783e-08 1.9520054905797224e-08 -1.68849805248783e-08 -4.436561721377075e-05" pbc="T T T"
Tl       1.98959001       1.40685262       3.44607094      -0.00000005       0.00000018      -0.00000049
Tl       5.96877005       4.22055772      10.33821271       0.00000004      -0.00000001      -0.00000043
Sn      -0.00000009      -0.00000013      -0.00000091       0.00000015      -0.00000023       0.00000259
Se       2.31983326       1.64036979       6.89214161       0.00066164       0.00046723      -0.00000126
Se       5.63852713       3.98704080       6.89214135      -0.00066131      -0.00046781      -0.00000123
Se       4.80885302       1.64037078       5.45510598      -0.00033098       0.00046910       0.00057328
Se       3.14950669       3.98704024       8.32917815       0.00033040      -0.00046748      -0.00057326
Se       3.14950748       3.98703938       5.45510622       0.00033132      -0.00046841       0.00057404
Se       4.80885308       1.64037032       8.32917767      -0.00033124       0.00046751      -0.00057320
