9
Lattice="4.637092644550995 -4.699453181182929e-07 2.677228303726159 1.5456972424468285 4.371893168367804 2.677228065860512 5.4399064152313746e-08 -2.528588697560592e-07 5.354456513230521" Properties=species:S:1:pos:R:3:forces:R:3 energy=-41.739219665527344 free_energy=-41.739219665527344 stress="0.0004121650126762688 -3.8331947393999144e-07 2.9614392715870963e-08 -3.8331947393999144e-07 0.0004125491250306368 -1.2153806849823923e-08 2.9614392715870963e-08 -1.2153806849823923e-08 0.00041289368527941406" pbc="T T T"
Tl       1.54569722       1.09297539       2.67722741      -0.00000289       0.00000160       0.00000064
Tl       4.63709129       3.27891681       8.03168366      -0.00000223      -0.00000417       0.00000216
Sb      -0.00000018      -0.00000105       0.00000280       0.00000134       0.00003623      -0.00011420
O        1.60882672       1.13761245       5.35445765      -0.00650299      -0.00459874      -0.00000627
O        4.57396392       3.23427965       5.35445572       0.00648654       0.00459647      -0.00000885
O        3.83268061       1.13761201       4.07051453       0.00324082      -0.00459242      -0.00562072
O        2.35011280       3.23427671       6.63840003      -0.00327238       0.00463569       0.00565892
O        2.35011033       3.23428070       4.07051250      -0.00323743       0.00457484      -0.00560164
O        3.83267802       1.13761631       6.63839807       0.00328895      -0.00464970       0.00568873
