9
Lattice="6.935526524914652 -1.4833660788306246e-07 4.004228096361781 2.311842061446667 6.538877080100537 4.004228050759873 5.8220936607995864e-08 -1.4682301262357112e-08 8.008456091881813" Properties=species:S:1:pos:R:3:forces:R:3 energy=-27.594995498657227 free_energy=-27.594995498657227 stress="-0.00016586696438025683 -4.814232568151056e-09 -2.403185206389935e-09 -4.814232568151056e-09 -0.00016586680430918932 6.043948452827408e-09 -2.403185206389935e-09 6.043948452827408e-09 -0.00016585631237830967" pbc="T T T"
Tl       2.31184217       1.63471913       4.00422797      -0.00000003      -0.00000027       0.00000014
Tl       6.93552656       4.90415781      12.01268448       0.00000015       0.00000012      -0.00000008
Sr       0.00000006      -0.00000007       0.00000020       0.00000088       0.00000029       0.00000013
Te       2.69172904       1.90333982       8.00845621      -0.00504878      -0.00357061       0.00000022
Te       6.55563957       4.63553728       8.00845594       0.00504837       0.00356945       0.00000018
Te       5.58966204       1.90333975       6.33533404       0.00252453      -0.00357029      -0.00437222
Te       3.65770663       4.63553703       9.68157800      -0.00252471       0.00357073       0.00437289
Te       3.65770659       4.63553729       6.33533390      -0.00252465       0.00357048      -0.00437291
Te       5.58966193       1.90333958       9.68157818       0.00252424      -0.00356988       0.00437162
