9
Lattice="5.032480450711724 8.889469682629976e-08 2.90550393565558 1.6774935533396622 4.744668163953674 2.905503959976395 1.61562673373795e-08 4.121101308064313e-08 5.811007843327682" Properties=species:S:1:pos:R:3:forces:R:3 energy=-35.39065170288086 free_energy=-35.39065170288086 stress="-3.226522312615998e-05 -1.7395237250639184e-08 1.0449296539150055e-08 -1.7395237250639184e-08 -3.23544409184251e-05 -5.105418754425273e-09 1.0449296539150055e-08 -5.105418754425273e-09 -3.240381556679495e-05" pbc="T T T"
Tl       1.67749324       1.18616704       2.90550404      -0.00000157      -0.00000006       0.00000011
Tl       5.03248050       3.55850132       8.71651191       0.00000047       0.00000024       0.00000017
Sr       0.00000012       0.00000009       0.00000006       0.00000034      -0.00000001      -0.00000022
O        2.00077364       1.41476059       5.81100787      -0.00048220      -0.00034089       0.00000032
O        4.70920021       3.32990751       5.81100774       0.00048283       0.00034116       0.00000061
O        4.03209392       1.41476075       4.63822468       0.00024138      -0.00034076      -0.00041646
O        2.67788037       3.32990779       6.98379076      -0.00024144       0.00034101       0.00041622
O        2.67788031       3.32990766       4.63822470      -0.00024135       0.00034025      -0.00041690
O        4.03209378       1.41476043       6.98379106       0.00024153      -0.00034100       0.00041616
