9
Lattice="5.868720443139711 -5.600859028705658e-08 3.388307178756586 1.956240075673526 5.533082627130625 3.388307212071181 -5.439802470454347e-09 3.6955413866960395e-08 6.776614366935085" Properties=species:S:1:pos:R:3:forces:R:3 energy=-31.17327308654785 free_energy=-31.17327308654785 stress="-0.0002860114327631891 4.219748106493171e-08 2.0238676512462916e-08 4.219748106493171e-08 -0.00028602717793546617 2.421128009189033e-08 2.0238676512462916e-08 2.421128009189033e-08 -0.000286052847513929" pbc="T T T"
Tl       1.95624009       1.38327076       3.38830711      -0.00000010      -0.00000023       0.00000063
Tl       5.86872029       4.14981203      10.16492143       0.00000061      -0.00000092      -0.00000038
Sn      -0.00000064      -0.00000078      -0.00000020       0.00001317       0.00001658       0.00000582
S        2.05465289       1.45285862       6.77661474       0.00167021       0.00118002       0.00000091
S        5.77030958       4.08022506       6.77661394      -0.00168964      -0.00119442      -0.00000021
S        4.84139450       1.45285795       5.16768826      -0.00083758       0.00118658       0.00145292
S        2.98356546       4.08022439       8.38554133       0.00084254      -0.00119004      -0.00145960
S        2.98356552       4.08022431       5.16768782       0.00084069      -0.00118738       0.00145701
S        4.84139424       1.45285809       8.38554069      -0.00083993       0.00118968      -0.00145718
