9
Lattice="6.608234008764027 -1.3261412845844114e-07 3.8152657709364433 2.202744568903228 6.230302755006287 3.8152657287695555 3.820281947613883e-08 -2.4630143227807515e-08 7.630531475703622" Properties=species:S:1:pos:R:3:forces:R:3 energy=-27.945398330688477 free_energy=-27.945398330688477 stress="2.980809767905157e-05 -1.4835280781611004e-09 -8.598296297179786e-09 -1.4835280781611004e-09 2.982045589305926e-05 1.9996667433019866e-08 -8.598296297179786e-09 1.9996667433019866e-08 2.981519719469361e-05" pbc="T T T"
Tl       2.20274472       1.55757568       3.81526562       0.00000013      -0.00000044       0.00000007
Tl       6.60823400       4.67272706      11.44579725      -0.00000024       0.00000028       0.00000010
Sb      -0.00000064       0.00000032      -0.00000045       0.00000254      -0.00000137       0.00000167
Te       2.42757432       1.71655422       7.63053122       0.00022097       0.00015658      -0.00000009
Te       6.38340491       4.51374896       7.63053135      -0.00022224      -0.00015630       0.00000013
Te       5.39444663       1.71655423       5.91760670      -0.00011042       0.00015570       0.00019051
Te       3.41653143       4.51374882       9.34345640       0.00011005      -0.00015570      -0.00019139
Te       3.41653174       4.51374801       5.91760695       0.00011028      -0.00015582       0.00019126
Te       5.39444730       1.71655312       9.34345688      -0.00011102       0.00015701      -0.00019211
