9
Lattice="6.251641988295751 -3.2516950903244585e-08 3.6093873027853585 2.083880643120414 5.894104429867578 3.609387283711226 3.688209245429098e-08 2.7186620762321993e-09 7.218774541689061" Properties=species:S:1:pos:R:3:forces:R:3 energy=-28.776851654052734 free_energy=-28.776851654052734 stress="0.00012239604257047176 5.414025228134278e-09 1.6627588195206044e-08 5.414025228134278e-09 0.00012242562661413103 -9.50750855821525e-09 1.6627588195206044e-08 -9.50750855821525e-09 0.000122368976008147" pbc="T T T"
Tl       2.08388064       1.47352607       3.60938727      -0.00000011       0.00000001       0.00000013
Tl       6.25164205       4.42057835      10.82816196      -0.00000046      -0.00000021       0.00000032
Sr      -0.00000014      -0.00000026       0.00000010       0.00000046       0.00000098       0.00000050
S        2.46509962       1.74308922       7.21877466       0.00628190       0.00444343       0.00000088
S        5.87042240       4.15101532       7.21877446      -0.00628325      -0.00444349      -0.00000039
S        5.01909220       1.74308921       5.74422620      -0.00314069       0.00444350       0.00543962
S        3.31643089       4.15101564       8.69332292       0.00314203      -0.00444306      -0.00543994
S        3.31643089       4.15101514       5.74422631       0.00314210      -0.00444456       0.00544065
S        5.01909210       1.74308897       8.69332266      -0.00314196       0.00444335      -0.00544190
