9
Lattice="5.748673910468849 1.5993737889077793e-08 3.3189981707598237 1.916224548228507 5.4199014552856015 3.318998350327647 -1.9966282972093276e-07 7.874175550734395e-08 6.637996687345788" Properties=species:S:1:pos:R:3:forces:R:3 energy=-35.179264068603516 free_energy=-35.179264068603516 stress="-5.9669080656021833e-05 1.349785061499631e-09 3.0554414109928985e-08 1.349785061499631e-09 -5.965595119050704e-05 -1.5749073156712257e-08 3.0554414109928985e-08 -1.5749073156712257e-08 -5.964822048554197e-05" pbc="T T T"
Tl       1.91622447       1.35497554       3.31899788       0.00000069      -0.00000078       0.00000101
Tl       5.74867374       4.06492631       9.95699506      -0.00000017       0.00000033      -0.00000087
Sc       0.00000085      -0.00000073       0.00000020      -0.00000753       0.00000654      -0.00000056
S        2.05985567       1.45653851       6.63799705       0.00160180       0.00113179      -0.00000074
S        5.60504191       3.96336277       6.63799590      -0.00159889      -0.00113120      -0.00000168
S        4.71874612       1.45653820       5.10288599      -0.00079884       0.00113001       0.00138728
S        2.94615229       3.96336315       8.17310761       0.00080033      -0.00113337      -0.00138748
S        2.94615262       3.96336361       5.10288600       0.00080198      -0.00113346       0.00138748
S        4.71874543       1.45653884       8.17310719      -0.00079931       0.00113018      -0.00138438
