9
Lattice="6.6081109483210545 -1.793204799896542e-07 3.8151942075418273 2.2027033681153942 6.2301864749449445 3.8151944019817843 -1.2277768980534786e-07 1.5132245247098405e-07 7.630388627740768" Properties=species:S:1:pos:R:3:forces:R:3 energy=-27.94540023803711 free_energy=-27.94540023803711 stress="1.8353948689764366e-05 -1.0075836165412966e-08 -5.363218757992172e-09 -1.0075836165412966e-08 1.8360238755121827e-05 2.266050014299026e-09 -5.363218757992172e-09 2.266050014299026e-09 1.8350408936385065e-05" pbc="T T T"
Tl       2.20270332       1.55754637       3.81519389       0.00000006       0.00000003      -0.00000053
Tl       6.60811085       4.67263996      11.44558377      -0.00000004       0.00000007       0.00000040
Sb       0.00000037      -0.00000049       0.00000207      -0.00000144       0.00000058      -0.00000531
Te       2.42750526       1.71650524       7.63038894       0.00037037       0.00026266       0.00000114
Te       6.38331036       4.51368081       7.63038863      -0.00037161      -0.00026235       0.00000076
Te       5.39435820       1.71650477       5.91747544      -0.00018435       0.00026213       0.00032146
Te       3.41645628       4.51368076       9.34330267       0.00018556      -0.00026257      -0.00032066
Te       3.41645525       4.51368230       5.91747322       0.00018610      -0.00026201       0.00032234
Te       5.39435680       1.71650612       9.34330043      -0.00018457       0.00026149      -0.00031951
