9
Lattice="6.591754038968996 -2.180211936521601e-07 3.8057510638138288 2.19725113255385 6.2147654151882765 3.8057510780457466 -1.9834502664955948e-08 3.4053126776127274e-09 7.61150216198197" Properties=species:S:1:pos:R:3:forces:R:3 energy=-28.0293025970459 free_energy=-28.0293025970459 stress="-4.669418922276236e-05 -5.295739402555455e-10 1.8430819093140371e-09 -5.295739402555455e-10 -4.669168629334308e-05 -6.504680127861207e-10 1.8430819093140371e-09 -6.504680127861207e-10 -4.666475797421299e-05" pbc="T T T"
Tl       2.19725141       1.55369150       3.80575120       0.00000006       0.00000022      -0.00000005
Tl       6.59175382       4.66107383      11.41725315       0.00000002      -0.00000011      -0.00000009
Sn       0.00000061       0.00000137      -0.00000014      -0.00000401      -0.00000660       0.00000004
Te       2.41841108       1.71007498       7.61150200      -0.00694266      -0.00490998       0.00000009
Te       6.37059200       4.50468921       7.61150210       0.00694856       0.00491334       0.00000004
Te       5.38254858       1.71007479       5.90015675       0.00347264      -0.00491123      -0.00601438
Te       3.40645720       4.50469025       9.32284683      -0.00347349       0.00491275       0.00601682
Te       3.40645730       4.50469011       5.90015769      -0.00347359       0.00491259      -0.00601673
Te       5.38254862       1.71007472       9.32284766       0.00347255      -0.00491102       0.00601442
