9
Lattice="4.636482826660155 -6.313893121413202e-07 2.6768742146069346 1.5454939915985404 4.371315941255001 2.67687367537685 1.47042408332997e-07 -5.564447258286298e-07 5.35374817452919" Properties=species:S:1:pos:R:3:forces:R:3 energy=-41.739227294921875 free_energy=-41.739227294921875 stress="-1.3223140740592498e-05 4.8751306991334786e-08 2.923753683603536e-08 4.8751306991334786e-08 -1.3319468052941374e-05 -1.7692879339392675e-07 2.923753683603536e-08 -1.7692879339392675e-07 -1.3462925380736124e-05" pbc="T T T"
Tl       1.54549240       1.09282921       2.67687428       0.00000148      -0.00000046      -0.00000800
Tl       4.63648192       3.27848540       8.03062347      -0.00000064      -0.00000174      -0.00000900
Sb       0.00000075      -0.00000063      -0.00000553      -0.00000601       0.00001485       0.00019600
O        1.60860949       1.13745794       5.35374826      -0.00361425      -0.00256187       0.00000520
O        4.57336848       3.23385820       5.35374754       0.00360066       0.00255060       0.00000304
O        3.83217775       1.13745907       4.06997034       0.00183487      -0.00258809      -0.00316697
O        2.34979712       3.23385822       6.63752824      -0.00176880       0.00250793       0.00307280
O        2.34979939       3.23385531       4.06997067      -0.00183177       0.00259405      -0.00316936
O        3.83218053       1.13745562       6.63752745       0.00178477      -0.00251466       0.00307691
