9
Lattice="4.524420151276285 1.059395254565684e-06 2.6121754073449446 1.508140749756415 4.265666554261612 2.612175926053564 -5.129405604409865e-07 2.7258195257911183e-07 5.224351703129003" Properties=species:S:1:pos:R:3:forces:R:3 energy=-40.343955993652344 free_energy=-40.343955993652344 stress="0.0001734448451315984 5.4896812429205966e-08 -4.39121095041628e-08 5.4896812429205966e-08 0.00017373279843013734 -3.306950446813062e-08 -4.39121095041628e-08 -3.306950446813062e-08 0.00017378247866872698" pbc="T T T"
Tl       1.50813908       1.06641812       2.61217703       0.00001045       0.00000858      -0.00001034
Tl       4.52442040       3.19925120       7.83652754       0.00001064       0.00000905      -0.00000802
Se       0.00000477       0.00000418      -0.00000492      -0.00000599       0.00000292       0.00000702
O        1.49665845       1.05829685       5.22435396      -0.00124097      -0.00088567       0.00001112
O        4.53590175       3.20737036       5.22435292       0.00123239       0.00088304      -0.00000481
O        3.77608947       1.05829790       3.90832077       0.00062335      -0.00088274      -0.00108039
O        2.25646821       3.20736687       6.54038330      -0.00062472       0.00087243       0.00107646
O        2.25646549       3.20736644       3.90831913      -0.00062388       0.00087184      -0.00106788
O        3.77609104       1.05829764       6.54038224       0.00061923      -0.00087959       0.00107598
