9
Lattice="6.019707763913556 -4.792422824945333e-07 3.4754801932963284 2.006568906575474 5.675434445279322 3.4754800135586073 2.9246269718465626e-07 -1.3330485010193436e-08 6.950959880032341" Properties=species:S:1:pos:R:3:forces:R:3 energy=-33.76564407348633 free_energy=-33.76564407348633 stress="-0.00015873178199399263 9.14909570326472e-09 -2.98650348895535e-08 9.14909570326472e-09 -0.0001586840080562979 -2.6594024760129287e-08 -2.98650348895535e-08 -2.6594024760129287e-08 -0.0001586884172866121" pbc="T T T"
Tl       2.00656912       1.41885841       3.47548007      -0.00000022       0.00000012      -0.00000031
Tl       6.01970794       4.25657543      10.42643980      -0.00000025      -0.00000028      -0.00000025
Sc      -0.00000032       0.00000077       0.00000379       0.00000171      -0.00000692      -0.00001887
Se       2.22886487       1.57604518       6.95095891      -0.00391896      -0.00276921       0.00000227
Se       5.79741250       4.09938802       6.95095945       0.00391849       0.00277108       0.00000420
Se       4.90527474       1.57604577       5.40573372       0.00195848      -0.00276886      -0.00339067
Se       3.12100088       4.09938967       8.49618572      -0.00196020       0.00277333       0.00339686
Se       3.12100184       4.09938822       5.40573309      -0.00196044       0.00277145      -0.00339091
Se       4.90527628       1.57604429       8.49618587       0.00196138      -0.00277072       0.00339771
