9
Lattice="5.903605940533361 -7.974100396024591e-08 3.4084484886287547 1.9678686396800056 5.5659728123414265 3.4084483708214712 2.1258748642542125e-07 6.038197584998447e-09 6.816896609045057" Properties=species:S:1:pos:R:3:forces:R:3 energy=-31.13698959350586 free_energy=-31.13698959350586 stress="0.00011426357377786189 -1.2422236572717793e-08 -5.065220687328065e-09 -1.2422236572717793e-08 0.00011422981333453208 -1.8653860678341516e-09 -5.065220687328065e-09 -1.8653860678341516e-09 0.00011429248115746304" pbc="T T T"
Tl       1.96786860       1.39149289       3.40844850       0.00000105       0.00000105      -0.00000041
Tl       5.90360600       4.17447953      10.22534479       0.00000097       0.00000088       0.00000008
Sb      -0.00000032      -0.00000042       0.00000069       0.00000678       0.00001167      -0.00001583
S        2.00574018       1.41827184       6.81689701      -0.00544608      -0.00385052      -0.00000030
S        5.86573569       4.14770145       6.81689714       0.00543177       0.00384027      -0.00000102
S        4.90073648       1.41827130       5.14546911       0.00271752      -0.00384083      -0.00470692
S        2.97073865       4.14770084       8.48832377      -0.00272113       0.00384825       0.00471091
S        2.97073789       4.14770118       5.14546976      -0.00271648       0.00384134      -0.00470507
S        4.90073612       1.41827252       8.48832317       0.00272557      -0.00385225       0.00471854
