9
Lattice="6.445894135759984 -8.177732584837097e-09 3.7215386535390755 2.1486314174335033 6.077247439713469 3.7215385729002968 6.028981371218582e-08 -5.6130545568607585e-08 7.443077202653556" Properties=species:S:1:pos:R:3:forces:R:3 energy=-37.177703857421875 free_energy=-37.177703857421875 stress="-0.00013165859854780138 -1.8405808432930826e-08 1.7770590332588654e-08 -1.8405808432930826e-08 -0.0001316340349148959 -1.716910880134037e-08 1.7770590332588654e-08 -1.716910880134037e-08 -0.00013162581308279186" pbc="T T T"
Tl       2.14863138       1.51931192       3.72153863      -0.00000021      -0.00000010       0.00000011
Tl       6.44589421       4.55793545      11.16461554       0.00000022       0.00000024      -0.00000001
Ta      -0.00000066       0.00000019       0.00000024       0.00000158      -0.00000029       0.00000046
Te       2.26764536       1.60346669       7.44307688      -0.00831082      -0.00587656       0.00000005
Te       6.32688061       4.47378072       7.44307718       0.00831032       0.00587727      -0.00000065
Te       5.31207160       1.60346730       5.68537707       0.00415626      -0.00587811      -0.00719807
Te       3.28245423       4.47377980       9.20077754      -0.00415631       0.00587778       0.00719801
Te       3.28245422       4.47377959       5.68537711      -0.00415802       0.00587914      -0.00719974
Te       5.31207164       1.60346783       9.20077745       0.00415693      -0.00587936       0.00719979
