9
Lattice="4.652967716455356 2.3343445910102696e-07 2.6863922657571364 1.5509892275740635 4.38686243643764 2.6863926664297324 -1.074912641254206e-06 -2.6935610538933925e-07 5.372786393317568" Properties=species:S:1:pos:R:3:forces:R:3 energy=-53.42192459106445 free_energy=-53.42192459106445 stress="-0.0005259877070784569 -7.883307375777804e-07 -6.824266307603466e-08 -7.883307375777804e-07 -0.0005255582509562373 9.648140775198044e-08 -6.824266307603466e-08 9.648140775198044e-08 -0.0005254975403659046" pbc="T T T"
Tl       1.55098463       1.09671291       2.68639343      -0.00000553       0.00000808       0.00000062
Tl       4.65296337       3.29015138       8.05917027      -0.00001656       0.00001903      -0.00002233
Ta       0.00000179       0.00000656      -0.00000059      -0.00002540      -0.00003361      -0.00000778
O        1.60871379       1.13752980       5.37278815      -0.00483412      -0.00340098       0.00001962
O        4.59523727       3.24932419       5.37278985       0.00490391       0.00344390      -0.00000578
O        3.84860576       1.13753708       4.07958383       0.00243971      -0.00346017      -0.00424123
O        2.35535797       3.24932692       6.66598915      -0.00245389       0.00346035       0.00424618
O        2.35535011       3.24932667       4.07958490      -0.00245529       0.00345165      -0.00421208
O        3.84860885       1.13753582       6.66598502       0.00244656      -0.00348788       0.00422376
