9
Lattice="5.622988409393695 3.572056381052786e-07 3.2464335636505925 1.8743297182193215 5.301402805741082 3.246433716686466 -2.5383180631279315e-07 7.943911807465684e-09 6.492867566950756" Properties=species:S:1:pos:R:3:forces:R:3 energy=-42.95945358276367 free_energy=-42.95945358276367 stress="-0.00012515975686255842 1.1480570272226487e-08 -4.1707281184244493e-08 1.1480570272226487e-08 -0.0001251593348570168 8.288969155501036e-08 -4.1707281184244493e-08 8.288969155501036e-08 -0.00012515808339230716" pbc="T T T"
Tl       1.87432928       1.32535108       3.24643403      -0.00000002      -0.00000053      -0.00000020
Tl       5.62298839       3.97605220       9.73930115       0.00000004       0.00000106       0.00000015
Ta      -0.00000110      -0.00000063       0.00000080       0.00000746       0.00000193      -0.00000526
S        1.96263917       1.38779581       6.49286823       0.00255001       0.00180399       0.00000013
S        5.53467839       3.91360698       6.49286744      -0.00255293      -0.00180614       0.00000083
S        4.64166892       1.38779716       4.94612894      -0.00127703       0.00180379       0.00221151
S        2.85564976       3.91360823       8.03960456       0.00127402      -0.00180399      -0.00220656
S        2.85565011       3.91360703       4.94612915       0.00127743      -0.00180772       0.00221288
S        4.64166878       1.38779540       8.03960518      -0.00127873       0.00180784      -0.00221363
