9
Lattice="5.937650402473964 -3.060059324284593e-07 3.4281042969252113 1.9792165926869307 5.598070912579895 3.428104157724775 1.2179896580937254e-07 -8.436006022588193e-08 6.856208382888383" Properties=species:S:1:pos:R:3:forces:R:3 energy=-40.16896057128906 free_energy=-40.16896057128906 stress="-0.00022351977531798184 -5.896220400813945e-08 1.7894626225256616e-08 -5.896220400813945e-08 -0.00022336274560075253 -3.80527254151275e-08 1.7894626225256616e-08 -3.80527254151275e-08 -0.000223356721107848" pbc="T T T"
Tl       1.97921723       1.39951714       3.42810425       0.00000026      -0.00000024      -0.00000031
Tl       5.93764988       4.19855304      10.28431257      -0.00000025       0.00000048       0.00000011
Ta      -0.00000063      -0.00000019      -0.00000051       0.00000377       0.00000028       0.00000454
Se       2.07815284       1.46947626       6.85620833      -0.00160412      -0.00113589       0.00000100
Se       5.83871462       4.12859502       6.85620836       0.00160143       0.00113255      -0.00000060
Se       4.89857463       1.46947672       5.22783784       0.00080299      -0.00113862      -0.00139329
Se       3.01829278       4.12859444       8.48457882      -0.00080335       0.00113571       0.00139270
Se       3.01829247       4.12859364       5.22783828      -0.00080512       0.00114289      -0.00139742
Se       4.89857454       1.46947630       8.48457917       0.00080448      -0.00113710       0.00139310
