9
Lattice="5.941097857370967 -9.024216116429711e-08 3.430094618376973 1.9803659075198707 5.601320971321432 3.4300945488454357 -7.363500355433343e-08 -1.3722625777816329e-07 6.860189364293599" Properties=species:S:1:pos:R:3:forces:R:3 energy=-36.414058685302734 free_energy=-36.414058685302734 stress="-0.0002011308097280562 -9.891802221773105e-08 2.3500964729805673e-08 -9.891802221773105e-08 -0.00020102935377508402 3.8286778192286874e-09 2.3500964729805673e-08 3.8286778192286874e-09 -0.00020096420485060662" pbc="T T T"
Tl       1.98036600       1.40033026       3.43009459      -0.00000022      -0.00000035       0.00000035
Tl       5.94109769       4.20099049      10.29028389       0.00000037       0.00000003      -0.00000121
Ti      -0.00000011      -0.00000091       0.00000056       0.00000010       0.00000644      -0.00000486
Se       2.02883344       1.43460145       6.86018869       0.00836046       0.00591167       0.00000143
Se       5.89262993       4.16671900       6.86018821      -0.00836090      -0.00591275       0.00000133
Se       4.92668102       1.43460338       5.18711681      -0.00417497       0.00590407       0.00723320
Se       2.99478311       4.16671884       8.53326186       0.00417711      -0.00590746      -0.00723397
Se       2.99478323       4.16671784       5.18711686       0.00417466      -0.00590625       0.00723409
Se       4.92668047       1.43460256       8.53326258      -0.00417664       0.00590469      -0.00723031
