9
Lattice="5.6647293306015865 -2.813670803725832e-07 3.2705330493620095 1.8882427405766673 5.340758382281622 3.2705332300986694 -3.064161041175052e-07 4.687628998368449e-09 6.541066629452255" Properties=species:S:1:pos:R:3:forces:R:3 energy=-38.61488723754883 free_energy=-38.61488723754883 stress="-0.00012835388770326972 -9.807676093487316e-08 -2.013663458200199e-09 -9.807676093487316e-08 -0.00012826842430513352 -7.093676313019159e-09 -2.013663458200199e-09 -7.093676313019159e-09 -0.00012823202996514738" pbc="T T T"
Tl       1.88824285       1.33518943       3.27053334       0.00000015       0.00000014       0.00000038
Tl       5.66472886       4.00556882       9.81159936      -0.00000020      -0.00000037       0.00000032
Ti      -0.00000023      -0.00000111       0.00000058       0.00000211       0.00000927      -0.00000648
S        1.90916924       1.34998694       6.54106733      -0.00017133      -0.00012130       0.00000017
S        5.64380291       3.99077173       6.54106635       0.00016513       0.00011805      -0.00000086
S        4.71014432       1.34998666       4.92392309       0.00008710      -0.00012287      -0.00015229
S        2.84282773       3.99077131       8.15820969      -0.00008795       0.00012457       0.00015178
S        2.84282713       3.99077130       4.92392240      -0.00008482       0.00012067      -0.00014856
S        4.71014384       1.34998754       8.15820930       0.00009005      -0.00012797       0.00015581
