9
Lattice="4.553326121463826 4.6793889851777527e-07 2.6288632108731846 1.5177756193470124 4.292915969411478 2.6288635497512924 1.8809447542138914e-07 5.48042354431908e-07 5.257726095957346" Properties=species:S:1:pos:R:3:forces:R:3 energy=-48.70926284790039 free_energy=-48.70926284790039 stress="-0.000760421680752188 2.483396031038865e-07 -1.9309746335238742e-07 2.483396031038865e-07 -0.0007605736027471721 3.269729518251552e-07 -1.9309746335238742e-07 3.269729518251552e-07 -0.0007608004380017519" pbc="T T T"
Tl       1.51777521       1.07322820       2.62886334      -0.00000072      -0.00000038       0.00000054
Tl       4.55332677       3.21968551       7.88658959      -0.00000212       0.00000168       0.00000255
Ti      -0.00000145       0.00000098       0.00000105       0.00001952      -0.00001781      -0.00001409
O        1.56282893       1.10508822       5.25772743       0.00823396       0.00581360       0.00000071
O        4.50827244       3.18782923       5.25772651      -0.00822812      -0.00582290      -0.00000443
O        3.77191191       1.10508706       3.98230996      -0.00412914       0.00583136       0.00714451
O        2.29919061       3.18782949       6.53313811       0.00411001      -0.00580907      -0.00711781
O        2.29918920       3.18783104       3.98231310       0.00412318      -0.00583303       0.00714052
O        3.77191338       1.10508835       6.53314288      -0.00412655       0.00583684      -0.00715256
