9
Lattice="6.372013694970714 -5.7273980418218085e-09 3.67888393484575 2.1240045505586753 6.007592208445356 3.678883950489026 1.221068735731683e-07 1.0550171972115132e-07 7.357767658196283" Properties=species:S:1:pos:R:3:forces:R:3 energy=-33.8085823059082 free_energy=-33.8085823059082 stress="-2.058528843917884e-05 -1.0460303734305398e-08 -1.0247532600260456e-08 -1.0460303734305398e-08 -2.0560528355417773e-05 2.4316415547787074e-08 -1.0247532600260456e-08 2.4316415547787074e-08 -2.0563576981658116e-05" pbc="T T T"
Tl       2.12400449       1.50189819       3.67888399       0.00000024      -0.00000043       0.00000009
Tl       6.37201372       4.50569422      11.03665173      -0.00000004      -0.00000004      -0.00000006
Ti      -0.00000058      -0.00000121      -0.00000034       0.00000120       0.00000528       0.00000020
Te       2.24368033       1.58652201       7.35776838       0.00007212       0.00005047      -0.00000060
Te       6.25233842       4.42107023       7.35776771      -0.00007346      -0.00005183      -0.00000083
Te       5.25017348       1.58652223       5.62196806      -0.00003613       0.00004972       0.00006128
Te       3.24584511       4.42107044       9.09356737       0.00003521      -0.00004995      -0.00006131
Te       3.24584504       4.42107095       5.62196766       0.00003645      -0.00005283       0.00006343
Te       5.25017347       1.58652223       9.09356753      -0.00003565       0.00004960      -0.00006211
