9
Lattice="5.63557443176073 2.393025938973579e-07 3.2536993718459812 1.8785250107209555 5.313270400491895 3.2536994159831156 -1.5242713775903717e-07 -5.372541590025999e-08 6.507399007703491" Properties=species:S:1:pos:R:3:forces:R:3 energy=-39.14332580566406 free_energy=-39.14332580566406 stress="1.0060472050099634e-05 1.6060653251770418e-08 2.408211230431334e-08 1.6060653251770418e-08 1.0065213245979976e-05 -1.3158922840261766e-08 2.408211230431334e-08 -1.3158922840261766e-08 1.0033364560513292e-05" pbc="T T T"
Tl       1.87852479       1.32831716       3.25369951      -0.00000049       0.00000119       0.00000008
Tl       5.63557387       3.98495292       9.76109835       0.00000061      -0.00000054       0.00000017
V       -0.00000064      -0.00000162      -0.00000017       0.00000570       0.00000587      -0.00000450
S        1.83833551       1.29990008       6.50739922       0.00048590       0.00034523      -0.00000051
S        5.67576329       4.01337173       6.50739909      -0.00049716      -0.00035137      -0.00000090
S        4.71640688       1.29989958       4.84574388      -0.00024670       0.00035107       0.00042969
S        2.79769284       4.01337103       8.16905343       0.00024655      -0.00034809      -0.00042754
S        2.79769325       4.01337110       4.84574437       0.00024879      -0.00034958       0.00042850
S        4.71640690       1.29989974       8.16905353      -0.00024277       0.00034606      -0.00042468
