9
Lattice="6.285352096619529 -7.756845099362144e-07 3.6288495879710423 2.0951168722236932 5.925886055954611 3.6288491757317396 -4.592724224574353e-07 -8.296425504279379e-07 7.257699971425401" Properties=species:S:1:pos:R:3:forces:R:3 energy=-33.39230728149414 free_energy=-33.39230728149414 stress="-1.2282972420507576e-05 -6.981392175475776e-08 -4.4797861420420304e-08 -6.981392175475776e-08 -1.2214411981403828e-05 1.973832119972485e-08 -4.4797861420420304e-08 1.973832119972485e-08 -1.2296233762754127e-05" pbc="T T T"
Tl       2.09511613       1.48147115       3.62884945      -0.00000248      -0.00000238      -0.00000062
Tl       6.28535247       4.44441311      10.88654938       0.00000132       0.00000204       0.00000234
V       -0.00000065       0.00000119      -0.00000245       0.00000012      -0.00000196       0.00000098
Te       2.20719150       1.56071822       7.25770008      -0.00030834      -0.00021904      -0.00000020
Te       6.17327787       4.36516734       7.25770253       0.00030647       0.00021620      -0.00000248
Te       5.18175459       1.56072090       5.54033202       0.00015727      -0.00021901      -0.00026744
Te       3.19871500       4.36516200       8.97506590      -0.00015813       0.00022465       0.00026976
Te       3.19871205       4.36516204       5.54033071      -0.00015355       0.00022184      -0.00026776
Te       5.18175515       1.56072213       8.97506797       0.00015738      -0.00022238       0.00026542
