9
Lattice="5.901270475194141 -2.8184560861563895e-07 3.4071001710674 1.9670899433055564 5.563770860442846 3.407100083366556 2.7058442474688015e-08 -8.82779349878793e-08 6.814200295268167" Properties=species:S:1:pos:R:3:forces:R:3 energy=-36.29349136352539 free_energy=-36.29349136352539 stress="-0.00022808754874859005 -1.8546113977890855e-08 -3.4157146000524108e-09 -1.8546113977890855e-08 -0.0002280500193592161 2.162714629605489e-08 -3.4157146000524108e-09 2.162714629605489e-08 -0.00022801500745117664" pbc="T T T"
Tl       1.96709022       1.39094256       3.40710019      -0.00000106      -0.00000024       0.00000082
Tl       5.90127049       4.17282791      10.22130046       0.00000083      -0.00000056      -0.00000016
V       -0.00000087      -0.00000011       0.00000058       0.00000113      -0.00000050      -0.00000146
Se       1.97494779       1.39649828       6.81420023       0.00290456       0.00205353      -0.00000051
Se       5.89341287       4.16727195       6.81420023      -0.00290534      -0.00205477      -0.00000105
Se       4.91379646       1.39649893       5.11745495      -0.00145185       0.00205433       0.00251526
Se       2.95456435       4.16727134       8.51094550       0.00145070      -0.00205123      -0.00251251
Se       2.95456406       4.16727209       5.11745494       0.00145236      -0.00205320       0.00251448
Se       4.91379634       1.39649897       8.51094525      -0.00145119       0.00205262      -0.00251469
