9
Lattice="4.5816925596051075 4.0305745317829174e-07 2.645241140475497 1.5272312143805988 4.3196606987999475 2.6452411730854464 2.897354552173536e-07 2.4481271979657715e-07 5.290481779114363" Properties=species:S:1:pos:R:3:forces:R:3 energy=-46.39751052856445 free_energy=-46.39751052856445 stress="-0.00020604522433131933 -1.0297627639488383e-08 2.0826639968163363e-08 -1.0297627639488383e-08 -0.00020606069301720709 2.9164603176923265e-08 2.0826639968163363e-08 2.9164603176923265e-08 -0.00020599603885784745" pbc="T T T"
Tl       1.52723076       1.07991876       2.64524251      -0.00000321       0.00001983       0.00002052
Tl       4.58169173       3.23974991       7.93572567      -0.00000372       0.00001982       0.00002315
V       -0.00000119       0.00000718       0.00001131      -0.00000370       0.00001408       0.00001184
O        1.53514179       1.08550753       5.29047901       0.00320089       0.00225633      -0.00001248
O        4.57378377       3.23415039       5.29048004      -0.00319898      -0.00227559      -0.00000002
O        3.81412203       1.08550760       3.97471135      -0.00159633       0.00224942       0.00276321
O        2.29480071       3.23415034       6.60624973       0.00160033      -0.00226891      -0.00277972
O        2.29480434       3.23414880       3.97470894       0.00160664      -0.00227010       0.00275666
O        3.81412221       1.08550554       6.60624913      -0.00160241       0.00225556      -0.00278240
