9
Lattice="6.277663709268367 -1.4804617037059447e-07 3.6244109011995516 2.0925543303663097 5.918637679401863 3.624411074076573 -7.064338323823349e-08 1.6177780129989562e-07 7.2488219247571095" Properties=species:S:1:pos:R:3:forces:R:3 energy=-33.82787322998047 free_energy=-33.82787322998047 stress="-5.7345143432030454e-05 5.1349068996842107e-08 9.568141834392918e-09 5.1349068996842107e-08 -5.7329882110934705e-05 2.2144647005006846e-08 9.568141834392918e-09 2.2144647005006846e-08 -5.73853867535945e-05" pbc="T T T"
Tl       2.09255431       1.47965954       3.62441093      -0.00000066       0.00000012      -0.00000042
Tl       6.27766353       4.43897786      10.87323286      -0.00000020      -0.00000026       0.00000017
Y       -0.00000046       0.00000001      -0.00000064       0.00000406      -0.00000012       0.00000095
Se       2.38297161       1.68501479       7.24882198      -0.00076745      -0.00054247      -0.00000126
Se       5.98724637       4.23362110       7.24882145       0.00076719       0.00054081      -0.00000205
Se       5.08617768       1.68501602       5.68812564       0.00038230      -0.00053997      -0.00066350
Se       3.28403966       4.23362362       8.80952016      -0.00038666       0.00054416       0.00066613
Se       3.28404049       4.23362257       5.68812462      -0.00038293       0.00054082      -0.00066395
Se       5.08617875       1.68501532       8.80951859       0.00038434      -0.00054307       0.00066392
