9
Lattice="6.040410374835485 -2.0988551704042052e-07 3.4874325840598615 2.0134698508303273 5.694953895486636 3.4874327160991623 -1.5477953245423765e-07 5.226876313311678e-08 6.974865436205811" Properties=species:S:1:pos:R:3:forces:R:3 energy=-35.086875915527344 free_energy=-35.086875915527344 stress="-4.2732768633868545e-05 5.459717300482225e-08 -6.399605290141608e-09 5.459717300482225e-08 -4.277008702047169e-05 3.268818105084392e-08 -6.399605290141608e-09 3.268818105084392e-08 -4.279818313079886e-05" pbc="T T T"
Tl       2.01347007       1.42373871       3.48743262      -0.00000000      -0.00000013      -0.00000008
Tl       6.04041013       4.27121526      10.46229827      -0.00000018      -0.00000020       0.00000049
Y       -0.00000064       0.00000067      -0.00000029       0.00000350      -0.00000362       0.00000270
S        2.26290308       1.60011388       6.97486581       0.00176831       0.00125309      -0.00000003
S        5.79097710       4.09483895       6.97486541      -0.00177021      -0.00124900      -0.00000155
S        4.90895937       1.60011347       5.44716409      -0.00088445       0.00125090       0.00152965
S        3.14492127       4.09483953       8.50256761       0.00088339      -0.00125029      -0.00153231
S        3.14492116       4.09484048       5.44716316       0.00088487      -0.00125160       0.00153255
S        4.90895872       1.60011399       8.50256610      -0.00088517       0.00125086      -0.00153150
