9
Lattice="6.748255725237402 -3.852016826118911e-08 3.89610722270322 2.2494185065718604 6.36231651342488 3.896107278458027 3.683904140454044e-08 9.43346208744062e-08 7.792214381599327" Properties=species:S:1:pos:R:3:forces:R:3 energy=-32.91697692871094 free_energy=-32.91697692871094 stress="-1.9848125702992547e-06 5.9904943228161756e-09 3.083177047003005e-09 5.9904943228161756e-09 -1.9883202639903175e-06 -8.956291708273056e-09 3.083177047003005e-09 -8.956291708273056e-09 -1.984678874578094e-06" pbc="T T T"
Tl       2.24941840       1.59057907       3.89610747       0.00000047      -0.00000022      -0.00000005
Tl       6.74825585       4.77173758      11.68832149      -0.00000048       0.00000000      -0.00000016
Y        0.00000004      -0.00000037      -0.00000003       0.00000016       0.00000190      -0.00000066
Te       2.50994767       1.77480113       7.79221423       0.00264155       0.00186748       0.00000107
Te       6.48772658       4.58751561       7.79221436      -0.00264256      -0.00186903       0.00000090
Te       5.49328192       1.77480092       6.06978560      -0.00132045       0.00186757       0.00228870
Te       3.50439190       4.58751620       9.51464365       0.00132236      -0.00186988      -0.00228879
Te       3.50439229       4.58751558       6.06978553       0.00132079      -0.00186750       0.00228794
Te       5.49328240       1.77480058       9.51464325      -0.00132187       0.00186975      -0.00228891
