9
Lattice="4.831013890263695 -5.804967635759057e-09 2.7891871767080163 1.6103379216935867 4.554723570876975 2.7891872395029162 -5.660814441851269e-09 7.290494597735466e-08 5.578374363220841" Properties=species:S:1:pos:R:3:forces:R:3 energy=-44.30344772338867 free_energy=-44.30344772338867 stress="0.0003396109095774591 3.365925316245466e-10 -7.146447433825642e-09 3.365925316245466e-10 0.00033965546754188836 2.3617978683887486e-08 -7.146447433825642e-09 2.3617978683887486e-08 0.00033960724249482155" pbc="T T T"
Tl       1.61033815       1.13868047       2.78918728      -0.00000003      -0.00000059      -0.00000077
Tl       4.83101393       3.41604273       8.36756214       0.00000091       0.00000026       0.00000298
Y       -0.00000013       0.00000008      -0.00000043       0.00000027      -0.00000156       0.00000516
O        1.80420133       1.27576306       5.57837433      -0.00747827      -0.00528780      -0.00000110
O        4.63715048       3.27896065       5.57837362       0.00748014       0.00528997      -0.00000070
O        3.92891316       1.27576354       4.35167163       0.00373963      -0.00529078      -0.00648004
O        2.51243884       3.27896056       6.80507731      -0.00373924       0.00528829       0.00647697
O        2.51243866       3.27896072       4.35167185      -0.00374204       0.00528966      -0.00647837
O        3.92891276       1.27576279       6.80507730       0.00373861      -0.00528762       0.00647604
