9
Lattice="6.7484233780922604 -1.245787801920082e-07 3.896204110295324 2.249474345372915 6.362474298539838 3.8962041042976083 -2.0233803989814526e-08 -2.165318615116117e-08 7.792408255636667" Properties=species:S:1:pos:R:3:forces:R:3 energy=-32.91697311401367 free_energy=-32.91697311401367 stress="-1.4123899745754898e-05 -2.4424077343931927e-11 1.1537576449782705e-09 -2.4424077343931927e-11 -1.4126432688499335e-05 -2.2727304482828004e-09 1.1537576449782705e-09 -2.2727304482828004e-09 -1.4114886653260328e-05" pbc="T T T"
Tl       2.24947438       1.59061876       3.89620415      -0.00000005       0.00000021       0.00000011
Tl       6.74842343       4.77185578      11.68861222      -0.00000002       0.00000010       0.00000011
Y        0.00000039       0.00000037      -0.00000009      -0.00000268      -0.00000291       0.00000149
Te       2.51052460       1.77520879       7.79240832      -0.00360014      -0.00254461      -0.00000150
Te       6.48737360       4.58726529       7.79240855       0.00359712       0.00254422      -0.00000187
Te       5.49316100       1.77520825       6.07038207       0.00179945      -0.00254204      -0.00311711
Te       3.50473674       4.58726491       9.51443443      -0.00179922       0.00254693       0.00311572
Te       3.50473599       4.58726549       6.07038195      -0.00179667       0.00254385      -0.00311539
Te       5.49316066       1.77520896       9.51443427       0.00180224      -0.00254577       0.00311846
