9
Lattice="4.829981774210833 1.5681829484293887e-07 2.7885911235452 1.6099940930538437 4.553749950426646 2.7885910880949476 2.0582944117442213e-07 1.0212588932476742e-07 5.577181890583264" Properties=species:S:1:pos:R:3:forces:R:3 energy=-44.303466796875 free_energy=-44.303466796875 stress="-6.248540739761665e-05 -1.8503071075315347e-08 -5.7092009342341044e-08 -1.8503071075315347e-08 -6.236237095436081e-05 7.993854467258643e-08 -5.7092009342341044e-08 7.993854467258643e-08 -6.246899283723906e-05" pbc="T T T"
Tl       1.60999451       1.13843642       2.78859112       0.00000103      -0.00000158      -0.00000046
Tl       4.82998125       3.41531373       8.36577414      -0.00000292       0.00000220       0.00000420
Y       -0.00000027       0.00000047       0.00000057       0.00000349      -0.00000623      -0.00000469
O        1.80334163       1.27515499       5.57718180       0.00326851       0.00231214      -0.00000129
O        4.63663376       3.27859514       5.57718169      -0.00326452      -0.00231163       0.00000021
O        3.92831075       1.27515492       4.35033036      -0.00163509       0.00230981       0.00283170
O        2.51166540       3.27859478       6.80403271       0.00162974      -0.00230646      -0.00282523
O        2.51166633       3.27859584       4.35033030       0.00163561      -0.00230850       0.00282973
O        3.92831088       1.27515460       6.80403382      -0.00163601       0.00231026      -0.00283429
