9
Lattice="6.041247963579341 -1.9879058288324299e-07 3.487916287718251 2.0137491155811063 5.6957433064374365 3.4879163192249125 -2.568250510060607e-08 2.0427357811037398e-08 6.975832619919918" Properties=species:S:1:pos:R:3:forces:R:3 energy=-35.08686828613281 free_energy=-35.08686828613281 stress="6.346427107928321e-05 7.138478697044093e-10 -1.5828181432198107e-08 7.138478697044093e-10 6.349821342155337e-05 1.7522914674827916e-08 -1.5828181432198107e-08 1.7522914674827916e-08 6.349700561258942e-05" pbc="T T T"
Tl       2.01374936       1.42393567       3.48791619      -0.00000048      -0.00000022       0.00000009
Tl       6.04124760       4.27180733      10.46374883       0.00000007       0.00000027       0.00000061
Y       -0.00000054      -0.00000035       0.00000053       0.00000354       0.00000333      -0.00000232
S        2.26310393       1.60025636       6.97583244       0.00326787       0.00231018       0.00000037
S        5.79189232       4.09548628       6.97583235      -0.00326699      -0.00231054       0.00000058
S        4.90969592       1.60025664       5.44782228      -0.00163468       0.00230842       0.00282871
S        3.14530144       4.09548734       8.50384268       0.00163275      -0.00231056      -0.00282851
S        3.14530177       4.09548695       5.44782265       0.00163257      -0.00231029       0.00282879
S        4.90969635       1.60025632       8.50384301      -0.00163459       0.00230943      -0.00282825
