9
Lattice="6.371103771081412 -5.001918985377715e-07 3.6783579572578757 2.123700767225386 6.0067343159875595 3.678357988809225 -4.37062032430793e-08 7.737426417618785e-09 7.35671599021711" Properties=species:S:1:pos:R:3:forces:R:3 energy=-24.778547286987305 free_energy=-24.778547286987305 stress="-4.0431561501463875e-05 -2.6418573995101724e-08 2.132269250054719e-09 -2.6418573995101724e-08 -4.0398976125288755e-05 7.175731564501575e-09 2.132269250054719e-09 7.175731564501575e-09 -4.051614450872876e-05" pbc="T T T"
Tl       2.12370070       1.50168341       3.67835784      -0.00000126      -0.00000099      -0.00000001
Tl       6.37110370       4.50505043      11.03507380       0.00000127       0.00000088      -0.00000029
Zn      -0.00000232      -0.00000161       0.00000032       0.00000756       0.00000535      -0.00000118
Te       2.30365315       1.62892906       7.35671562       0.00087702       0.00062041       0.00000028
Te       6.19115340       4.37780605       7.35671567      -0.00088423      -0.00062464       0.00000029
Te       5.21927639       1.62892965       5.67337738      -0.00044006       0.00062194       0.00076135
Te       3.27552814       4.37780458       9.04005500       0.00044052      -0.00062361      -0.00076186
Te       3.27552835       4.37780425       5.67337705       0.00043976      -0.00062256       0.00076236
Te       5.21927645       1.62892946       9.04005501      -0.00044050       0.00062320      -0.00076095
