9
Lattice="5.490797446056624 3.6122107957563226e-07 3.1701134551308243 1.8302660432531224 5.176773017652483 3.1701136502664955 1.3560117830579404e-07 3.3487588474348766e-07 6.3402266753935494" Properties=species:S:1:pos:R:3:forces:R:3 energy=-26.96233558654785 free_energy=-26.96233558654785 stress="-1.60501786012901e-05 -1.5924365470709745e-07 3.907866386043679e-08 -1.5924365470709745e-07 -1.588981285749469e-05 -5.26934016420455e-08 3.907866386043679e-08 -5.26934016420455e-08 -1.589967359905131e-05" pbc="T T T"
Tl       1.83026528       1.29419251       3.17011390       0.00000052      -0.00000069       0.00000105
Tl       5.49079792       3.88258124       9.51034150      -0.00000042      -0.00000262      -0.00000061
Zn      -0.00000112      -0.00000206       0.00000301       0.00001344       0.00002433      -0.00003503
S        1.91856754       1.35663258       6.34022673      -0.00873876      -0.00617748      -0.00000130
S        5.40249863       3.82014289       6.34022736       0.00871599       0.00616302       0.00000143
S        4.53151405       1.35663240       4.83164097       0.00436242      -0.00616653      -0.00755587
S        2.78955049       3.82014002       7.84881117      -0.00436673       0.00617933       0.00756539
S        2.78954942       3.82014085       4.83164077      -0.00435867       0.00616211      -0.00754948
S        4.53151236       1.35663448       7.84880975       0.00437230      -0.00618149       0.00757441
