9
Lattice="5.788804549496408 1.0693362784448905e-07 3.342167909546438 1.9296015190929883 5.45773771454864 3.342168079674967 -1.52017450861551e-07 1.0087154837284558e-07 6.684336082394669" Properties=species:S:1:pos:R:3:forces:R:3 energy=-26.36785125732422 free_energy=-26.36785125732422 stress="-0.0003940065507777035 -1.4373705559123096e-09 -4.102601369737613e-09 -1.4373705559123096e-09 -0.00039396609645336866 -1.5969556343975455e-08 -4.102601369737613e-09 -1.5969556343975455e-08 -0.0003940394090022892" pbc="T T T"
Tl       1.92960180       1.36443434       3.34216784      -0.00000055       0.00000009       0.00000017
Tl       5.78880429       4.09330342      10.02650422       0.00000070       0.00000177       0.00000023
Zn       0.00000027       0.00000110       0.00000053      -0.00000117      -0.00000247      -0.00000168
Se       2.20677014       1.56042264       6.68433599      -0.00627433      -0.00443641       0.00000040
Se       5.51163415       3.89731483       6.68433652       0.00627060       0.00443520       0.00000122
Se       4.68541979       1.56042233       5.25328682       0.00313796      -0.00443663      -0.00543410
Se       3.03298688       3.89731506       8.11538428      -0.00313517       0.00443590       0.00543331
Se       3.03298660       3.89731506       5.25328742      -0.00313587       0.00443802      -0.00543277
Se       4.68541975       1.56042285       8.11538467       0.00313786      -0.00443543       0.00543331
