9
Lattice="4.582770353847034 2.4989758208342946e-07 2.645863546680219 1.5275903154448696 4.320677587301398 2.6458636126883084 4.010828424458926e-09 8.367913311023236e-08 5.291727086413526" Properties=species:S:1:pos:R:3:forces:R:3 energy=-34.92816925048828 free_energy=-34.92816925048828 stress="-0.0002548201009631157 1.8343058627579012e-07 -4.580852142055392e-09 1.8343058627579012e-07 -0.00025505333906039596 2.5653031698880113e-08 -4.580852142055392e-09 2.5653031698880113e-08 -0.00025514356093481183" pbc="T T T"
Tl       1.52758901       1.08016872       2.64586381       0.00000318       0.00000299      -0.00000066
Tl       4.58277056       3.24050859       7.93759002       0.00000013       0.00000114       0.00000122
Zn       0.00000127       0.00000153       0.00000020      -0.00003220      -0.00004380       0.00000181
O        1.60321743       1.13364549       5.29172735       0.00866014       0.00612438       0.00000078
O        4.50714316       3.18703071       5.29172756      -0.00862369      -0.00610051      -0.00000085
O        3.78116186       1.13364575       4.03428889      -0.00432767       0.00612101       0.00749412
O        2.32919964       3.18703304       6.54916420       0.00432526      -0.00611231      -0.00748846
O        2.32919787       3.18703257       4.03429027       0.00432284      -0.00611299       0.00748843
O        3.78116189       1.13364508       6.54916472      -0.00432797       0.00612009      -0.00749683
