9
Lattice="4.326876012524028 8.032875383019267e-08 2.498123083404713 1.4422920296505972 4.0794180348970634 2.498123170455422 -1.7894183501412972e-08 9.396181437477861e-08 4.996246197803075" Properties=species:S:1:pos:R:3:forces:R:3 energy=-56.075042724609375 free_energy=-56.075042724609375 stress="0.0002710717963054776 -2.821523636953316e-08 -5.827754634424309e-08 -2.821523636953316e-08 0.00027126941131427884 -3.4524450853723465e-08 -5.827754634424309e-08 -3.4524450853723465e-08 0.00027111268718726933" pbc="T T T"
V        1.44229163       1.01985414       2.49812251      -0.00000186      -0.00000607      -0.00000533
V        4.32687600       3.05956433       7.49437029       0.00000067       0.00001137       0.00001461
As       0.00000007      -0.00000000      -0.00000000      -0.00000464      -0.00000174      -0.00000429
O        1.46332466       1.03472656       4.99624644      -0.00214946      -0.00152707       0.00000034
O        4.30584342       3.04469167       4.99624594       0.00215709       0.00152969      -0.00000476
O        3.59521390       1.03472693       3.76539916       0.00107968      -0.00152493      -0.00187087
O        2.17395398       3.04469120       6.22709324      -0.00108188       0.00152731       0.00187111
O        2.17395428       3.04469174       3.76539957      -0.00107855       0.00152659      -0.00186610
O        3.59521399       1.03472642       6.22709270       0.00107932      -0.00153399       0.00186539
