9
Lattice="4.32681280234723 -2.147143813557734e-08 2.498086644823177 1.442270886974402 4.079358320797869 2.49808669141166 -4.733967013542676e-08 2.3584830687543877e-08 4.996173371641064" Properties=species:S:1:pos:R:3:forces:R:3 energy=-56.075042724609375 free_energy=-56.075042724609375 stress="0.00022321507276501507 5.3910729214123876e-09 2.91191817325398e-08 5.3910729214123876e-09 0.0002235069259768352 3.142852378346106e-08 2.91191817325398e-08 3.142852378346106e-08 0.0002233251725556329" pbc="T T T"
V        1.44227088       1.01983804       2.49808694      -0.00000187      -0.00001961       0.00000126
V        4.32681300       3.05952024       7.49425904       0.00000798       0.00002177      -0.00001394
As      -0.00000011      -0.00000013      -0.00000011      -0.00000013       0.00001336       0.00000266
O        1.46330308       1.03471142       4.99617344      -0.00172305      -0.00122070       0.00000054
O        4.30578038       3.04464701       4.99617357       0.00171876       0.00121915       0.00000329
O        3.59516103       1.03471091       3.76534487       0.00085914      -0.00123024      -0.00148857
O        2.17392258       3.04464731       6.22700219      -0.00085622       0.00122094       0.00148618
O        2.17392239       3.04464690       3.76534459      -0.00086343       0.00121760      -0.00148511
O        3.59516120       1.03471143       6.22700236       0.00085914      -0.00122154       0.00149405
