9
Lattice="5.499162181348031 3.1760693560261677e-07 3.174943041981539 1.833054290840031 5.184660130906722 3.174943161583198 1.0067111465661334e-07 2.176666745903995e-07 6.349885909595787" Properties=species:S:1:pos:R:3:forces:R:3 energy=-41.980979919433594 free_energy=-41.980979919433594 stress="0.00012220618373248726 4.307284129367872e-08 -2.7640616906410287e-08 4.307284129367872e-08 0.00012225101818330586 3.2712140551893754e-08 -2.7640616906410287e-08 3.2712140551893754e-08 0.0001221989223267883" pbc="T T T"
V        1.83305284       1.29616555       3.17494336      -0.00001157       0.00000266       0.00000420
V        5.49916515       3.88849600       9.52482847       0.00001844       0.00000202      -0.00000488
As      -0.00000017      -0.00000014       0.00000058      -0.00000345       0.00000264      -0.00000825
S        1.89781778       1.34196147       6.34988690       0.00021851       0.00016272       0.00000407
S        5.43439809       3.84269878       6.34988678      -0.00021517      -0.00016087       0.00000252
S        4.55025208       1.34195975       4.81850242      -0.00011730       0.00015110       0.00019395
S        2.78196314       3.84270000       7.88126905       0.00010258      -0.00015157      -0.00019592
S        2.78196276       3.84270034       4.81850230       0.00011003      -0.00016057       0.00020009
S        4.55025424       1.34196092       7.88126902      -0.00010234       0.00015193      -0.00019580
