9
Lattice="4.0159216082439615 7.500556929568223e-07 2.3185924067022916 1.3386408157177345 3.7862503708920157 2.318593147193772 -6.478145246386307e-07 4.4883883562167803e-07 4.637185935452275" Properties=species:S:1:pos:R:3:forces:R:3 energy=-62.84089660644531 free_energy=-62.84089660644531 stress="0.00016867637168616056 -2.018581142237963e-07 9.574047510341188e-08 -2.018581142237963e-07 0.00016766948101576418 3.717598531238764e-07 9.574047510341188e-08 3.717598531238764e-07 0.0001711847580736503" pbc="T T T"
V        1.33863476       0.94656116       2.31859460      -0.00005738      -0.00002416       0.00001534
V        4.01592232       2.83968766       6.95577743       0.00000923      -0.00001370      -0.00000677
As       0.00000058       0.00000020       0.00000016       0.00000498      -0.00000248       0.00000697
N        1.50995151       1.06769867       4.63718605      -0.00089312      -0.00063252      -0.00000209
N        3.84460819       2.71855449       4.63718595       0.00087482       0.00064680       0.00000296
N        3.26094869       1.06769959       3.62625231       0.00048089      -0.00063825      -0.00074738
N        2.09361730       2.71855389       5.64811942      -0.00044009       0.00066510       0.00074887
N        2.09361726       2.71855078       3.62625097      -0.00044173       0.00063202      -0.00075346
N        3.26094658       1.06769921       5.64811981       0.00046226      -0.00063312       0.00073558
