9
Lattice="5.4362887508299105 3.333236863347035e-08 3.138642835834978 1.8120962757100576 5.125382210196267 3.1386428462145384 1.8702033649106442e-08 2.5936656185478036e-08 6.277285639277071" Properties=species:S:1:pos:R:3:forces:R:3 energy=-39.95566177368164 free_energy=-39.95566177368164 stress="4.881802851741668e-06 2.876897475800888e-08 5.1612381923860084e-08 2.876897475800888e-08 4.886967872153036e-06 -3.589122599123584e-08 5.1612381923860084e-08 -3.589122599123584e-08 4.85940699945786e-06" pbc="T T T"
V        1.81209630       1.28134559       3.13864399      -0.00000044       0.00000056       0.00000617
V        5.43628854       3.84403719       9.41592795      -0.00000168       0.00000279      -0.00000382
As      -0.00000013       0.00000042       0.00000020       0.00000157      -0.00000549       0.00000092
Se       2.05326821       1.45187994       6.27728563       0.00235733       0.00166741       0.00000053
Se       5.19511680       3.67350202       6.27728587      -0.00235513      -0.00166690      -0.00000126
Se       4.40965409       1.45187954       4.91682486      -0.00118317       0.00166866       0.00204286
Se       2.83873090       3.67350236       7.63774577       0.00118074      -0.00166577      -0.00204140
Se       2.83873032       3.67350212       4.91682547       0.00117896      -0.00166661       0.00203881
Se       4.40965516       1.45187992       7.63774554      -0.00117804       0.00166535      -0.00204265
