9
Lattice="5.498914161453432 3.2173424479492e-07 3.1747993223969178 1.8329714548981184 5.184426331489458 3.1747997304453413 -9.228722471908628e-08 4.344983621394529e-07 6.349598804639943" Properties=species:S:1:pos:R:3:forces:R:3 energy=-41.98098373413086 free_energy=-41.98098373413086 stress="6.036068589310162e-05 3.657349623154005e-08 -6.703420929454751e-09 3.657349623154005e-08 6.051405580365099e-05 6.212361824964319e-08 -6.703420929454751e-09 6.212361824964319e-08 6.0571615904336795e-05" pbc="T T T"
V        1.83296941       1.29610667       3.17479931      -0.00001412       0.00000085      -0.00000116
V        5.49891653       3.88831977       9.52440060       0.00001949      -0.00000487       0.00001584
As       0.00000047       0.00000048       0.00000103      -0.00000335      -0.00001136      -0.00001178
S        1.89768450       1.34186663       6.34959940       0.00193095       0.00137150       0.00000280
S        5.43420079       3.84256065       6.34959855      -0.00192201      -0.00136274      -0.00000561
S        4.55007216       1.34186675       4.81824204      -0.00096262       0.00137222       0.00167245
S        2.78181173       3.84256042       7.88095378       0.00094384      -0.00135833      -0.00167125
S        2.78181363       3.84256065       4.81824304       0.00096405      -0.00136638       0.00167567
S        4.55007295       1.34186615       7.88095370      -0.00095606       0.00135887      -0.00167716
