9
Lattice="3.957537113809401 2.448004639786122e-07 2.284885118338202 1.3191791685152925 3.7312021347589157 2.284885291926487 3.2267623610428346e-08 2.3541802394258525e-07 4.569770180787231" Properties=species:S:1:pos:R:3:forces:R:3 energy=-59.51362609863281 free_energy=-59.51362609863281 stress="-0.00013047533866483718 -1.782826863916398e-08 2.010872712787659e-08 -1.782826863916398e-08 -0.00013108902203384787 2.0271806988603203e-07 2.010872712787659e-08 2.0271806988603203e-07 -0.00013038089673500508" pbc="T T T"
V        1.31917794       0.93280378       2.28489268      -0.00001808       0.00004479       0.00010959
V        3.95754025       2.79840132       6.85466033       0.00004510      -0.00001303       0.00007483
B        0.00000020       0.00000003       0.00000101       0.00000044       0.00000257       0.00001621
O        1.24850333       0.88282600       4.56976736      -0.00447023      -0.00315893      -0.00005049
O        4.02821352       2.84837525       4.56976728       0.00448096       0.00314999      -0.00004635
O        3.33328408       0.88282674       3.36611913       0.00221312      -0.00314629      -0.00389731
O        1.94342902       2.84837778       5.77341752      -0.00226337       0.00317776       0.00384736
O        1.94342962       2.84837434       3.36611993      -0.00224483       0.00312293      -0.00389445
O        3.33328774       0.88282508       5.77341743       0.00225598      -0.00318217       0.00384033
