9
Lattice="5.21268542940605 2.1461545804252163e-08 3.0095453400810315 1.7375617741303149 4.9145670853281525 3.009545436912738 -5.7849789104251684e-08 7.768823011430808e-08 6.019090780360799" Properties=species:S:1:pos:R:3:forces:R:3 energy=-45.5160026550293 free_energy=-45.5160026550293 stress="-0.00029657490085810423 -3.306953288984005e-08 -7.51629780637586e-09 -3.306953288984005e-08 -0.0002965364255942404 5.383769874356403e-09 -7.51629780637586e-09 5.383769874356403e-09 -0.0002964729501400143" pbc="T T T"
V        1.73756208       1.22864187       3.00954544       0.00000183      -0.00000030      -0.00000085
V        5.21268529       3.68592555       9.02863669      -0.00000085      -0.00000005       0.00000206
B       -0.00000011       0.00000014       0.00000037      -0.00000075      -0.00000149      -0.00000224
S        1.63824901       1.15841712       6.01909105       0.00737002       0.00521287      -0.00000124
S        5.31199795       3.75614997       6.01909077      -0.00737005      -0.00521001      -0.00000161
S        4.39356038       1.15841746       4.42831107      -0.00368644       0.00521117       0.00637949
S        2.55668670       3.75614927       7.60987020       0.00368141      -0.00520676      -0.00637886
S        2.55668649       3.75614992       4.42831089       0.00368580      -0.00521180       0.00638252
S        4.39356059       1.15841754       7.60987008      -0.00368121       0.00520626      -0.00637960
