9
Lattice="4.28033110297776 5.427476581315451e-08 2.47125033259921 1.426777051291946 4.035535063918961 2.4712503918435234 4.621487990067056e-08 1.0523800897788786e-07 4.942500585151925" Properties=species:S:1:pos:R:3:forces:R:3 energy=-53.31188201904297 free_energy=-53.31188201904297 stress="-0.0003243389364797622 3.401902759492259e-08 2.0406556444640955e-08 3.401902759492259e-08 -0.00032463419483974576 -5.629075428004171e-09 2.0406556444640955e-08 -5.629075428004171e-09 -0.00032463527168147266" pbc="T T T"
V        1.42677757       1.00888426       2.47125038       0.00000383       0.00000018      -0.00000027
V        4.28033135       3.02665076       7.41375120      -0.00000053      -0.00000528       0.00000239
Co      -0.00000072      -0.00000020       0.00000004       0.00001559       0.00000769       0.00000082
O        1.47286752       1.04147470       4.94250052       0.00369489       0.00261742       0.00000191
O        4.23424118       2.99406103       4.94250027      -0.00371122      -0.00262314      -0.00000485
O        3.54389750       1.04147450       3.74679071      -0.00185210       0.00262320       0.00320446
O        2.16321052       2.99406067       6.13821079       0.00185233      -0.00262433      -0.00320607
O        2.16321018       2.99406074       3.74679082       0.00184917      -0.00262141       0.00320864
O        3.54389773       1.04147447       6.13821080      -0.00185251       0.00262523      -0.00320697
