9
Lattice="5.932204821080637 -7.824449640710837e-08 3.424960194642119 1.9774015838044936 5.592936427651556 3.4249601070917164 3.978437000162268e-08 -7.90951187533518e-08 6.849920320375677" Properties=species:S:1:pos:R:3:forces:R:3 energy=-40.93452453613281 free_energy=-40.93452453613281 stress="-0.0001542081736261025 1.517799397277031e-08 3.3580158098622803e-10 1.517799397277031e-08 -0.00015420510317198932 9.265812561665143e-10 3.3580158098622803e-10 9.265812561665143e-10 -0.00015421025454998016" pbc="T T T"
V        1.97740112       1.39823511       3.42496027      -0.00000116       0.00000423       0.00000036
V        5.93220402       4.19470104      10.27488009      -0.00000371      -0.00000489      -0.00000042
Co      -0.00000014      -0.00000013       0.00000005       0.00000092      -0.00000394       0.00000140
Te       1.98485675       1.40350619       6.84992022       0.00163648       0.00115902      -0.00000051
Te       5.92474974       4.18943024       6.84992039      -0.00163474      -0.00115962      -0.00000007
Te       4.93977668       1.40350608       5.14389664      -0.00081760       0.00115945       0.00141909
Te       2.96983048       4.18943031       8.55594438       0.00082005      -0.00115761      -0.00141711
Te       2.96983030       4.18943015       5.14389634       0.00081860      -0.00115798       0.00141611
Te       4.93977684       1.40350606       8.55594411      -0.00081912       0.00116134      -0.00141886
