9
Lattice="5.316819421433455 4.2622005379435265e-08 3.069667266899537 1.7722731447518834 5.0127454266039795 3.0696673290981527 4.5154655253690724e-09 7.937030626710338e-08 6.1393345259780245" Properties=species:S:1:pos:R:3:forces:R:3 energy=-43.499061584472656 free_energy=-43.499061584472656 stress="6.954594573471695e-05 -6.113177741795539e-10 -2.7954159875775986e-08 -6.113177741795539e-10 6.956545257708058e-05 -5.938444402886489e-09 -2.7954159875775986e-08 -5.938444402886489e-09 6.954418495297432e-05" pbc="T T T"
V        1.77227312       1.25318442       3.06966696      -0.00000144      -0.00000618      -0.00000105
V        5.31682015       3.75956024       9.20900054       0.00000340       0.00000387      -0.00000469
Co      -0.00000001      -0.00000021       0.00000058       0.00000084       0.00000291      -0.00000233
Se       1.86263262       1.31708036       6.13933463      -0.00243814      -0.00172488      -0.00000065
Se       5.22645941       3.69566566       6.13933498       0.00243840       0.00172466      -0.00000009
Se       4.38550314       1.31707988       4.68275482       0.00121679      -0.00172208      -0.00211024
Se       2.70359002       3.69566536       7.59591426      -0.00122079       0.00172548       0.00211549
Se       2.70358903       3.69566619       4.68275543      -0.00121818       0.00172304      -0.00211035
Se       4.38550283       1.31708033       7.59591445       0.00121937      -0.00172688       0.00211383
