9
Lattice="6.055641885324624 -2.6433964208052413e-09 3.4962265604254323 2.0185473169412997 5.7093139389131995 3.4962265182927204 1.7259784581105373e-08 -3.939724925228074e-08 6.99245309095599" Properties=species:S:1:pos:R:3:forces:R:3 energy=-42.87915802001953 free_energy=-42.87915802001953 stress="-0.00024367634614463896 1.2851912423172962e-08 2.3746586919060064e-08 1.2851912423172962e-08 -0.00024370582832489163 -4.137456244279747e-08 2.3746586919060064e-08 -4.137456244279747e-08 -0.0002437258663121611" pbc="T T T"
V        2.01854723       1.42732805       3.49622640       0.00000013      -0.00000113      -0.00000006
V        6.05564188       4.28198554      10.48867891      -0.00000040       0.00000134      -0.00000305
Cr       0.00000031       0.00000007      -0.00000009      -0.00000397      -0.00000121      -0.00000071
Te       2.08770623       1.47623116       6.99245306      -0.00739192      -0.00522707       0.00000077
Te       5.98648276       4.23308264       6.99245337       0.00739491       0.00522958       0.00000192
Te       5.01178852       1.47623107       5.30423329       0.00369503      -0.00522640      -0.00640173
Te       3.06240044       4.23308290       8.68067319      -0.00369463       0.00522412       0.00640087
Te       3.06240052       4.23308297       5.30423351      -0.00369650       0.00522920      -0.00640148
Te       5.01178897       1.47623118       8.68067306       0.00369747      -0.00522852       0.00640344
