9
Lattice="3.5339285298417176 -3.1218586530025405 2.4938275160492984 3.64226585525878 2.6192895045118396 2.346528500816258 -0.4807260016641655 -0.11777275915915193 5.2881832701435565" Properties=species:S:1:pos:R:3:forces:R:3 energy=-68.78303527832031 free_energy=-68.78303527832031 stress="0.0026387779507786036 0.0006090619135648012 -0.0004464880330488086 0.0006090619135648012 0.0006011401419527829 -0.0003097422595601529 -0.0004464880330488086 -0.0003097422595601529 -0.0008056669612415135" pbc="T T T"
V        1.54681019      -1.02751507       3.19638489       0.02096370       0.01178361      -0.05021653
V        4.62886754      -0.75454701       7.26342372      -0.08498830      -0.01367122      -0.05391026
Cr       0.09176093       0.03564658       0.00698772       0.02788313       0.01986057       0.02141170
O        1.31616195       0.52749653       4.41181152      -0.08528620      -0.02779771       0.01054677
O        5.45105968      -0.37734718       5.63051165       0.07981664      -0.00561589       0.01307608
O        3.51389844      -1.11919917       2.88972280       0.00903276      -0.04625314      -0.06581968
O        3.81103458       0.85252787       6.76390992       0.00985406       0.02395135       0.07835437
O        4.51169481       2.05814508       4.07364814       0.00966507       0.03898512      -0.00979012
O        2.13169414      -2.92358890       6.04640027       0.01305950      -0.00124280       0.05634779
