9
Lattice="5.337945496715204 1.7782483069462526e-07 3.081863958258725 1.7793152818363978 5.032663455310361 3.081864047269208 -1.2778721918196592e-07 1.865601696117206e-08 6.163728137851264" Properties=species:S:1:pos:R:3:forces:R:3 energy=-46.49399185180664 free_energy=-46.49399185180664 stress="0.00040647591231390834 3.995639730192124e-08 -2.6774971129128744e-09 3.995639730192124e-08 0.0004064673266839236 3.136629445066319e-08 -2.6774971129128744e-09 3.136629445066319e-08 0.0004064496897626668" pbc="T T T"
V        1.77931563       1.25816540       3.08186416       0.00000105      -0.00000164       0.00000050
V        5.33794615       3.77449744       9.24559121       0.00000186       0.00000008      -0.00000315
Cr      -0.00000022       0.00000058      -0.00000068      -0.00000319      -0.00000742       0.00000981
Se       1.90743509       1.34876060       6.16372803       0.00838998       0.00593084       0.00000197
Se       5.20982433       3.68390281       6.16372850      -0.00838006      -0.00592521       0.00000437
Se       4.38422822       1.34876146       4.73375157      -0.00419100       0.00592889       0.00726053
Se       2.73303304       3.68390381       7.59370474       0.00419453      -0.00593162      -0.00726280
Se       2.73303248       3.68390250       4.73375186       0.00418781      -0.00592814       0.00725871
Se       4.38422792       1.34875998       7.59370516      -0.00420104       0.00593445      -0.00727016
