9
Lattice="5.009364652271864 -7.260592231169079e-10 2.8921579707564216 1.6697881894131585 4.722874258922877 2.892158018086853 1.4496205146070035e-08 6.821806252814713e-08 5.784315916404658" Properties=species:S:1:pos:R:3:forces:R:3 energy=-44.17583465576172 free_energy=-44.17583465576172 stress="-6.335783109534532e-05 -9.463844818924372e-09 8.17721557133666e-10 -9.463844818924372e-09 -6.32942101219669e-05 1.2601870658102143e-08 8.17721557133666e-10 1.2601870658102143e-08 -6.338203093037009e-05" pbc="T T T"
V        1.66978806       1.18071864       2.89215810      -0.00000144      -0.00000041       0.00000243
V        5.00936455       3.54215565       8.67647450       0.00000029      -0.00000079       0.00000329
C        0.00000187       0.00000022      -0.00000674       0.00004193       0.00000640      -0.00014827
S        1.60016084       1.13148487       5.78431560      -0.00077063      -0.00054368      -0.00000024
S        5.07899031       3.59138867       5.78431513       0.00074008       0.00052413      -0.00000114
S        4.20928259       1.13148691       4.27794080       0.00035407      -0.00050458      -0.00061411
S        2.46986782       3.59139063       7.29069521      -0.00040092       0.00056499       0.00069579
S        2.46987015       3.59138790       4.27794046      -0.00035965       0.00051111      -0.00062218
S        4.20928507       1.13148385       7.29069476       0.00039610      -0.00055715       0.00068453
