9
Lattice="5.935405676808373 9.450198977384552e-09 3.4268080064733284 1.9784684895060571 5.595954189944325 3.4268081421617675 -1.1372885643584241e-07 8.576531239094879e-08 6.853616209930812" Properties=species:S:1:pos:R:3:forces:R:3 energy=-42.221221923828125 free_energy=-42.221221923828125 stress="-7.279030978679657e-05 6.521779738477562e-08 -8.617670133048705e-09 6.521779738477562e-08 -7.28703016648069e-05 1.6525396162592187e-08 -8.617670133048705e-09 1.6525396162592187e-08 -7.293323869816959e-05" pbc="T T T"
V        1.97846891       1.39898881       3.42680831       0.00000179       0.00000127       0.00000196
V        5.93540456       4.19696565      10.28042387      -0.00000513      -0.00000105      -0.00000044
Fe      -0.00000058       0.00000007      -0.00000069       0.00001028      -0.00000484       0.00001864
Te       1.97221457       1.39456613       6.85361617      -0.00557247      -0.00394116       0.00000074
Te       5.94165989       4.20138812       6.85361644       0.00557062       0.00393805       0.00000104
Te       4.94929815       1.39456625       5.13479564       0.00278415      -0.00393824      -0.00482426
Te       2.96457590       4.20138821       8.57243685      -0.00278040       0.00393283       0.00481857
Te       2.96457613       4.20138808       5.13479568      -0.00278628       0.00394114      -0.00482788
Te       4.94929869       1.39456580       8.57243718       0.00277763      -0.00392804       0.00481149
