9
Lattice="5.521021914262529 -6.889422998579587e-08 3.1875634293274895 1.8403405183940842 5.205269504000736 3.187563524138679 2.102508739478638e-08 1.309865632889004e-07 6.375126822238526" Properties=species:S:1:pos:R:3:forces:R:3 energy=-44.79204559326172 free_energy=-44.79204559326172 stress="4.796639768755995e-05 -1.3217985816993405e-08 -3.228790035336715e-08 -1.3217985816993405e-08 4.7952002205420285e-05 4.545629295193976e-08 -3.228790035336715e-08 4.545629295193976e-08 4.793965854332782e-05" pbc="T T T"
V        1.84033836       1.30131831       3.18756434      -0.00001818       0.00000537       0.00000581
V        5.52102147       3.90395337       9.56268669      -0.00000360       0.00000908      -0.00002509
Fe      -0.00000000      -0.00000021       0.00000053      -0.00000340       0.00000428      -0.00001122
Se       1.85874208       1.31432830       6.37512664      -0.00805336      -0.00569898       0.00000044
Se       5.50262089       3.89093978       6.37512852       0.00806147       0.00569484       0.00000845
Se       4.59165131       1.31432778       4.79728278       0.00403225      -0.00570309      -0.00697243
Se       2.76971242       3.89094060       7.95297278      -0.00402606       0.00569874       0.00698277
Se       2.76971082       3.89094068       4.79728079      -0.00402534       0.00568801      -0.00696921
Se       4.59165247       1.31432950       7.95297221       0.00403638      -0.00569817       0.00698107
