9
Lattice="5.069610761747121 -1.825508496281194e-07 2.9269411527685287 1.689870145003453 4.779674455330414 2.926941043305909 8.672152208832412e-09 -1.2793160896624997e-07 5.853882290516474" Properties=species:S:1:pos:R:3:forces:R:3 energy=-48.48868179321289 free_energy=-48.48868179321289 stress="0.00016561483789701015 -4.217358196001442e-08 -5.2604828937319326e-08 -4.217358196001442e-08 0.00016563557437621057 3.526909608808637e-08 -5.2604828937319326e-08 3.526909608808637e-08 0.00016557530034333467" pbc="T T T"
V        1.68986997       1.19491879       2.92694070      -0.00000027       0.00000144      -0.00000147
V        5.06961084       3.58475589       8.78082548       0.00000210       0.00000088       0.00000742
Fe       0.00000058       0.00000092       0.00000015      -0.00000624      -0.00001294      -0.00000255
S        1.75099389       1.23813955       5.85388177       0.00331432       0.00234377      -0.00000075
S        5.00848592       3.54153338       5.85388195      -0.00329578      -0.00233296       0.00000193
S        4.19411345       1.23814001       4.44334645      -0.00165468       0.00233406       0.00286347
S        2.56536752       3.54153422       7.26441697       0.00164890      -0.00233597      -0.00285971
S        2.56536801       3.54153443       4.44334672       0.00164989      -0.00233606       0.00285929
S        4.19411324       1.23813939       7.26441789      -0.00165826       0.00233814      -0.00286794
