9
Lattice="4.375554724412922 -3.047043679097231e-09 2.5262276780529342 1.4585182217568005 4.125312494875491 2.5262277072230956 -8.272665923914592e-09 2.987633670448107e-08 5.052455370434535" Properties=species:S:1:pos:R:3:forces:R:3 energy=-54.146949768066406 free_energy=-54.146949768066406 stress="3.6262532375985757e-05 1.0943428208065598e-07 -1.1613224160100799e-07 1.0943428208065598e-07 3.606689642765559e-05 8.639749332628455e-11 -1.1613224160100799e-07 8.639749332628455e-11 3.608598854043521e-05" pbc="T T T"
V        1.45851912       1.03132712       2.52622873       0.00000873      -0.00001488       0.00001350
V        4.37555416       3.09398206       7.57868489      -0.00000422      -0.00002958       0.00002345
Fe       0.00000002       0.00000008       0.00000003      -0.00000204       0.00000300      -0.00000211
O        1.44303620       1.02038165       5.05245498       0.00228609       0.00162977      -0.00000627
O        4.39103631       3.10493179       5.05245462      -0.00229590      -0.00161758      -0.00001125
O        3.65403626       1.02038161       3.77593312      -0.00115034       0.00163572       0.00197895
O        2.18003637       3.10493220       6.32897627       0.00114849      -0.00161587      -0.00199485
O        2.18003706       3.10493200       3.77593316       0.00115754      -0.00162223       0.00198460
O        3.65403622       1.02038155       6.32897711      -0.00114848       0.00163190      -0.00198491
