9
Lattice="5.2522881336211205 1.8765571953940293e-07 3.0324099855454225 1.7507628455620248 4.951905003987272 3.0324100592762693 -3.165204084100894e-08 6.792011284498768e-08 6.064820025913746" Properties=species:S:1:pos:R:3:forces:R:3 energy=-41.261993408203125 free_energy=-41.261993408203125 stress="-8.949236507760361e-05 5.5173060786728456e-08 -1.1593626503270116e-08 5.5173060786728456e-08 -8.957017416832969e-05 2.951846767018651e-08 -1.1593626503270116e-08 2.951846767018651e-08 -8.961736602941528e-05" pbc="T T T"
V        1.75076360       1.23797721       3.03241010       0.00000329       0.00000207       0.00000063
V        5.25228787       3.71392865       9.09723112       0.00000041      -0.00000006       0.00000378
Ga       0.00000013      -0.00000026       0.00000018      -0.00000340       0.00000616      -0.00000193
S        1.84693152       1.30597829       6.06482016      -0.00115031      -0.00081059       0.00000218
S        5.15611909       3.64592742       6.06481971       0.00114627       0.00081214       0.00000066
S        4.32882228       1.30597817       4.63189931       0.00057282      -0.00081145      -0.00099678
S        2.67422818       3.64592699       7.49774046      -0.00057273       0.00080752       0.00099102
S        2.67422873       3.64592708       4.63189924      -0.00057115       0.00080618      -0.00099064
S        4.32882238       1.30597745       7.49773999       0.00057472      -0.00081212       0.00099140
