9
Lattice="4.367192997519632 -9.090613529873121e-10 2.5213999770956406 1.4557309722368443 4.117428999177878 2.5214000222662816 -3.852539225408831e-08 2.808095165530683e-08 5.042800020919201" Properties=species:S:1:pos:R:3:forces:R:3 energy=-51.323097229003906 free_energy=-51.323097229003906 stress="0.00025624860427342355 -9.716425353190061e-08 -7.862323769813884e-08 -9.716425353190061e-08 0.0002562811132520437 2.7631259058580326e-08 -7.862323769813884e-08 2.7631259058580326e-08 0.0002563374291639775" pbc="T T T"
V        1.45573124       1.02935710       2.52139952       0.00000470      -0.00000707      -0.00000553
V        4.36719304       3.08807215       7.56419983       0.00000344       0.00000655      -0.00000302
Ga      -0.00000003       0.00000006       0.00000005       0.00000100       0.00000000       0.00000020
O        1.51101189       1.06844678       5.04280012      -0.00060076      -0.00042516       0.00000167
O        4.31191204       3.04898232       5.04280003       0.00060022       0.00042576       0.00000072
O        3.61168716       1.06844648       3.82997532       0.00030228      -0.00043225      -0.00051808
O        2.21123688       3.04898214       6.25562498      -0.00030559       0.00042993       0.00052309
O        2.21123695       3.04898224       3.82997483      -0.00030047       0.00042677      -0.00052369
O        3.61168653       1.06844686       6.25562556       0.00029531      -0.00042409       0.00052387
