9
Lattice="6.227085922819959 -2.2006460854305377e-08 3.5952097496483453 2.0756952597937617 5.870952896579472 3.5952097965262806 -4.980150716212518e-08 2.2198499256692062e-08 7.1904195855554285" Properties=species:S:1:pos:R:3:forces:R:3 energy=-35.06549072265625 free_energy=-35.06549072265625 stress="2.02437713596737e-05 3.934134351624152e-09 -1.3249759067690547e-09 3.934134351624152e-09 2.0236571799614467e-05 7.402959578683976e-09 -1.3249759067690547e-09 7.402959578683976e-09 2.0241715901647694e-05" pbc="T T T"
V        2.07569538       1.46773822       3.59520985       0.00000089      -0.00000084       0.00000204
V        6.22708600       4.40321465      10.78563000      -0.00000005      -0.00000043       0.00000545
Ga      -0.00000001       0.00000013      -0.00000059      -0.00000127      -0.00000079       0.00000801
Te       2.20608688       1.55993914       7.19041923      -0.00739850      -0.00523024       0.00000012
Te       6.09669415       4.31101369       7.19041908       0.00739972       0.00523151      -0.00000085
Te       5.12404214       1.55993942       5.50573744       0.00370087      -0.00523345      -0.00641116
Te       3.17873841       4.31101420       8.87510203      -0.00369783       0.00522849       0.00640334
Te       3.17873923       4.31101357       5.50573739      -0.00370023       0.00523481      -0.00641033
Te       5.12404237       1.55993856       8.87510213       0.00369634      -0.00522909       0.00640339
