9
Lattice="5.25228806998035 1.663723511142791e-07 3.0324099203479653 1.7507627791518772 4.951904550471296 3.032410037605922 -3.861790618315849e-08 1.1630410219101513e-07 6.064819907584084" Properties=species:S:1:pos:R:3:forces:R:3 energy=-41.261993408203125 free_energy=-41.261993408203125 stress="-8.952717325882986e-05 5.824718485314406e-08 -4.980321044456559e-09 5.824718485314406e-08 -8.961300773080438e-05 2.403055354704975e-08 -4.980321044456559e-09 2.403055354704975e-08 -8.971265924628824e-05" pbc="T T T"
V        1.75076350       1.23797719       3.03241018       0.00000211       0.00000367       0.00000018
V        5.25228778       3.71392888       9.09723112       0.00000002       0.00000056       0.00000422
Ga       0.00000017      -0.00000024       0.00000020      -0.00000320       0.00000234       0.00000006
S        1.84693148       1.30597800       6.06481991      -0.00115024      -0.00081285       0.00000208
S        5.15611901       3.64592649       6.06481947       0.00115028       0.00081336      -0.00000108
S        4.32882225       1.30597778       4.63189914       0.00057445      -0.00081432      -0.00099561
S        2.67422815       3.64592698       7.49774021      -0.00057311       0.00080815       0.00099096
S        2.67422879       3.64592658       4.63189896      -0.00057134       0.00080907      -0.00099401
S        4.32882204       1.30597758       7.49774033       0.00057121      -0.00081004       0.00099334
