9
Lattice="6.22708617864771 -4.7118638186726974e-08 3.5952099712914283 2.0756953397373388 5.870953195022997 3.595209986397269 -3.6254055864600585e-08 -7.134702489376077e-09 7.190420005376716" Properties=species:S:1:pos:R:3:forces:R:3 energy=-35.065494537353516 free_energy=-35.065494537353516 stress="2.0295638023526408e-05 -1.0239888936780517e-08 5.268460778751205e-09 -1.0239888936780517e-08 2.0304496501921676e-05 -4.677025433608151e-10 5.268460778751205e-09 -4.677025433608151e-10 2.0306721125962213e-05" pbc="T T T"
V        2.07569565       1.46773827       3.59520978       0.00000064      -0.00000207       0.00000113
V        6.22708600       4.40321506      10.78563060       0.00000026       0.00000124       0.00000361
Ga       0.00000015       0.00000002      -0.00000064      -0.00000051       0.00000047       0.00000832
Te       2.20608734       1.55993925       7.19041990      -0.00740358      -0.00523511       0.00000072
Te       6.09669407       4.31101366       7.19041939       0.00740384       0.00523642      -0.00000032
Te       5.12404203       1.55993983       5.50573807       0.00370387      -0.00523983      -0.00641632
Te       3.17873878       4.31101413       8.87510230      -0.00369979       0.00523337       0.00640938
Te       3.17873949       4.31101339       5.50573806      -0.00370459       0.00523926      -0.00641653
Te       5.12404244       1.55993893       8.87510240       0.00369985      -0.00523377       0.00640984
