9
Lattice="5.448535046826235 1.213624555032164e-07 3.1457132058259325 1.8161784455943308 5.136928461217347 3.14571323660339 -1.1503740278556883e-08 2.9560143601953593e-08 6.29142643157688" Properties=species:S:1:pos:R:3:forces:R:3 energy=-38.0506477355957 free_energy=-38.0506477355957 stress="0.00014599892892874777 1.7457193024483786e-08 2.357919548501286e-08 1.7457193024483786e-08 0.00014591595390811563 -2.9263004464041842e-08 2.357919548501286e-08 -2.9263004464041842e-08 0.00014591493527404964" pbc="T T T"
V        1.81617897       1.28423306       3.14571286       0.00000142       0.00000503      -0.00000104
V        5.44853510       3.85269583       9.43713983      -0.00000060      -0.00000163      -0.00000115
Ga       0.00000021       0.00000052       0.00000009      -0.00000266      -0.00000445       0.00000310
Se       2.00647374       1.41879142       6.29142605       0.00086826       0.00061466       0.00000058
Se       5.25823915       3.71813635       6.29142634      -0.00086150      -0.00061031      -0.00000006
Se       4.44529810       1.41879177       4.88337026      -0.00043361       0.00061116       0.00074989
Se       2.81941551       3.71813717       7.69948270       0.00043437      -0.00061576      -0.00075024
Se       2.81941534       3.71813685       4.88337076       0.00043055      -0.00061086       0.00074968
Se       4.44529783       1.41879145       7.69948261      -0.00043637       0.00061218      -0.00075065
