9
Lattice="4.06205901619872 -2.767256695293177e-07 2.3452304933008334 1.354019341177691 3.8297454521559207 2.34523061452551 -4.984879899432023e-07 -2.0401492332413145e-07 4.690461850008215" Properties=species:S:1:pos:R:3:forces:R:3 energy=-59.72563171386719 free_energy=-59.72563171386719 stress="6.628673145314679e-05 3.447451319971151e-07 1.4951449429645436e-06 3.447451319971151e-07 7.069822459015995e-05 1.004406271931657e-06 1.4951449429645436e-06 1.004406271931657e-06 6.775806832592934e-05" pbc="T T T"
V        1.35402351       0.95742946       2.34523256       0.00006546      -0.00010249       0.00001652
V        4.06205870       2.87231118       7.03568601       0.00001541       0.00002104      -0.00009330
Ga      -0.00000026       0.00000007       0.00000025       0.00001034       0.00000549      -0.00000529
N        1.50444259       1.06380128       4.69046133       0.00356120       0.00251892      -0.00000133
N        3.91163380       2.76594582       4.69046320      -0.00360364      -0.00249588       0.00003263
N        3.30983511       1.06380005       3.64811683      -0.00181541       0.00251508       0.00310364
N        2.10624154       2.76594514       5.73280685       0.00179473      -0.00249308      -0.00308597
N        2.10624005       2.76594476       3.64811763       0.00176704      -0.00250149       0.00310943
N        3.30983666       1.06380193       5.73280697      -0.00179598       0.00253242      -0.00307640
