9
Lattice="6.205643390689263 -5.960166314708828e-09 3.582829993010219 2.068547780984347 5.850736646022391 3.582830010837817 -8.736331446716093e-09 1.5656771310851892e-08 7.165660001152223" Properties=species:S:1:pos:R:3:forces:R:3 energy=-36.22634506225586 free_energy=-36.22634506225586 stress="-4.662421633838676e-05 -1.7387550288461284e-09 -4.663095243273574e-09 -1.7387550288461284e-09 -4.6641896915389225e-05 1.8912462707021405e-09 -4.663095243273574e-09 1.8912462707021405e-09 -4.663809886551462e-05" pbc="T T T"
V        2.06854762       1.46268327       3.58282988      -0.00000214      -0.00000594       0.00000005
V        6.20564388       4.38805286      10.74848982       0.00000223       0.00000190      -0.00000338
Ge       0.00000004      -0.00000003       0.00000004      -0.00000092      -0.00000043       0.00000062
Te       2.20217852       1.55717545       7.16566000      -0.00259256      -0.00183365       0.00000024
Te       6.07201214       4.29356126       7.16566016       0.00259313       0.00183675       0.00000194
Te       5.10455414       1.55717544       5.48997300       0.00129703      -0.00183499      -0.00224479
Te       3.16963715       4.29356144       8.84134716      -0.00129615       0.00183542       0.00224480
Te       3.16963705       4.29356151       5.48997299      -0.00129757       0.00183582      -0.00224487
Te       5.10455408       1.55717543       8.84134704       0.00129692      -0.00183490       0.00224549
