9
Lattice="5.47059615608446 5.057747196030393e-08 3.1584502897803692 1.8235320605894765 5.157727324342529 3.1584503575444307 1.8244492925839343e-08 9.589444152298204e-08 6.316900547960263" Properties=species:S:1:pos:R:3:forces:R:3 energy=-42.507694244384766 free_energy=-42.507694244384766 stress="0.0003270830202382058 -2.295004897234776e-08 9.593678740316136e-09 -2.295004897234776e-08 0.0003272018220741302 -1.720980868924471e-08 9.593678740316136e-09 -1.720980868924471e-08 0.00032717688009142876" pbc="T T T"
V        1.82353137       1.28943232       3.15845059      -0.00000333       0.00000272       0.00000411
V        5.47059639       3.86829528       9.47535039       0.00000075      -0.00000153      -0.00000261
Ge      -0.00000035       0.00000006       0.00000022       0.00000465      -0.00000044      -0.00000375
S        1.87618733       1.32666491       6.31690084      -0.00627536      -0.00443715       0.00000101
S        5.41794103       3.83106261       6.31690094       0.00627089       0.00443238       0.00000217
S        4.53250212       1.32666497       4.78327579       0.00313357      -0.00443369      -0.00543350
S        2.76162577       3.83106237       7.85052510      -0.00313729       0.00443703       0.00543606
S        2.76162566       3.83106228       4.78327667      -0.00313848       0.00443709      -0.00543517
S        4.53250362       1.32666506       7.85052447       0.00314438      -0.00443667       0.00543147
