9
Lattice="4.385041561855705 -1.4778299354834055e-09 2.53170477717421 1.4616804957348615 4.1342567644622825 2.5317048178607644 -7.547992455411825e-08 -3.5417266960796533e-09 5.06340968508349" Properties=species:S:1:pos:R:3:forces:R:3 energy=-55.72178649902344 free_energy=-55.72178649902344 stress="0.00017344018851872534 4.0101845399931335e-08 4.067583958544674e-08 4.0101845399931335e-08 0.00017345190281048417 1.3300255830017704e-07 4.067583958544674e-08 1.3300255830017704e-07 0.00017360741912852973" pbc="T T T"
V        1.46168114       1.03356343       2.53170529       0.00000995      -0.00000910       0.00000819
V        4.38504122       3.10069331       7.59511363      -0.00000243       0.00000602      -0.00001169
Ge       0.00000007       0.00000017      -0.00000003      -0.00000220      -0.00000781      -0.00000416
O        1.49730327       1.05875291       5.06340933      -0.00087321      -0.00062037      -0.00000123
O        4.34941863       3.07550385       5.06341014       0.00087631       0.00062358       0.00000268
O        3.63638955       1.05875312       3.82840710       0.00043339      -0.00061738      -0.00075793
O        2.21033231       3.07550364       6.29841204      -0.00043941       0.00062299       0.00076604
O        2.21033171       3.07550373       3.82840749      -0.00043589       0.00061953      -0.00075614
O        3.63639006       1.05875293       6.29841222       0.00043279      -0.00061667       0.00075352
