9
Lattice="5.451906294963757 -4.21461122556142e-06 3.1476576165014563 1.8172985004594464 5.140102154111805 3.1476569657504387 -1.19539943297432e-06 -1.6422791506586557e-06 6.295317303495791" Properties=species:S:1:pos:R:3:forces:R:3 energy=-39.605838775634766 free_energy=-39.605838775634766 stress="-0.0002808491117320955 -2.3200333032491471e-07 -4.3720220332943427e-07 -2.3200333032491471e-07 -0.0002801106311380863 -1.752986378278365e-07 -4.3720220332943427e-07 -1.752986378278365e-07 -0.0002795485488604754" pbc="T T T"
V        1.81730879       1.28506111       3.14763016       0.00003490       0.00016850      -0.00011835
V        5.45186453       3.85510159       9.44305464      -0.00016774       0.00012379       0.00034773
Ge       0.00000388      -0.00000155      -0.00000045      -0.00004365       0.00001947       0.00000621
Se       2.02354843       1.43084202       6.29532039       0.00609511       0.00422902       0.00000999
Se       5.24567192       3.70922098       6.29526779      -0.00599378      -0.00432697      -0.00017535
Se       4.44013382       1.43085576       4.90010020      -0.00299620       0.00420059       0.00518222
Se       2.82907658       3.70921974       7.69053768       0.00303508      -0.00431801      -0.00522038
Se       2.82908835       3.70923253       4.90008704       0.00306855      -0.00429781       0.00517794
Se       4.44011974       1.43085195       7.69053124      -0.00303257       0.00420144      -0.00521006
