9
Lattice="5.752011126184132 -7.092575030721051e-08 3.320925116302968 1.9173369361899455 5.423048145429056 3.3209251838564446 -1.0231761877716227e-07 1.0386274021540052e-08 6.641850409825231" Properties=species:S:1:pos:R:3:forces:R:3 energy=-46.3292236328125 free_energy=-46.3292236328125 stress="4.6022338210605085e-05 -7.49719308856811e-09 -2.946755550681246e-08 -7.49719308856811e-09 4.609496318153106e-05 4.603861114560459e-08 -2.946755550681246e-08 4.603861114560459e-08 4.603050911100581e-05" pbc="T T T"
V        1.91733757       1.35576268       3.32092523       0.00000426       0.00000518       0.00000106
V        5.75201006       4.06728455       9.96277493      -0.00000902      -0.00001289      -0.00000437
Hf       0.00000032       0.00000068       0.00000038      -0.00000460      -0.00001017      -0.00000394
Se       2.07108754       1.46448071       6.64185021      -0.00141624      -0.00099815      -0.00000042
Se       5.59825941       3.95856740       6.64185058       0.00142479       0.00100763       0.00000050
Se       4.71646680       1.46448072       5.11454019       0.00071071      -0.00100106      -0.00123011
Se       2.95288189       3.95856717       8.16916056      -0.00070851       0.00100497       0.00123684
Se       2.95288112       3.95856715       5.11454014      -0.00070879       0.00100170      -0.00123060
Se       4.71646714       1.46448125       8.16916060       0.00070757      -0.00099726       0.00123069
