9
Lattice="6.3412851228478475 -9.962556731091073e-09 3.6611426933652425 2.1137616842074776 5.978621053299222 3.66114271764106 -2.5547021703973758e-08 1.1667273684969237e-08 7.322285430979175" Properties=species:S:1:pos:R:3:forces:R:3 energy=-43.57002639770508 free_energy=-43.57002639770508 stress="7.907520921435207e-05 3.4107274782257946e-09 -1.3470602411302934e-08 3.4107274782257946e-09 7.907451799837872e-05 1.8291485659460704e-08 -1.3470602411302934e-08 1.8291485659460704e-08 7.906867540441453e-05" pbc="T T T"
V        2.11376150       1.49465529       3.66114269      -0.00000033      -0.00000117      -0.00000035
V        6.34128482       4.48396580      10.98342796      -0.00000263       0.00000028      -0.00000160
Hf       0.00000007      -0.00000030       0.00000005      -0.00000051       0.00000286      -0.00000029
Te       2.25395353       1.59378556       7.32228550      -0.00255090      -0.00180350      -0.00000019
Te       6.20109330       4.38483535       7.32228550       0.00255197       0.00180350       0.00000050
Te       5.21430838       1.59378571       5.61312363       0.00127579      -0.00180402      -0.00221059
Te       3.24073867       4.38483549       9.03144727      -0.00127574       0.00180504       0.00220951
Te       3.24073846       4.38483549       5.61312353      -0.00127347       0.00180097      -0.00220634
Te       5.21430839       1.59378581       9.03144728       0.00127589      -0.00180396       0.00220928
