9
Lattice="5.416867849333415 7.16744664813687e-08 3.1274301262846556 1.8056226741759547 5.107072236861813 3.127430143334743 -5.8257076743153926e-08 -2.0311983002550768e-08 6.2548603534735125" Properties=species:S:1:pos:R:3:forces:R:3 energy=-51.62273406982422 free_energy=-51.62273406982422 stress="2.3006261471891776e-05 -5.969533134475569e-08 4.476874870817937e-09 -5.969533134475569e-08 2.2998678105068393e-05 8.897696468501692e-11 4.476874870817937e-09 8.897696468501692e-11 2.3110833353712223e-05" pbc="T T T"
V        1.80562247       1.27676830       3.12743015      -0.00000113       0.00000048       0.00000102
V        5.41686794       3.83030412       9.38229069       0.00000100      -0.00000060       0.00000079
Hf       0.00000002      -0.00000038      -0.00000018       0.00000327       0.00000702      -0.00000237
S        1.95039977       1.37914149       6.25486012       0.00048700       0.00034525      -0.00000192
S        5.27209071       3.72793098       6.25486007      -0.00049442      -0.00034942      -0.00000141
S        4.44166797       1.37914107       4.81652635      -0.00024241       0.00034419       0.00042281
S        2.78082216       3.72793113       7.69319430       0.00024426      -0.00034644      -0.00042300
S        2.78082260       3.72793129       4.81652660       0.00024572      -0.00034522       0.00042424
S        4.44166823       1.37914122       7.69319429      -0.00024331       0.00034495      -0.00042014
