9
Lattice="4.534989188333656 -2.909713412148726e-08 2.618277247441886 1.5116630411538552 4.275628948905726 2.618277237380392 -4.026023351807166e-08 -4.079104127104404e-08 5.236554564616521" Properties=species:S:1:pos:R:3:forces:R:3 energy=-62.794639587402344 free_energy=-62.794639587402344 stress="0.00012599225738085806 1.0859317711719996e-07 1.2788274439401448e-08 1.0859317711719996e-07 0.0001261532015632838 -3.433262563135031e-08 1.2788274439401448e-08 -3.433262563135031e-08 0.00012581572809722275" pbc="T T T"
V        1.51166317       1.06890643       2.61827662       0.00000278      -0.00000868      -0.00000829
V        4.53498882       3.20672174       7.85483118      -0.00000517      -0.00000015      -0.00000832
Hf      -0.00000002       0.00000002      -0.00000017      -0.00000153       0.00000022       0.00000698
O        1.62616196       1.14986999       5.23655481      -0.00348318      -0.00246608       0.00000266
O        4.42049011       3.12575916       5.23655473       0.00348139       0.00247020       0.00000344
O        3.72190834       1.14987015       4.02657462       0.00174123      -0.00246263      -0.00301445
O        2.32474402       3.12575884       6.44653491      -0.00173444       0.00245792       0.00301492
O        2.32474379       3.12575904       4.02657487      -0.00174192       0.00246948      -0.00301242
O        3.72190847       1.14987008       6.44653452       0.00174120      -0.00246024       0.00301582
