9
Lattice="5.535678800422159 -1.039324060176164e-07 3.196026239492092 1.8452264037388775 5.219087714292368 3.1960258325990036 2.2122463821954147e-07 -3.41910943673581e-07 6.392052095811808" Properties=species:S:1:pos:R:3:forces:R:3 energy=-44.16743469238281 free_energy=-44.16743469238281 stress="0.0002365444670431316 4.825180610623647e-08 8.882469160198525e-08 4.825180610623647e-08 0.00023655571567360312 -1.2645500646613073e-07 8.882469160198525e-08 -1.2645500646613073e-07 0.00023640644212719053" pbc="T T T"
V        1.84522759       1.30477268       3.19602628       0.00000537       0.00000681       0.00000018
V        5.53567818       3.91431380       9.58807717      -0.00000715      -0.00001040      -0.00000393
Ir       0.00000010      -0.00000112       0.00000009      -0.00000536       0.00001497       0.00000179
Se       2.00063812       1.41466296       6.39204959      -0.00626752      -0.00443572      -0.00001036
Se       5.38026846       3.80442151       6.39205062       0.00627393       0.00442986      -0.00000398
Se       4.53536083       1.41466384       4.92862922       0.00313281      -0.00443405      -0.00542751
Se       2.84554465       3.80442325       7.85547678      -0.00312945       0.00441901       0.00541860
Se       2.84554521       3.80442489       4.92862960      -0.00313377       0.00443687      -0.00542325
Se       4.53535867       1.41466713       7.85547736       0.00313091      -0.00442752       0.00544849
