9
Lattice="4.456989852568548 2.131947216081717e-08 2.5732444206563296 1.4856633117023461 4.202090392589236 2.5732444078172603 1.778296940209907e-08 -3.150126446021407e-09 5.146488810511644" Properties=species:S:1:pos:R:3:forces:R:3 energy=-56.29695129394531 free_energy=-56.29695129394531 stress="0.0008738222531974316 -7.372938881644586e-08 -2.7791768886231694e-08 -7.372938881644586e-08 0.0008738649194128811 9.443458459656995e-09 -2.7791768886231694e-08 9.443458459656995e-09 0.0008738929755054414" pbc="T T T"
V        1.48566410       1.05052323       2.57324345       0.00001191       0.00001016      -0.00001861
V        4.45699145       3.15156801       7.71973296       0.00002831       0.00000280      -0.00000634
Ir      -0.00000005      -0.00000006       0.00000007       0.00000120       0.00000646       0.00000570
O        1.52351304       1.07728736       5.14648897       0.00089119       0.00063985       0.00000732
O        4.41913964       3.12480358       5.14648887      -0.00090556      -0.00064129      -0.00000003
O        3.69523291       1.07728631       3.89264629      -0.00045150       0.00062411       0.00077927
O        2.24741953       3.12480303       6.40033196       0.00044139      -0.00064258      -0.00077685
O        2.24741960       3.12480371       3.89264620       0.00043982      -0.00063325       0.00078386
O        3.69523259       1.07728661       6.40033191      -0.00045671       0.00063337      -0.00077397
