9
Lattice="4.456937751697773 -5.3187215203597787e-08 2.5732142309025794 1.4856458657179588 4.202041076756431 2.57321423327417 -1.797589903291049e-08 -9.806279574072346e-09 5.146428492940329" Properties=species:S:1:pos:R:3:forces:R:3 energy=-56.296958923339844 free_energy=-56.296958923339844 stress="0.0008497341186739504 -3.1442993986274814e-08 -8.943641205405584e-08 -3.1442993986274814e-08 0.00084975257050246 1.0422213136962455e-07 -8.943641205405584e-08 1.0422213136962455e-07 0.000849889765959233" pbc="T T T"
V        1.48564647       1.05051057       2.57321395       0.00001010       0.00000414      -0.00000111
V        4.45693878       3.15153027       7.71964332       0.00001600      -0.00000656       0.00000670
Ir      -0.00000004       0.00000007       0.00000033       0.00000144      -0.00000641      -0.00001537
O        1.52351782       1.07729043       5.14642827       0.00042659       0.00031228      -0.00000174
O        4.41906544       3.12475074       5.14642807      -0.00043076      -0.00030668       0.00000069
O        3.69517850       1.07729022       3.89261954      -0.00021935       0.00030645       0.00037545
O        2.24740461       3.12475081       6.40023713       0.00020553      -0.00030089      -0.00036793
O        2.24740472       3.12475124       3.89261994       0.00021217      -0.00030663       0.00037690
O        3.69517804       1.07728967       6.40023736      -0.00022144       0.00030428      -0.00037389
