9
Lattice="5.535377321072709 2.8590711099395594e-07 3.1958513117221026 1.8451260177970548 5.218803826129816 3.1958513558023354 -4.291791566969882e-08 2.3639489231524685e-08 6.391702697780332" Properties=species:S:1:pos:R:3:forces:R:3 energy=-44.16742706298828 free_energy=-44.16742706298828 stress="0.00025454998831264675 8.569082865506061e-08 1.9264742689983905e-08 8.569082865506061e-08 0.0002544843591749668 2.1073804035154353e-08 1.9264742689983905e-08 2.1073804035154353e-08 0.00025445380015298724" pbc="T T T"
V        1.84512752       1.30470201       3.19585045       0.00001139       0.00000580      -0.00000493
V        5.53537542       3.91410270       9.58755584      -0.00001191      -0.00000020       0.00001153
Ir       0.00000029      -0.00000016      -0.00000093      -0.00000331       0.00000281       0.00000891
Se       2.00075871       1.41474904       6.39170261      -0.00807697      -0.00571416       0.00000244
Se       5.37974483       3.80405551       6.39170059       0.00807440       0.00571413      -0.00000981
Se       4.53499726       1.41474932       4.92855831       0.00403669      -0.00571020      -0.00699821
Se       2.84550437       3.80405327       7.85484874      -0.00403464       0.00569597       0.00699303
Se       2.84550526       3.80405481       4.92855786      -0.00403348       0.00570863      -0.00699362
Se       4.53499934       1.41475000       7.85484763       0.00403759      -0.00570306       0.00699091
