9
Lattice="5.25609050308439 -8.993665078274018e-08 3.0346051410940356 1.7520300933739374 4.955489394752753 3.0346051229556457 3.538662280926056e-09 -1.9712730646292054e-08 6.069210276058945" Properties=species:S:1:pos:R:3:forces:R:3 energy=-48.059608459472656 free_energy=-48.059608459472656 stress="-7.136878411984071e-05 -1.8196862683339532e-08 -1.0096092850631067e-08 -1.8196862683339532e-08 -7.133773033274338e-05 1.0984377851741556e-08 -1.0096092850631067e-08 1.0984377851741556e-08 -7.134029874578118e-05" pbc="T T T"
V        1.75203046       1.23887234       3.03460548       0.00000034      -0.00000001       0.00000050
V        5.25609018       3.71661711       9.10381558      -0.00000105       0.00000018       0.00000182
Ir       0.00000008      -0.00000006      -0.00000004      -0.00000008       0.00000120      -0.00000033
S        1.86347809       1.31767815       6.06921031      -0.00037026      -0.00026077       0.00000153
S        5.14464303       3.63781110       6.06921042       0.00036788       0.00025827       0.00000079
S        4.32435092       1.31767800       4.64842428       0.00018403      -0.00026143      -0.00032210
S        2.68376921       3.63781143       7.48999579      -0.00018346       0.00026196       0.00031793
S        2.68376939       3.63781142       4.64842428      -0.00018239       0.00026190      -0.00031942
S        4.32435114       1.31767777       7.48999583       0.00018480      -0.00026143       0.00031859
