9
Lattice="5.212260107741515 -3.2650126514743085e-07 3.0093000565903614 1.7374197334365709 4.914166421791734 3.009300047321806 -8.713653373615748e-08 -7.296639129068139e-08 6.018600264105574" Properties=species:S:1:pos:R:3:forces:R:3 energy=-49.34492492675781 free_energy=-49.34492492675781 stress="-2.4558139557484537e-05 -1.4547899240824336e-07 6.934370300193393e-10 -1.4547899240824336e-07 -2.453694469295442e-05 2.517127128953689e-08 6.934370300193393e-10 2.517127128953689e-08 -2.4402943381574005e-05" pbc="T T T"
V        1.73741974       1.22854409       3.00929894      -0.00000247       0.00001295      -0.00000482
V        5.21225794       3.68562073       9.02790005      -0.00000908      -0.00001823      -0.00000132
Mn      -0.00000052      -0.00000006       0.00000104       0.00000374       0.00000216      -0.00000532
S        1.79086558       1.26633287       6.01860015      -0.00017768      -0.00012705      -0.00000326
S        5.15881521       3.64783325       6.01860014       0.00017476       0.00012487       0.00000130
S        4.31682801       1.26633454       4.56023568       0.00009671      -0.00012422      -0.00016296
S        2.63285243       3.64783133       7.47696543      -0.00009486       0.00012955       0.00016868
S        2.63285260       3.64783313       4.56023555      -0.00009009       0.00012934      -0.00015771
S        4.31682777       1.26633417       7.47696475       0.00009879      -0.00012952       0.00016588
