9
Lattice="5.976921835659413 3.3161524901972844e-08 3.450777389337942 1.9923072851002233 5.635095848819447 3.450777432150571 -1.8605984689750105e-09 5.111890272602245e-08 6.901554781898545" Properties=species:S:1:pos:R:3:forces:R:3 energy=-42.60273361206055 free_energy=-42.60273361206055 stress="-0.00012439842976164073 -8.298465026257418e-09 1.969528762302275e-09 -8.298465026257418e-09 -0.00012439732381608337 -3.419365457446588e-09 1.969528762302275e-09 -3.419365457446588e-09 -0.00012440622958820313" pbc="T T T"
V        1.99230742       1.40877443       3.45077728       0.00000103       0.00000220      -0.00000167
V        5.97692136       4.22632154      10.35233220      -0.00000250      -0.00000140      -0.00000002
Mn       0.00000038       0.00000062      -0.00000019      -0.00000513      -0.00000462       0.00000020
Te       2.03299025       1.43754108       6.90155490      -0.00345236      -0.00244108      -0.00000026
Te       5.93623876       4.19755441       6.90155492       0.00345995       0.00244644       0.00000015
Te       4.96042674       1.43754144       5.21139862       0.00172838      -0.00244469      -0.00299329
Te       3.00880233       4.19755437       8.59171093      -0.00172873       0.00244361       0.00299479
Te       3.00880255       4.19755442       5.21139875      -0.00172823       0.00244371      -0.00299376
Te       4.96042672       1.43754146       8.59171101       0.00172760      -0.00244398       0.00299384
