9
Lattice="5.617159508971197 7.711393398895974e-08 3.243068810397571 1.8723866430774592 5.295908944694515 3.2430686936861246 1.1300671646333867e-07 -6.303396044216207e-08 6.486137425061793" Properties=species:S:1:pos:R:3:forces:R:3 energy=-45.60554504394531 free_energy=-45.60554504394531 stress="7.12600231054239e-05 3.077380483773595e-08 -1.5671867359401404e-08 3.077380483773595e-08 7.119640940800309e-05 3.96359993715123e-08 -1.5671867359401404e-08 3.96359993715123e-08 7.1199749072548e-05" pbc="T T T"
V        1.87238767       1.32397833       3.24306939       0.00000597       0.00000616       0.00000591
V        5.61715926       3.97193063       9.72920388      -0.00000153      -0.00000711      -0.00001573
Mn      -0.00000057      -0.00000055      -0.00000089       0.00001325       0.00000703       0.00001814
Se       1.90524665       1.34721299       6.48613736      -0.00699264      -0.00494424       0.00000059
Se       5.58429978       3.94869693       6.48613882       0.00697839       0.00493798       0.00000601
Se       4.66453621       1.34721328       4.89306026       0.00349325      -0.00493976      -0.00605625
Se       2.82501036       3.94869601       8.07921543      -0.00348896       0.00493416       0.00604951
Se       2.82500859       3.94869575       4.89306056      -0.00349897       0.00493789      -0.00605208
Se       4.66453727       1.34721253       8.07921491       0.00349122      -0.00493217       0.00604385
