9
Lattice="5.8961330094210815 8.657289817302971e-08 3.4041339140792743 1.9653777590342927 5.55892731473808 3.404133900906115 1.9807016720986125e-08 -2.1281565905738306e-09 6.808267793851862" Properties=species:S:1:pos:R:3:forces:R:3 energy=-46.62730407714844 free_energy=-46.62730407714844 stress="2.328554000996519e-05 9.324329397486508e-08 1.988454556567376e-08 9.324329397486508e-08 2.3274513296200894e-05 -3.36987717730608e-08 1.988454556567376e-08 -3.36987717730608e-08 2.321273677807767e-05" pbc="T T T"
V        1.96537791       1.38973181       3.40413383       0.00000187       0.00000221      -0.00000138
V        5.89613356       4.16919357      10.21240186       0.00000252      -0.00001336      -0.00000051
Mo       0.00000020       0.00000057      -0.00000095      -0.00000076      -0.00000620       0.00002492
Se       1.99778238       1.41264621       6.80826787       0.00069147       0.00049432       0.00000191
Se       5.86372789       4.14628207       6.80826756      -0.00069253      -0.00048700       0.00000084
Se       4.89724202       1.41264603       5.13426413      -0.00034442       0.00049487       0.00059903
Se       2.96426851       4.14628240       8.48227170       0.00035220      -0.00050074      -0.00060928
Se       2.96426862       4.14628128       5.13426433       0.00034136      -0.00048736       0.00059493
Se       4.89724205       1.41264563       8.48227205      -0.00035182       0.00050311      -0.00061047
