9
Lattice="5.442723715742041 -2.1628328814826885e-07 3.142358728746143 1.814241222960614 5.131448480232782 3.1423584026119102 2.99318325327979e-07 -1.877812909104436e-07 6.284716939058038" Properties=species:S:1:pos:R:3:forces:R:3 energy=-50.72303009033203 free_energy=-50.72303009033203 stress="2.1870286218472756e-05 -1.0384928827988915e-07 1.0758851942682668e-07 -1.0384928827988915e-07 2.1986330466461368e-05 -2.8312813427078254e-08 1.0758851942682668e-07 -2.8312813427078254e-08 2.201599272666499e-05" pbc="T T T"
V        1.81423795       1.28286187       3.14235743      -0.00002056      -0.00000052      -0.00000848
V        5.44272145       3.84858709       9.42708178      -0.00001660       0.00000715       0.00003726
Mo       0.00000063       0.00000072       0.00000169      -0.00000976      -0.00000327      -0.00002642
S        1.89267061       1.33831814       6.28471775      -0.00029272      -0.00021377      -0.00000414
S        5.36429466       3.79312734       6.28471390       0.00032187       0.00022256      -0.00002435
S        4.49639102       1.33831907       4.78145974       0.00015512      -0.00021142      -0.00026342
S        2.76057779       3.79312780       7.78797340      -0.00016445       0.00022984       0.00027522
S        2.76057798       3.79312920       4.78145769      -0.00014289       0.00021130      -0.00027105
S        4.49638862       1.33832063       7.78797294       0.00017008      -0.00024182       0.00028557
