9
Lattice="5.896094593588726 -2.0259158144684192e-07 3.404111866400363 1.9653646775050184 5.558891345196023 3.4041118595057394 -7.745130013393667e-08 -6.321042490517378e-08 6.808223866950351" Properties=species:S:1:pos:R:3:forces:R:3 energy=-46.6273078918457 free_energy=-46.6273078918457 stress="2.128297637682408e-05 -4.6555381771895554e-08 2.3300954055116563e-08 -4.6555381771895554e-08 2.1301088054315187e-05 -4.103661765952893e-08 2.3300954055116563e-08 -4.103661765952893e-08 2.1409647160908207e-05" pbc="T T T"
V        1.96536525       1.38972268       3.40411200       0.00000281       0.00000106       0.00000181
V        5.89609408       4.16916962      10.21233669      -0.00000407       0.00000764       0.00000751
Mo      -0.00000030      -0.00000010       0.00000051       0.00000181      -0.00000039      -0.00001099
Se       1.99778538       1.41264695       6.80822361       0.00054531       0.00038287      -0.00000083
Se       5.86367395       4.14624380       6.80822287      -0.00054586      -0.00038640      -0.00000376
Se       4.89720140       1.41264717       5.13424495      -0.00027432       0.00038496       0.00047037
Se       2.96425725       4.14624362       8.48220272       0.00027119      -0.00038362      -0.00046659
Se       2.96425799       4.14624353       5.13424504       0.00027242      -0.00038391       0.00046806
Se       4.89720182       1.41264706       8.48220199      -0.00026924       0.00037794      -0.00046551
