9
Lattice="4.521677137297084 2.139398902771257e-08 2.6105914313174257 1.507225703466818 4.263078075930406 2.6105914817824254 1.682256919992295e-08 7.370211252493112e-08 5.221182833497285" Properties=species:S:1:pos:R:3:forces:R:3 energy=-58.47814178466797 free_energy=-58.47814178466797 stress="6.109682090027491e-06 9.600773864804069e-08 -2.602350512859175e-08 9.600773864804069e-08 6.2164804148778785e-06 4.551759147375378e-08 -2.602350512859175e-08 4.551759147375378e-08 6.178809144330444e-06" pbc="T T T"
V        1.50722642       1.06576973       2.61059144       0.00000598       0.00000520       0.00000040
V        4.52167632       3.19730927       7.83177502      -0.00000429       0.00000573       0.00000932
Mo       0.00000013       0.00000010      -0.00000015      -0.00000363      -0.00000311       0.00000876
O        1.55098371       1.09671131       5.22118285      -0.00012064      -0.00008583       0.00000166
O        4.47791916       3.16636687       5.22118241       0.00012505       0.00008565      -0.00000663
O        3.74618505       1.09671092       3.95378273       0.00005847      -0.00008982      -0.00010872
O        2.28271783       3.16636700       6.48858318      -0.00005707       0.00008327       0.00010437
O        2.28271776       3.16636678       3.95378259      -0.00005811       0.00008500      -0.00011015
O        3.74618505       1.09671069       6.48858305       0.00005373      -0.00008589       0.00010091
