9
Lattice="5.442738670099108 -1.2791450522357262e-07 3.142366314583364 1.814246300507776 5.131462554413844 3.1423659720867705 7.39988929046694e-08 -3.671456078154698e-07 6.284732500997026" Properties=species:S:1:pos:R:3:forces:R:3 energy=-50.72303009033203 free_energy=-50.72303009033203 stress="2.3706374122411944e-05 -2.501573419522174e-07 8.603431922438176e-08 -2.501573419522174e-07 2.3830256395740435e-05 -5.6540280013450683e-08 8.603431922438176e-08 -5.6540280013450683e-08 2.412250432826113e-05" pbc="T T T"
V        1.81424679       1.28286378       3.14236431      -0.00000040      -0.00001036      -0.00001282
V        5.44273774       3.84859825       9.42710016      -0.00000313       0.00001246       0.00000725
Mo       0.00000068      -0.00000163      -0.00000010      -0.00000155       0.00001719      -0.00001114
S        1.89267518       1.33832046       6.28473349      -0.00035864      -0.00026318       0.00000138
S        5.36431104       3.79314218       6.28473148       0.00034401       0.00025478      -0.00001004
S        4.49640176       1.33832133       4.78147158       0.00018555      -0.00025970      -0.00032032
S        2.76058280       3.79313871       7.78799361      -0.00018845       0.00026196       0.00031784
S        2.76058326       3.79314072       4.78147094      -0.00017792       0.00025958      -0.00031620
S        4.49640109       1.33832480       7.78799344       0.00020066      -0.00027281       0.00034398
