9
Lattice="6.290539161036377 -1.6996530884063434e-09 3.6318445063184517 2.09684640132778 5.9307771893420895 3.631844478747468 1.229355241838627e-08 -2.5074566552989098e-08 7.263688991343894" Properties=species:S:1:pos:R:3:forces:R:3 energy=-43.4325065612793 free_energy=-43.4325065612793 stress="0.00013112081796862185 -1.509058833448762e-08 1.5686612897525265e-08 -1.509058833448762e-08 0.0001311373052885756 -2.0313521531534207e-08 1.5686612897525265e-08 -2.0313521531534207e-08 0.00013114570174366236" pbc="T T T"
V        2.09684651       1.48269426       3.63184461       0.00000119      -0.00000111      -0.00000027
V        6.29053890       4.44808239      10.89553342      -0.00000227      -0.00000221       0.00000016
Nb      -0.00000016      -0.00000013       0.00000014       0.00000315       0.00000073      -0.00000144
Te       2.19961935       1.55536597       7.26368894      -0.00770547      -0.00544795      -0.00000053
Te       6.18776612       4.37541151       7.26368904       0.00770445       0.00544728       0.00000016
Te       5.19072942       1.55536596       5.53677055       0.00385154      -0.00544657      -0.00667174
Te       3.19665640       4.37541141       8.99060725      -0.00385249       0.00544903       0.00667337
Te       3.19665639       4.37541128       5.53677068      -0.00385291       0.00544993      -0.00667413
Te       5.19072938       1.55536598       8.99060730       0.00385286      -0.00544921       0.00667442
