9
Lattice="5.437824197571123 1.7525834589763323e-08 3.1395292289087555 1.8126080600863355 5.126829877665927 3.1395292675234985 -3.4376928611767516e-08 2.2985041089455782e-08 6.279058517360098" Properties=species:S:1:pos:R:3:forces:R:3 energy=-51.845001220703125 free_energy=-51.845001220703125 stress="1.828011045290623e-05 -2.5880819265466926e-08 -1.968308183109002e-09 -2.5880819265466926e-08 1.8336620996706188e-05 1.3680350186007217e-08 -1.968308183109002e-09 1.3680350186007217e-08 1.8326158169656992e-05" pbc="T T T"
V        1.81260810       1.28170753       3.13952928       0.00000085       0.00000005       0.00000019
V        5.43782389       3.84512241       9.41858752      -0.00000190      -0.00000069      -0.00000001
Nb      -0.00000001      -0.00000009       0.00000039       0.00000162       0.00000120      -0.00001184
S        1.92106715       1.35839970       6.27905844      -0.00005776      -0.00004064      -0.00000042
S        5.32936526       3.76842988       6.27905837       0.00005749       0.00003900      -0.00000110
S        4.47729073       1.35839957       4.80322230       0.00002655      -0.00003879      -0.00004773
S        2.77314201       3.76843036       7.75489449      -0.00003113       0.00004664       0.00005454
S        2.77314164       3.76843030       4.80322237      -0.00002615       0.00003865      -0.00004913
S        4.47729022       1.35839998       7.75489481       0.00003058      -0.00004552       0.00005545
