9
Lattice="5.1141855172049695 -9.94586555970005e-08 2.952676405400695 1.7047284907327351 4.821700225987853 2.95267626897005 8.836560654234364e-08 -1.0460878564323298e-07 5.90535265774763" Properties=species:S:1:pos:R:3:forces:R:3 energy=-45.269775390625 free_energy=-45.269775390625 stress="-8.994201925816014e-05 -3.136531390168784e-08 9.595929384431656e-08 -3.136531390168784e-08 -8.994471136247739e-05 -7.891157594031029e-08 9.595929384431656e-08 -7.891157594031029e-08 -8.991423965198919e-05" pbc="T T T"
V        1.70472778       1.20542588       2.95267728      -0.00000405       0.00000370       0.00000314
V        5.11418569       3.61627513       8.85802776       0.00000141       0.00000070      -0.00000627
Ni       0.00000014      -0.00000018       0.00000112      -0.00000040       0.00000360      -0.00002339
S        1.74472549       1.23370723       5.90535284      -0.00128111      -0.00090495       0.00000175
S        5.07418891       3.58799241       5.90535293       0.00128251       0.00090420      -0.00000242
S        4.24182251       1.23370642       4.46365324       0.00063422      -0.00090125      -0.00110224
S        2.57709190       3.58799307       7.34705175      -0.00064386       0.00091282       0.00111291
S        2.57709130       3.58799228       4.46365292      -0.00063732       0.00089809      -0.00110701
S        4.24182271       1.23370797       7.34705147       0.00064842      -0.00091723       0.00112328
