9
Lattice="5.335787781028804 -1.8649823909905833e-07 3.0806183325654817 1.778595595404748 5.030628999704234 3.0806186023715796 -2.1761832080037637e-07 1.7656424995744742e-07 6.1612370420569444" Properties=species:S:1:pos:R:3:forces:R:3 energy=-41.68239974975586 free_energy=-41.68239974975586 stress="3.4537202736828476e-05 -1.407235004080576e-07 5.271105329995862e-09 -1.407235004080576e-07 3.471340824034996e-05 -4.7099323552401984e-08 5.271105329995862e-09 -4.7099323552401984e-08 3.483886757749133e-05" pbc="T T T"
V        1.77859961       1.25765587       3.08061564       0.00001905      -0.00000602      -0.00001500
V        5.33578603       3.77297265       9.24186051      -0.00000692       0.00000369       0.00002449
Ni      -0.00000036       0.00000027      -0.00000004       0.00000225      -0.00000657      -0.00000627
Se       1.88779962       1.33487484       6.16123750      -0.00257123      -0.00182357       0.00000025
Se       5.22658249       3.69575443       6.16123491       0.00257060       0.00182652      -0.00000692
Se       4.39188865       1.33487669       4.71550181       0.00129259      -0.00182214      -0.00223181
Se       2.72249478       3.69575249       7.60697130      -0.00129865       0.00182953       0.00223684
Se       2.72249674       3.69575185       4.71550065      -0.00129043       0.00182256      -0.00224406
Se       4.39188497       1.33487672       7.60697331       0.00128266      -0.00182405       0.00224245
