9
Lattice="4.020031556875463 2.051005808482597e-07 2.320966496229474 1.3400106184391753 3.7901227272874674 2.32096665885171 8.789227160904599e-08 2.6131997443498035e-07 4.641932840225063" Properties=species:S:1:pos:R:3:forces:R:3 energy=-53.357643127441406 free_energy=-53.357643127441406 stress="0.00020920582755934447 9.196017458634742e-08 -4.4284135469752073e-07 9.196017458634742e-08 0.00020950257021468133 -2.6057418267555477e-07 -4.4284135469752073e-07 -2.6057418267555477e-07 0.00020937448425684124" pbc="T T T"
V        1.34001019       0.94752983       2.32096714      -0.00000910      -0.00002578       0.00000691
V        4.02003229       2.84259130       6.96289670       0.00001903      -0.00003160      -0.00007293
N       -0.00000040      -0.00000060       0.00000048      -0.00000958      -0.00000576       0.00001487
O        1.31399709       0.92913709       4.64193292       0.00138474       0.00099438       0.00000037
O        4.04604556       2.86098753       4.64193421      -0.00138223      -0.00096527       0.00002675
O        3.36303296       0.92913652       3.45892135      -0.00069290       0.00097778       0.00120187
O        1.99700945       2.86098703       5.82494497       0.00069845      -0.00096899      -0.00119668
O        1.99700852       2.86098699       3.45892145       0.00067964      -0.00096703       0.00121033
O        3.36303341       0.92913717       5.82494469      -0.00068736       0.00099277      -0.00119323
