9
Lattice="4.020073735295859 2.219306015575847e-08 2.320990890757631 1.3400246312984188 3.790161397214069 2.3209908354313615 1.0338485749103123e-07 5.343561993750871e-09 4.641981602447429" Properties=species:S:1:pos:R:3:forces:R:3 energy=-53.357643127441406 free_energy=-53.357643127441406 stress="0.00032734201522544026 -4.0189368633036793e-07 -4.24651119601549e-07 -4.0189368633036793e-07 0.0003284849226474762 -2.858298273622495e-07 -4.24651119601549e-07 -2.858298273622495e-07 0.0003260881931055337" pbc="T T T"
V        1.34002575       0.94754427       2.32098819       0.00002342       0.00010134      -0.00009069
V        4.02007102       2.84261984       6.96296688      -0.00007461      -0.00001764      -0.00015700
N        0.00000075       0.00000008      -0.00000183       0.00001940      -0.00000224      -0.00001241
O        1.31404626       0.92917066       4.64198272      -0.00121582      -0.00087559       0.00003796
O        4.04605217       2.86098910       4.64198371       0.00122833       0.00083178       0.00005147
O        3.36304992       0.92917158       3.45898987       0.00060591      -0.00085971      -0.00101674
O        1.99704864       2.86098983       5.82497734      -0.00059018       0.00083682       0.00111938
O        1.99704823       2.86098893       3.45898959      -0.00060567       0.00083530      -0.00103444
O        3.36305092       0.92917143       5.82497691       0.00060990      -0.00084957       0.00110263
