9
Lattice="5.465014492771003 -1.1165680077553077e-08 3.155227451638854 1.8216715058782929 5.152465289301031 3.1552274190502154 -4.4834999913855005e-09 -4.308302144866835e-08 6.31045491104326" Properties=species:S:1:pos:R:3:forces:R:3 energy=-46.17106628417969 free_energy=-46.17106628417969 stress="-7.239577098516747e-05 2.0390857002894336e-07 4.389074703681217e-08 2.0390857002894336e-07 -7.256144454004243e-05 -4.7987396278870165e-09 4.389074703681217e-08 -4.7987396278870165e-09 -7.249120972119272e-05" pbc="T T T"
V        1.82167212       1.28811200       3.15522750       0.00000170      -0.00002177      -0.00000001
V        5.46501615       3.86435314       9.46568655       0.00000988       0.00002165       0.00002505
Os      -0.00000018       0.00000050      -0.00000134       0.00000077      -0.00000692       0.00001602
Se       1.99320236       1.40940609       6.31045454       0.00153577       0.00108263      -0.00000150
Se       5.29348238       3.74305954       6.31045405      -0.00153518      -0.00107720      -0.00000092
Se       4.46841368       1.40940654       4.88138975      -0.00076956       0.00108796       0.00133038
Se       2.81827072       3.74306026       7.73951863       0.00076920      -0.00109515      -0.00134629
Se       2.81827342       3.74305988       4.88139115       0.00076833      -0.00107709       0.00132871
Se       4.46841335       1.40940276       7.73951836      -0.00078046       0.00108579      -0.00135154
