9
Lattice="5.188553368135261 1.1197330104208082e-07 2.995612493249588 1.7295178382544611 4.891815030003692 2.9956125914453957 4.006196043154937e-08 1.485928922272936e-07 5.991224917109831" Properties=species:S:1:pos:R:3:forces:R:3 energy=-50.137184143066406 free_energy=-50.137184143066406 stress="0.00017542217392474413 2.4740780091292436e-08 -4.47250805279964e-08 2.4740780091292436e-08 0.0001753602991811931 1.59092934381988e-08 -4.47250805279964e-08 1.59092934381988e-08 0.00017549887706991285" pbc="T T T"
V        1.72951769       1.22295396       2.99561227      -0.00000030       0.00000040      -0.00000051
V        5.18855335       3.66886144       8.98683716      -0.00000071       0.00000003      -0.00000139
Os      -0.00000010       0.00000028       0.00000001       0.00000026      -0.00000052       0.00000038
S        1.86797805       1.32085988       5.99122473      -0.00015700      -0.00011402      -0.00000048
S        5.05009311       3.57095547       5.99122499       0.00015926       0.00011289       0.00000006
S        4.25456433       1.32085986       4.61332872       0.00007796      -0.00011361      -0.00013649
S        2.66350670       3.57095488       7.36912159      -0.00007892       0.00010824       0.00013983
S        2.66350681       3.57095564       4.61332927      -0.00007921       0.00011337      -0.00013447
S        4.25456509       1.32085993       7.36912140       0.00007856      -0.00010717       0.00013238
