9
Lattice="5.675776943796224 5.086678086860784e-10 3.276911230857789 1.891925589436079 5.35117396898483 3.2769113330065025 -1.0717272665331587e-08 1.1752780758851102e-07 6.553822480278499" Properties=species:S:1:pos:R:3:forces:R:3 energy=-36.859867095947266 free_energy=-36.859867095947266 stress="-4.939668724546209e-05 5.597117436195731e-09 -7.271336865954936e-09 5.597117436195731e-09 -4.9386599130230024e-05 1.5503782702097624e-09 -7.271336865954936e-09 1.5503782702097624e-09 -4.936971890856512e-05" pbc="T T T"
V        1.89192564       1.33779393       3.27691176       0.00000005       0.00000231       0.00000389
V        5.67577653       4.01338123       9.83073415      -0.00000120       0.00000366       0.00000211
Pb       0.00000050       0.00000008      -0.00000024      -0.00000156       0.00000074       0.00000163
Se       2.21211645       1.56420251       6.55382255      -0.00110285      -0.00078250      -0.00000117
Se       5.35558638       3.78697133       6.55382250       0.00110431       0.00077957      -0.00000190
Se       4.56971869       1.56420241       5.19265997       0.00055145      -0.00078082      -0.00095691
Se       2.99798385       3.78697157       7.91498485      -0.00055148       0.00078240       0.00095524
Se       2.99798339       3.78697111       5.19265976      -0.00055106       0.00077826      -0.00095803
Se       4.56971861       1.56420214       7.91498493       0.00055233      -0.00078341       0.00095472
