9
Lattice="4.674676905135183 4.153649995927168e-08 2.6989258862141314 1.5582257017216374 4.4073276079287425 2.6989258385557644 -4.20411142599596e-08 -8.809689420768868e-08 5.397851845245594" Properties=species:S:1:pos:R:3:forces:R:3 energy=-48.145565032958984 free_energy=-48.145565032958984 stress="0.00041232266812585294 -7.834225712599618e-09 6.860419432541676e-08 -7.834225712599618e-09 0.0004123985127080232 1.4579691232086134e-08 6.860419432541676e-08 1.4579691232086134e-08 0.00041217124089598656" pbc="T T T"
V        1.55822472       1.10183271       2.69892531      -0.00000937       0.00001233      -0.00000779
V        4.67467759       3.30549781       8.09677579       0.00000673       0.00002489      -0.00002126
Pb       0.00000034      -0.00000018      -0.00000058      -0.00001411      -0.00000128       0.00001568
O        1.64792194       1.16525692       5.39785233       0.00032267       0.00022525       0.00000564
O        4.58498106       3.24206967       5.39785266      -0.00030611      -0.00023119       0.00000820
O        3.85071514       1.16525585       4.12606870      -0.00016094       0.00020891       0.00027663
O        2.38218736       3.24207028       6.66963606       0.00016858      -0.00023409      -0.00027323
O        2.38218609       3.24207124       4.12606911       0.00015227      -0.00022119       0.00028136
O        3.85071595       1.16525592       6.66963478      -0.00015998       0.00021660      -0.00028518
