9
Lattice="6.519442457742271 -1.0340295929345087e-07 3.7640020002182606 2.1731474396420603 6.1465894053530565 3.764001911507414 7.567844140765611e-08 -5.513538095351354e-08 7.528003869357588" Properties=species:S:1:pos:R:3:forces:R:3 energy=-34.09539031982422 free_energy=-34.09539031982422 stress="0.0002623064792715013 -8.516312988149366e-09 4.32240732095579e-09 -8.516312988149366e-09 0.0002623168402351439 -7.1762755737836414e-09 4.32240732095579e-09 -7.1762755737836414e-09 0.000262320798356086" pbc="T T T"
V        2.17314671       1.53664693       3.76400223      -0.00000292      -0.00000243       0.00000112
V        6.51944259       4.60994208      11.29200551       0.00000024       0.00000063      -0.00000137
Pb      -0.00000005      -0.00000027       0.00000038       0.00000125       0.00000234      -0.00000034
Te       2.44531531       1.72909880       7.52800397      -0.00312562      -0.00221022       0.00000006
Te       6.24727478       4.41749063       7.52800400       0.00312491       0.00221007       0.00000002
Te       5.29678480       1.72909889       5.88170719       0.00156294      -0.00221095      -0.00270671
Te       3.39580537       4.41749029       9.17430052      -0.00156323       0.00221203       0.00270644
Te       3.39580507       4.41749046       5.88170742      -0.00156329       0.00221038      -0.00270692
Te       5.29678535       1.72909927       9.17429985       0.00156573      -0.00221182       0.00270769
