9
Lattice="5.576543786445474 2.3959259095826514e-08 3.2196191235765887 1.8588479718300863 5.2576158677725315 3.219619088197819 4.897663024649289e-08 -8.698249263805334e-09 6.439238162323104" Properties=species:S:1:pos:R:3:forces:R:3 energy=-39.47331619262695 free_energy=-39.47331619262695 stress="5.0555827328935266e-05 -9.220958219202657e-09 1.2183037689794673e-08 -9.220958219202657e-09 5.060384501121007e-05 6.971128563293405e-09 1.2183037689794673e-08 6.971128563293405e-09 5.0555816414998844e-05" pbc="T T T"
V        1.85884811       1.31440404       3.21961937       0.00000208       0.00000096       0.00000109
V        5.57654408       3.94321181       9.65885743       0.00000146      -0.00000016       0.00000055
Pb       0.00000019       0.00000008       0.00000030      -0.00000315       0.00000064      -0.00000778
S        2.03826418       1.44127022       6.43923792       0.00086558       0.00061253      -0.00000058
S        5.39712764       3.81634564       6.43923775      -0.00086579      -0.00061233      -0.00000214
S        4.55741172       1.44127027       4.98480769      -0.00043431       0.00061260       0.00075108
S        2.87798022       3.81634559       7.89366865       0.00043289      -0.00061032      -0.00074890
S        2.87797967       3.81634512       4.98480765       0.00043202      -0.00061472       0.00075166
S        4.55741146       1.44127084       7.89366881      -0.00043076       0.00061062      -0.00074486
