9
Lattice="4.439893443090981 4.963184328271399e-07 2.5633739377077673 1.479964854240627 4.1859714687788925 2.56337410177308 2.412922705848308e-07 3.7155756082810305e-07 5.126747457485084" Properties=species:S:1:pos:R:3:forces:R:3 energy=-50.705467224121094 free_energy=-50.705467224121094 stress="-0.0003483111213427037 2.282428468447506e-08 -9.117442090200711e-08 2.282428468447506e-08 -0.00034773204242810607 -2.7110144174002926e-07 -9.117442090200711e-08 -2.7110144174002926e-07 -0.00034898961894214153" pbc="T T T"
V        1.47996023       1.04648740       2.56337615      -0.00006685      -0.00007349       0.00003253
V        4.43989451       3.13948602       7.69013091       0.00001263       0.00009965       0.00014734
Pd       0.00000006       0.00000050       0.00000011       0.00001287       0.00000315      -0.00000835
O        1.55806291       1.10171244       5.12674668      -0.00398800      -0.00288595      -0.00002075
O        4.36179784       3.08425828       5.12674431       0.00399199       0.00285544      -0.00005519
O        3.66086630       1.10171540       3.91269416       0.00203471      -0.00283931      -0.00344601
O        2.25899158       3.08425967       6.34079852      -0.00203587       0.00287060       0.00340605
O        2.25899664       3.08425677       3.91269150      -0.00197297       0.00284667      -0.00348401
O        3.66086398       1.10171321       6.34080002       0.00201161      -0.00287618       0.00342876
