9
Lattice="5.273449742889485 -7.742660251330016e-08 3.0446276993189945 1.7578165610332346 4.97185580290223 3.044627607401528 7.566299908446938e-08 -5.9073627813229246e-08 6.0892552675858465" Properties=species:S:1:pos:R:3:forces:R:3 energy=-43.4208984375 free_energy=-43.4208984375 stress="-0.00010416794248158112 -6.540262997845048e-09 3.63608059217313e-08 -6.540262997845048e-09 -0.00010419626050861552 -2.8523480466446927e-08 3.63608059217313e-08 -2.8523480466446927e-08 -0.00010418023884994909" pbc="T T T"
V        1.75781616       1.24296415       3.04462797      -0.00000171       0.00000167       0.00000030
V        5.27345017       3.72889161       9.13388285       0.00000229      -0.00000016      -0.00000221
Pd       0.00000009       0.00000036      -0.00000089      -0.00000543      -0.00000909       0.00002866
S        1.87260805       1.32413387       6.08925507      -0.00803983      -0.00568342      -0.00000101
S        5.15865755       3.64772133       6.08925495       0.00804734       0.00569284      -0.00000117
S        4.33714590       1.32413408       4.66635455       0.00402606      -0.00569504      -0.00697118
S        2.69412053       3.64772186       7.51215705      -0.00401926       0.00568068       0.00696039
S        2.69412094       3.64772115       4.66635447      -0.00402927       0.00569433      -0.00697392
S        4.33714609       1.32413429       7.51215642       0.00401950      -0.00568175       0.00695992
