9
Lattice="5.468786717198554 -2.0763652513545986e-07 3.1574034449657122 1.8229295461772965 5.156016091683278 3.1574019966136877 1.482495699242973e-06 -7.25578502523585e-07 6.314804322174094" Properties=species:S:1:pos:R:3:forces:R:3 energy=-40.46592712402344 free_energy=-40.46592712402344 stress="-2.2030706531950273e-05 2.4095726303130505e-07 -2.929622837655188e-07 2.4095726303130505e-07 -2.2294349037110806e-05 -4.093849668151961e-07 -2.929622837655188e-07 -4.093849668151961e-07 -2.2847008949611336e-05" pbc="T T T"
V        1.82292954       1.28899738       3.15740818       0.00000575      -0.00003126       0.00003864
V        5.46875202       3.86700814       9.47215871      -0.00021024      -0.00001639      -0.00027562
Pd       0.00000179       0.00000593      -0.00000750       0.00000156      -0.00004599       0.00010914
Se       2.02331379       1.43069078       6.31480315       0.00046530       0.00031716      -0.00000276
Se       5.26840633       3.72531964       6.31482784      -0.00038144      -0.00027549       0.00010116
Se       4.45713116       1.43069028       4.90963802      -0.00022723       0.00029498       0.00038823
Se       2.83460604       3.72532990       7.71998926       0.00033066      -0.00031394      -0.00035581
Se       2.83459102       3.72532176       4.90963698       0.00022957      -0.00028580       0.00036621
Se       4.45713978       1.43069796       7.71998304      -0.00021383       0.00035653      -0.00036889
