9
Lattice="4.2443581593604165 7.57641796084099e-08 2.4504814082255577 1.414786080533477 4.001619377454241 2.4504814844666525 -1.1764865428944532e-07 1.0185719161515383e-08 4.9009630202245535" Properties=species:S:1:pos:R:3:forces:R:3 energy=-61.48732376098633 free_energy=-61.48732376098633 stress="0.0003471693489700556 -2.3112269431635468e-08 -9.808327483540324e-09 -2.3112269431635468e-08 0.00034728876198641956 -3.902376377595829e-08 -9.808327483540324e-09 -3.902376377595829e-08 0.0003470246447250247" pbc="T T T"
V        1.41478758       1.00040468       2.45048098       0.00001830      -0.00000414      -0.00000293
V        4.24435636       3.00121242       7.35144660      -0.00002591      -0.00002696       0.00002857
P        0.00000003       0.00000013      -0.00000025       0.00000050      -0.00000115       0.00000773
O        1.36801083       0.96733005       4.90096300       0.00246942       0.00174677      -0.00000223
O        4.29113304       3.03429020       4.90096219      -0.00246620      -0.00173926      -0.00001068
O        3.56035246       0.96733092       3.63521278      -0.00123250       0.00176203       0.00213003
O        2.09879151       3.03428931       6.16671241       0.00123465      -0.00174904      -0.00213933
O        2.09879227       3.03428993       3.63521335       0.00124168      -0.00174022       0.00213039
O        3.56035249       0.96733029       6.16671245      -0.00123888       0.00175393      -0.00214314
