9
Lattice="5.428380804037507 -2.2993200008281102e-07 3.1340766334743764 1.8094601202121887 5.117925887627516 3.134076513994646 -9.240598656279725e-08 -2.116730944706583e-07 6.268153427000593" Properties=species:S:1:pos:R:3:forces:R:3 energy=-44.84367752075195 free_energy=-44.84367752075195 stress="-0.0002118214324582368 7.624853992638236e-08 -3.481978794184215e-08 7.624853992638236e-08 -0.0002118724660249427 3.624120381573448e-08 -3.481978794184215e-08 3.624120381573448e-08 -0.00021181002375669777" pbc="T T T"
V        1.80946085       1.27947924       3.13407699       0.00000256      -0.00001235       0.00000181
V        5.42838148       3.83844648       9.40222713       0.00000484       0.00001602      -0.00001541
P       -0.00000048      -0.00000005      -0.00000013       0.00000223       0.00000226       0.00000693
S        1.76135496       1.24546459       6.26815323       0.00455487       0.00321352      -0.00000157
S        5.47648664       3.87246035       6.26815513      -0.00455964      -0.00321960       0.00001073
S        4.54770304       1.24546471       4.65945460      -0.00228012       0.00321645       0.00394672
S        2.69013770       3.87246123       7.87685208       0.00228411      -0.00321597      -0.00395334
S        2.69013645       3.87246105       4.65945478       0.00227588      -0.00322026       0.00395495
S        4.54770259       1.24546411       7.87685217      -0.00228500       0.00322014      -0.00395054
