9
Lattice="5.431590300664615 1.4460971399233008e-07 3.1359306925498607 1.8105301035312544 5.120952842275056 3.1359309229639365 8.15409484945804e-08 3.398566014850329e-07 6.271861243866532" Properties=species:S:1:pos:R:3:forces:R:3 energy=-44.84364700317383 free_energy=-44.84364700317383 stress="0.00041173980571329594 -2.2818413469849474e-07 -9.26133907341864e-08 -2.2818413469849474e-07 0.00041185918962582946 9.70190257021386e-08 -9.26133907341864e-08 9.70190257021386e-08 0.0004119616933166981" pbc="T T T"
V        1.81053140       1.28024048       3.13593208       0.00000766       0.00001531       0.00000541
V        5.43159086       3.84071470       9.40779355       0.00000169      -0.00000076       0.00001148
P       -0.00000006       0.00000034      -0.00000005      -0.00000523       0.00000755      -0.00000681
S        1.76205427       1.24595970       6.27186135      -0.00560510      -0.00396413      -0.00000019
S        5.48006725       3.87499208       6.27186113       0.00560582       0.00396031      -0.00000314
S        4.55056291       1.24596310       4.66191451       0.00281501      -0.00397086      -0.00488341
S        2.69155736       3.87499221       7.88180781      -0.00281435       0.00397760       0.00486732
S        2.69155603       3.87499082       4.66191351      -0.00281191       0.00395507      -0.00486022
S        4.55056187       1.24596040       7.88180718       0.00280690      -0.00398022       0.00486934
