9
Lattice="5.552670893414444 1.5731150310521655e-08 3.2058359911906473 1.8508903165194523 5.23510840451219 3.2058359844648474 1.3778858381226163e-08 1.50569116612981e-09 6.411671958515633" Properties=species:S:1:pos:R:3:forces:R:3 energy=-41.33649444580078 free_energy=-41.33649444580078 stress="-4.791205719811842e-05 1.3117708697052421e-08 -2.731922421617128e-08 1.3117708697052421e-08 -4.7903969971230254e-05 -6.858011047938817e-09 -2.731922421617128e-08 -6.858011047938817e-09 -4.795035420102067e-05" pbc="T T T"
V        1.85089071       1.30877606       3.20583616       0.00000089      -0.00000400       0.00000102
V        5.55267104       3.92633134       9.61750815      -0.00000004      -0.00000020      -0.00000146
P       -0.00000009       0.00000004       0.00000002       0.00000511       0.00000049       0.00000297
Se       1.87470163       1.32561468       6.41167192      -0.00159365      -0.00112748       0.00000041
Se       5.52885938       3.90949417       6.41167193       0.00159013       0.00112620       0.00000110
Se       4.61531971       1.32561424       4.82937486       0.00079331      -0.00112519      -0.00137913
Se       2.78824111       3.90949465       7.99396860      -0.00079527       0.00112638       0.00137767
Se       2.78824141       3.90949447       4.82937539      -0.00079536       0.00112820      -0.00137910
Se       4.61532000       1.32561402       7.99396884       0.00079471      -0.00112405       0.00137639
