9
Lattice="5.550823472562587 2.9050765800417377e-08 3.204769312779261 1.850274519500307 5.233366453794903 3.2047693106024298 1.414413226527696e-08 7.335354195877107e-09 6.409538601060158" Properties=species:S:1:pos:R:3:forces:R:3 energy=-41.3364372253418 free_energy=-41.3364372253418 stress="-0.0001450902782380581 6.685233699954551e-08 -1.643398306327981e-08 6.685233699954551e-08 -0.00014511456538457423 -3.362244482829624e-09 -1.643398306327981e-08 -3.362244482829624e-09 -0.00014510103210341185" pbc="T T T"
V        1.85027522       1.30834125       3.20476917       0.00000397      -0.00000273       0.00000025
V        5.55082222       3.92502539       9.61430770      -0.00000836       0.00000469      -0.00000092
P        0.00000003       0.00000018       0.00000009      -0.00000404      -0.00000670      -0.00000033
Se       1.87500639       1.32582903       6.40953850      -0.00765383      -0.00541583       0.00000051
Se       5.52609174       3.90753706       6.40953847       0.00766319       0.00542024       0.00000133
Se       4.61332028       1.32582953       4.82857201       0.00382802      -0.00541514      -0.00662968
Se       2.78777773       3.90753726       7.99050558      -0.00382605       0.00541323       0.00663033
Se       2.78777804       3.90753695       4.82857189      -0.00382781       0.00541434      -0.00663114
Se       4.61332044       1.32582938       7.99050554       0.00382528      -0.00541186       0.00662935
