9
Lattice="4.447542377236419 5.5562121116920815e-08 2.567789829994405 1.4825141499362786 4.193183251747029 2.567789878827271 -1.5859819367486624e-08 4.8593215722117607e-08 5.135579687458849" Properties=species:S:1:pos:R:3:forces:R:3 energy=-52.36566925048828 free_energy=-52.36566925048828 stress="8.360596984857693e-05 1.0175413223123542e-07 -1.9591489319736866e-08 1.0175413223123542e-07 8.359664207091555e-05 1.9480680180095078e-08 -1.9591489319736866e-08 1.9480680180095078e-08 8.34579041111283e-05" pbc="T T T"
V        1.48251533       1.04829494       2.56779032       0.00001497      -0.00001206       0.00000876
V        4.44754316       3.14488778       7.70336975       0.00001230       0.00000145       0.00000045
Pt      -0.00000029       0.00000002      -0.00000002       0.00001616      -0.00000436       0.00001363
O        1.55845256       1.10199233       5.13557930      -0.00012296      -0.00008653      -0.00000412
O        4.37160355       3.09119137       5.13557992       0.00010765       0.00008720       0.00000213
O        3.66831574       1.10199252       3.91744895       0.00005037      -0.00007977      -0.00010303
O        2.26173982       3.09119114       6.35370990      -0.00006221       0.00008303       0.00009206
O        2.26174032       3.09119110       3.91744944      -0.00006266       0.00008769      -0.00010043
O        3.66831583       1.10199235       6.35370999       0.00004664      -0.00007667       0.00009102
