9
Lattice="5.321888105432381 -5.3064975896880606e-08 3.0725935030737936 1.7739626610149561 5.017524141542049 3.0725934870794975 8.000255673002872e-09 -1.3931885545256076e-08 6.145186992290713" Properties=species:S:1:pos:R:3:forces:R:3 energy=-45.50749206542969 free_energy=-45.50749206542969 stress="-4.59749971923884e-05 1.819280726067518e-08 4.6977504553069593e-08 1.819280726067518e-08 -4.59792536275927e-05 -4.827224486803061e-08 4.6977504553069593e-08 -4.827224486803061e-08 -4.600072497851215e-05" pbc="T T T"
V        1.77396280       1.25438128       3.07259347       0.00000068       0.00000047      -0.00000041
V        5.32188724       3.76314280       9.21778044      -0.00000317      -0.00000058      -0.00000071
Pt       0.00000004      -0.00000005       0.00000015       0.00000054      -0.00000179       0.00000209
S        1.85862230       1.31424442       6.14518690      -0.00079960      -0.00056523      -0.00000040
S        5.23722857       3.70327967       6.14518701       0.00080043       0.00056648      -0.00000058
S        4.39257704       1.31424427       4.68220769       0.00039914      -0.00056452      -0.00069189
S        2.70327418       3.70327975       7.60816659      -0.00039679       0.00056374       0.00069231
S        2.70327409       3.70327962       4.68220747      -0.00040007       0.00056732      -0.00069457
S        4.39257683       1.31424457       7.60816620       0.00039870      -0.00056577       0.00069433
