9
Lattice="4.5422816048751065 6.632987361943641e-08 2.622487300012054 1.5140939580496526 4.282503820306547 2.6224872528629257 8.44893534279693e-09 -5.1771280182396684e-08 5.244974585390089" Properties=species:S:1:pos:R:3:forces:R:3 energy=-64.55269622802734 free_energy=-64.55269622802734 stress="0.0008641566382721066 -1.0764950530983697e-07 5.872250241623078e-08 -1.0764950530983697e-07 0.00086403131717816 -4.151731758383903e-08 5.872250241623078e-08 -4.151731758383903e-08 0.0008641448803246021" pbc="T T T"
V        1.51409267       1.07062600       2.62248848      -0.00001749      -0.00000235       0.00001563
V        4.54227951       3.21187750       7.86746057      -0.00002926       0.00000166      -0.00001587
Re       0.00000020       0.00000020      -0.00000003       0.00000037       0.00000416      -0.00000163
O        1.52672966       1.07956066       5.24497443      -0.00354314      -0.00250524      -0.00000003
O        4.52964702       3.20294307       5.24497488       0.00354791       0.00249720       0.00000391
O        3.77891643       1.07956041       3.94467347       0.00177830      -0.00250894      -0.00307494
O        2.27745993       3.20294391       6.54527615      -0.00175762       0.00250983       0.00307322
O        2.27745930       3.20294320       3.94467337      -0.00176701       0.00251055      -0.00307357
O        3.77891771       1.07956047       6.54527536       0.00178736      -0.00250721       0.00307274
