9
Lattice="6.217056304859078 1.5467102731936554e-08 3.58941914181758 2.072352110355626 5.861496957841504 3.5894191519441154 -1.201733301788138e-08 3.904917654768616e-09 7.178838304449782" Properties=species:S:1:pos:R:3:forces:R:3 energy=-45.13243865966797 free_energy=-45.13243865966797 stress="-1.3236501217761543e-05 4.288394706009058e-08 1.271722838147582e-09 4.288394706009058e-08 -1.327524114458356e-05 -4.6802512976285016e-09 1.271722838147582e-09 -4.6802512976285016e-09 -1.329564747720724e-05" pbc="T T T"
V        2.07235232       1.46537438       3.58941911       0.00000073      -0.00000043       0.00000066
V        6.21705637       4.39612244      10.76825742       0.00000045      -0.00000059      -0.00000059
Re      -0.00000010       0.00000011       0.00000001      -0.00000096      -0.00000180       0.00000148
Te       2.14358331       1.51574258       7.17883829      -0.00352500      -0.00249298      -0.00000011
Te       6.14582491       4.34575445       7.17883828       0.00352682       0.00249408       0.00000049
Te       5.14526469       1.51574241       5.44581672       0.00176000      -0.00249024      -0.00305150
Te       3.14414376       4.34575455       8.91185986      -0.00176082       0.00249098       0.00305142
Te       3.14414379       4.34575459       5.44581691      -0.00176214       0.00249179      -0.00305246
Te       5.14526456       1.51574242       8.91185982       0.00176103      -0.00249077       0.00305073
