9
Lattice="5.8248714455645345 3.028391348183692e-10 3.3629909252745023 1.9416238053104167 5.491741268088617 3.3629909428777967 -3.247396454604681e-10 2.1329885049564e-08 6.725981851111492" Properties=species:S:1:pos:R:3:forces:R:3 energy=-48.1806755065918 free_energy=-48.1806755065918 stress="2.914603828685358e-05 3.877952181596811e-08 -1.3709794188798696e-08 3.877952181596811e-08 2.9123682907084003e-05 -1.229260693236256e-09 -1.3709794188798696e-08 -1.229260693236256e-09 2.9094055207679048e-05" pbc="T T T"
V        1.94162277       1.37293387       3.36299096      -0.00000455      -0.00000783      -0.00000175
V        5.82487234       4.11880460      10.08897028       0.00000534      -0.00001151      -0.00001836
Re      -0.00000006      -0.00000009       0.00000027      -0.00000008       0.00000275       0.00000070
Se       2.00825501       1.42005149       6.72598212       0.00065389       0.00046879       0.00000193
Se       5.75823990       4.07169101       6.72598261      -0.00065970      -0.00046268       0.00000410
Se       4.82074405       1.42005078       5.10219099      -0.00032863       0.00046733       0.00057572
Se       2.94575201       4.07169080       8.34977306       0.00033230      -0.00046363      -0.00057155
Se       2.94575057       4.07169081       5.10219151       0.00032735      -0.00046554       0.00058025
Se       4.82074442       1.42005188       8.34977305      -0.00032553       0.00047266      -0.00057065
