9
Lattice="5.337705082221923 7.323554128729551e-08 3.08172541240204 1.7792350879021779 5.032436935978867 3.0817254272149466 1.0344938712225596e-07 9.12918737677863e-08 6.163450645624467" Properties=species:S:1:pos:R:3:forces:R:3 energy=-52.706600189208984 free_energy=-52.706600189208984 stress="-2.22675680561224e-05 -6.238550298576229e-08 -9.17892339913351e-09 -6.238550298576229e-08 -2.2244932551984675e-05 -1.8217467534498155e-09 -9.17892339913351e-09 -1.8217467534498155e-09 -2.2212969270185567e-05" pbc="T T T"
V        1.77923517       1.25810940       3.08172441       0.00000062       0.00000002      -0.00000437
V        5.33770494       3.77432796       9.24517614      -0.00000100       0.00000144       0.00000089
Re       0.00000026      -0.00000055       0.00000103      -0.00000470       0.00000354      -0.00001106
S        1.89183812       1.33773092       6.16345102      -0.00112772      -0.00079781      -0.00000175
S        5.22510198       3.69470598       6.16345034       0.00113261       0.00080115      -0.00000360
S        4.39178610       1.33773158       4.72010514       0.00056353      -0.00079817      -0.00097954
S        2.72515451       3.69470475       7.60679617      -0.00057182       0.00080341       0.00098568
S        2.72515410       3.69470614       4.72010531      -0.00056422       0.00079447      -0.00097394
S        4.39178608       1.33773206       7.60679621       0.00057271      -0.00080776       0.00098825
