9
Lattice="4.4362865121623525 1.7085891025392003e-08 2.561291257377275 1.4787621776726454 4.182571206704766 2.561291273237443 -2.6994672877391335e-08 3.3654591895350037e-10 5.122582561510682" Properties=species:S:1:pos:R:3:forces:R:3 energy=-53.640159606933594 free_energy=-53.640159606933594 stress="0.000622044550254941 1.111972114387072e-08 -3.349774624350488e-10 1.111972114387072e-08 0.0006218409980647266 -3.1618783147280283e-09 -3.349774624350488e-10 -3.1618783147280283e-09 0.0006218338385224342" pbc="T T T"
V        1.47876067       1.04564304       2.56129113      -0.00002302       0.00000603      -0.00000190
V        4.43628620       3.13692850       7.68387447      -0.00000697       0.00000090       0.00001140
Rh       0.00000001       0.00000004      -0.00000012       0.00000059      -0.00000169       0.00000178
O        1.54510899       1.09255691       5.12258249       0.00020492       0.00014004      -0.00000115
O        4.36993982       3.09001407       5.12258223      -0.00019798      -0.00014478      -0.00000377
O        3.66373290       1.09255699       3.89939519      -0.00009030       0.00014716       0.00017944
O        2.25131633       3.09001406       6.34577030       0.00009915      -0.00014699      -0.00017735
O        2.25131694       3.09001418       3.89939457       0.00010821      -0.00014278       0.00017068
O        3.66373284       1.09255711       6.34577005      -0.00009473       0.00014177      -0.00018004
