9
Lattice="5.224790697172485 5.232650926674619e-08 3.016534064212378 1.7415969073263968 4.925980061191103 3.016534135339082 -6.998310622732873e-08 3.7626527505793325e-08 6.033068249639055" Properties=species:S:1:pos:R:3:forces:R:3 energy=-47.0443000793457 free_energy=-47.0443000793457 stress="-0.0001940727379405871 -1.5309208123426288e-08 -2.8148496866720052e-08 -1.5309208123426288e-08 -0.0001940570364240557 1.550772843472714e-08 -2.8148496866720052e-08 1.550772843472714e-08 -0.00019409363449085504" pbc="T T T"
V        1.74159696       1.23149497       3.01653424       0.00000021      -0.00000017       0.00000086
V        5.22479028       3.69448498       9.04960215      -0.00000197      -0.00000043       0.00000099
Rh       0.00000007       0.00000034       0.00000033       0.00000108      -0.00000344      -0.00000551
S        1.85450204       1.31133089       6.03306856      -0.00103003      -0.00072998      -0.00000006
S        5.11188534       3.61464922       6.03306868       0.00103116       0.00073069       0.00000104
S        4.29753959       1.31133146       4.62257951       0.00051454      -0.00072640      -0.00089186
S        2.66884809       3.61464905       7.44355621      -0.00051776       0.00073260       0.00089556
S        2.66884803       3.61464881       4.62257952      -0.00051403       0.00072694      -0.00089270
S        4.29753974       1.31133096       7.44355645       0.00051680      -0.00072974       0.00089186
