9
Lattice="5.448686421614272 -8.12127113663657e-08 3.145800875176252 1.8162287139638453 5.137070633800224 3.1458009040543584 -7.407611547015628e-08 -1.7011425211300924e-08 6.291601878656167" Properties=species:S:1:pos:R:3:forces:R:3 energy=-43.43531799316406 free_energy=-43.43531799316406 stress="4.590989192365669e-05 -4.4513761565667664e-08 1.2988853548279167e-08 -4.4513761565667664e-08 4.59831026091706e-05 -1.1482764961101566e-08 1.2988853548279167e-08 -1.1482764961101566e-08 4.5837568904971704e-05" pbc="T T T"
V        1.81622845       1.28427128       3.14579903      -0.00000084       0.00001812      -0.00000926
V        5.44868131       3.85279890       9.43740577      -0.00002473      -0.00001984       0.00001391
Rh       0.00000007      -0.00000078      -0.00000135       0.00000133       0.00001035       0.00001815
Se       1.98709165       1.40508624       6.29160127       0.00086007       0.00061050       0.00000017
Se       5.27782537       3.73198371       6.29160009      -0.00086063      -0.00061515      -0.00000575
Se       4.45514161       1.40508689       4.86667350      -0.00041932       0.00060496       0.00073749
Se       2.80977492       3.73198438       7.71653252       0.00043911      -0.00061965      -0.00075147
Se       2.80977656       3.73198434       4.86667147       0.00043903      -0.00060585       0.00073865
Se       4.45514039       1.40508706       7.71653261      -0.00043400       0.00061667      -0.00074190
