9
Lattice="5.224997756260614 -2.4939798710780354e-08 3.01665389748665 1.7416659185697358 4.9261749040237355 3.016653857078473 9.348057939614958e-08 1.6611064486347958e-08 6.033307633060187" Properties=species:S:1:pos:R:3:forces:R:3 energy=-47.0443000793457 free_energy=-47.0443000793457 stress="-0.00017386555555276573 7.294756354525589e-09 -1.4069179155029587e-09 7.294756354525589e-09 -0.0001738888822728768 -1.4319991414879496e-08 -1.4069179155029587e-09 -1.4319991414879496e-08 -0.00017387085244990885" pbc="T T T"
V        1.74166596       1.23154385       3.01665413      -0.00000046       0.00000037       0.00000103
V        5.22499807       3.69463117       9.04996172      -0.00000001      -0.00000016       0.00000043
Rh      -0.00000005       0.00000017      -0.00000025       0.00000429      -0.00000244       0.00000516
S        1.85446081       1.31130178       6.03330812       0.00057065       0.00040221       0.00000003
S        5.11220313       3.61487326       6.03330782      -0.00057310      -0.00040346       0.00000014
S        4.29776740       1.31130186       4.62266351      -0.00028706       0.00040567       0.00049424
S        2.66889610       3.61487275       7.44395148       0.00028586      -0.00040400      -0.00049502
S        2.66889612       3.61487298       4.62266400       0.00028434      -0.00040185       0.00049156
S        4.29776766       1.31130176       7.44395107      -0.00028467       0.00040346      -0.00049770
