9
Lattice="4.436275310191649 -3.9473043635643384e-08 2.5612847223216515 1.4787584185601281 4.182560349447623 2.561284689334539 1.3837915432984066e-08 -3.061591125593782e-08 5.122569420675319" Properties=species:S:1:pos:R:3:forces:R:3 energy=-53.640159606933594 free_energy=-53.640159606933594 stress="0.0006153638823889196 -2.5528073877012503e-08 -3.9392549666672494e-08 -2.5528073877012503e-08 0.0006154479342512786 5.720472273651467e-08 -3.9392549666672494e-08 5.720472273651467e-08 0.0006154698203317821" pbc="T T T"
V        1.47875763       1.04563971       2.56128490      -0.00001151      -0.00000653       0.00000602
V        4.43627510       3.13691945       7.68385438      -0.00000367      -0.00001266       0.00000842
Rh       0.00000000      -0.00000008      -0.00000005       0.00000143       0.00000539      -0.00000281
O        1.54511653       1.09256287       5.12256948      -0.00011715      -0.00007710      -0.00000076
O        4.36991718       3.08999779       5.12256928       0.00011322       0.00007752      -0.00000517
O        3.66371718       1.09256257       3.89939524       0.00006191      -0.00007924      -0.00010061
O        2.25131685       3.08999818       6.34574340      -0.00005585       0.00008982       0.00009546
O        2.25131721       3.08999774       3.89939483      -0.00005277       0.00008050      -0.00010335
O        3.66371725       1.09256292       6.34574385       0.00006475      -0.00007829       0.00010231
