9
Lattice="4.470363738560457 -5.760946213348435e-08 2.580965649817415 1.4901211939759433 4.214699333120508 2.580965646173441 -5.004311188483138e-08 -3.984876381698828e-08 5.1619313863120375" Properties=species:S:1:pos:R:3:forces:R:3 energy=-58.01430130004883 free_energy=-58.01430130004883 stress="0.000772668223362416 -4.904952000117646e-09 -9.63113677698857e-09 -4.904952000117646e-09 0.0007723027956672013 6.250139961139212e-08 -9.63113677698857e-09 6.250139961139212e-08 0.0007724755560047925" pbc="T T T"
V        1.49012054       1.05367660       2.58096638      -0.00001015       0.00002219       0.00001236
V        4.47036371       3.16102283       7.74289722      -0.00000130      -0.00001865       0.00000152
Ru      -0.00000014      -0.00000016       0.00000005      -0.00000021       0.00000137      -0.00000302
O        1.51633769       1.07221282       5.16193126       0.00160286       0.00113815      -0.00000550
O        4.44414736       3.14248609       5.16193110      -0.00160071      -0.00113887      -0.00000300
O        3.71219512       1.07221344       3.89415229      -0.00079872       0.00113845       0.00138202
O        2.24829026       3.14248610       6.42971022       0.00080197      -0.00113750      -0.00138646
O        2.24828963       3.14248600       3.89415240       0.00079897      -0.00114247       0.00139087
O        3.71219540       1.07221312       6.42970991      -0.00079286       0.00113711      -0.00138867
