9
Lattice="5.44471661117226 -1.0483547796290987e-07 3.1435075916269573 1.814905396663755 5.13332553749476 3.1435076635998587 1.3559489713527028e-07 1.8402871153852134e-07 6.287014948396732" Properties=species:S:1:pos:R:3:forces:R:3 energy=-44.80669403076172 free_energy=-44.80669403076172 stress="-1.401727058691904e-05 -4.902563910391677e-10 1.902051849356212e-09 -4.902563910391677e-10 -1.3977885828353465e-05 8.700208553591438e-09 1.902051849356212e-09 8.700208553591438e-09 -1.3718643458560109e-05" pbc="T T T"
V        1.81490206       1.28331763       3.14351189      -0.00001429      -0.00006823       0.00002633
V        5.44472637       3.84999806       9.43052503       0.00005299       0.00001404       0.00001277
Ru      -0.00000041      -0.00000088       0.00000021       0.00000353       0.00000601       0.00000400
Se       1.96868208       1.39207319       6.28701762      -0.00074989      -0.00051126       0.00001853
Se       5.29093696       3.74125824       6.28701677       0.00072199       0.00052729       0.00000931
Se       4.46037211       1.39207291       4.84843527       0.00036769      -0.00052112      -0.00064790
Se       2.79924856       3.74126407       7.72558731      -0.00036219       0.00056073       0.00060827
Se       2.79924535       3.74125421       4.84843774      -0.00038452       0.00053242      -0.00064111
Se       4.46037453       1.39206523       7.72558859       0.00036468      -0.00053960       0.00060931
