9
Lattice="4.470414748649829 5.249156822523531e-08 2.5809952239919576 1.4901382729741453 4.21474750265735 2.5809952691384113 -4.584924812718125e-08 2.2872575968313225e-08 5.161990527397153" Properties=species:S:1:pos:R:3:forces:R:3 energy=-58.01429748535156 free_energy=-58.01429748535156 stress="0.0007954922039061785 3.1931097765891536e-08 5.12542506214686e-08 3.1931097765891536e-08 0.0007955054170452058 1.3164671486265433e-07 5.12542506214686e-08 1.3164671486265433e-07 0.0007952912710607052" pbc="T T T"
V        1.49013816       1.05368625       2.58099505      -0.00000074      -0.00000922      -0.00000372
V        4.47041621       3.16106132       7.74298375       0.00001859       0.00000755      -0.00002668
Ru       0.00000015       0.00000003       0.00000001      -0.00000110       0.00000032       0.00000036
O        1.51633117       1.07220766       5.16199093       0.00205556       0.00144958       0.00000486
O        4.44422131       3.14254028       5.16199111      -0.00206187      -0.00144708       0.00000751
O        3.71224913       1.07220744       3.89417687      -0.00103219       0.00144893       0.00178641
O        2.24830348       3.14253955       6.42980472       0.00102679      -0.00145400      -0.00178176
O        2.24830257       3.14253948       3.89417709       0.00101668      -0.00145590       0.00179362
O        3.71224974       1.07220831       6.42980458      -0.00102183       0.00145981      -0.00178078
