9
Lattice="5.170855301624263 -8.394590204510135e-08 2.985394662937848 1.7236183646621384 4.875129124576481 2.985394645734529 7.835303842784808e-09 -1.5529270062556913e-08 5.970789312304527" Properties=species:S:1:pos:R:3:forces:R:3 energy=-48.90593338012695 free_energy=-48.90593338012695 stress="0.00015387636085506529 -3.49461721782518e-08 3.2603526989305465e-08 -3.49461721782518e-08 0.0001539364457130432 -1.1821944312373489e-08 3.2603526989305465e-08 -1.1821944312373489e-08 0.00015394651563838124" pbc="T T T"
V        1.72361863       1.21878205       2.98539455       0.00000010       0.00000046      -0.00000026
V        5.17085520       3.65634656       8.95618404      -0.00000033      -0.00000063       0.00000101
Ru      -0.00000044       0.00000014      -0.00000014       0.00000066      -0.00000125      -0.00000190
S        1.84307013       1.30324721       5.97078908      -0.00135964      -0.00096399      -0.00000044
S        5.05140341       3.57188192       5.97078917       0.00136340       0.00096428      -0.00000087
S        4.24932027       1.30324748       4.58154026       0.00068119      -0.00096375      -0.00117815
S        2.64515351       3.57188150       7.36003850      -0.00068322       0.00096375       0.00118387
S        2.64515359       3.57188158       4.58154063      -0.00068521       0.00096542      -0.00118351
S        4.24932046       1.30324770       7.36003829       0.00068286      -0.00096446       0.00118023
