9
Lattice="5.170809330107892 -1.7650260934095572e-08 2.9853682396358185 1.7236030761701433 4.875085690984576 2.985368269470357 -1.982952636063965e-08 2.2518163261810935e-08 5.970736513617366" Properties=species:S:1:pos:R:3:forces:R:3 energy=-48.90593338012695 free_energy=-48.90593338012695 stress="0.00013491504068952054 4.820559951212999e-09 -4.3583243680700434e-09 4.820559951212999e-09 0.00013485363160725683 -1.3214902949698626e-08 -4.3583243680700434e-09 -1.3214902949698626e-08 0.00013485268573276699" pbc="T T T"
V        1.72360317       1.21877145       2.98536847       0.00000045       0.00000008       0.00000131
V        5.17080930       3.65631395       8.95610479      -0.00000033      -0.00000015       0.00000011
Ru      -0.00000007      -0.00000026      -0.00000006      -0.00000058       0.00000305       0.00000166
S        1.84305833       1.30323893       5.97073664      -0.00123125      -0.00086999       0.00000075
S        5.05135419       3.57184684       5.97073664       0.00122797       0.00087041       0.00000168
S        4.24927996       1.30323907       4.58150331       0.00061488      -0.00086987      -0.00106758
S        2.64513217       3.57184699       7.35996959      -0.00061256       0.00086600       0.00106037
S        2.64513221       3.57184707       4.58150337      -0.00061455       0.00086957      -0.00106269
S        4.24928030       1.30323878       7.35996931       0.00061578      -0.00086874       0.00106442
