9
Lattice="5.669335778293931 -5.988368250181233e-08 3.2731924084806385 1.8897785816603627 5.345100606608905 3.273192329924179 -8.865326470485246e-09 -1.024803640853162e-07 6.546384832316441" Properties=species:S:1:pos:R:3:forces:R:3 energy=-41.000579833984375 free_energy=-41.000579833984375 stress="8.564122254028916e-05 -7.008853497580958e-09 -3.565985196019028e-08 -7.008853497580958e-09 8.564315794501454e-05 -4.3742589411754906e-11 -3.565985196019028e-08 -4.3742589411754906e-11 8.570218051318079e-05" pbc="T T T"
V        1.88977801       1.33627490       3.27319266      -0.00000162      -0.00000179       0.00000314
V        5.66933553       4.00882530       9.81957679      -0.00000115      -0.00000009      -0.00000019
Sb       0.00000017      -0.00000008      -0.00000031      -0.00000219       0.00000253       0.00000370
S        1.99096860       1.40782702       6.54638551       0.00053167       0.00037354       0.00000208
S        5.56814578       3.93727329       6.54638581      -0.00053161      -0.00037429       0.00000356
S        4.67385172       1.40782764       4.99742119      -0.00026464       0.00037444       0.00045407
S        2.88526254       3.93727347       8.09534777       0.00026470      -0.00037491      -0.00046307
S        2.88526286       3.93727306       4.99742108       0.00026733      -0.00037464       0.00045770
S        4.67385225       1.40782710       8.09534786      -0.00026238       0.00037548      -0.00046146
