9
Lattice="5.66489063275738 6.947041193198892e-08 3.270626039240338 1.8882970080700583 5.340909956860196 3.2706259266796853 1.22176623694032e-07 -5.146616489165809e-08 6.541251866864595" Properties=species:S:1:pos:R:3:forces:R:3 energy=-38.40367126464844 free_energy=-38.40367126464844 stress="-0.00013471738202497363 2.2794642617895988e-08 3.537382653462373e-08 2.2794642617895988e-08 -0.0001347017678199336 -5.6794604574861296e-08 3.537382653462373e-08 -5.6794604574861296e-08 -0.00013470072008203715" pbc="T T T"
V        1.88829671       1.33522701       3.27062584      -0.00000194      -0.00000509      -0.00000050
V        5.66488971       4.00568322       9.81187802      -0.00000684       0.00000398       0.00000254
Sb       0.00000020      -0.00000094      -0.00000002      -0.00000340       0.00001215      -0.00000033
Se       2.17434449       1.53749308       6.54125197      -0.00071402      -0.00050999       0.00000075
Se       5.37884308       3.80341707       6.54125178       0.00071244       0.00050485      -0.00000092
Se       4.57771921       1.53749328       5.15366332       0.00035901      -0.00050512      -0.00061564
Se       2.97546928       3.80341711       7.92884075      -0.00035258       0.00050375       0.00061433
Se       2.97546953       3.80341652       5.15366288      -0.00035295       0.00050302      -0.00062007
Se       4.57771885       1.53749359       7.92884081       0.00036020      -0.00050756       0.00061977
