9
Lattice="4.550214768760127 -2.5346685813727096e-08 2.627067648756843 1.5167382234973532 4.289983585155023 2.627067664100985 -8.140468123162217e-08 -3.8769151486938495e-08 5.254135438510724" Properties=species:S:1:pos:R:3:forces:R:3 energy=-54.04098892211914 free_energy=-54.04098892211914 stress="8.210896339733154e-05 -6.980339861684115e-08 1.2014954364758523e-08 -6.980339861684115e-08 8.23494847281836e-05 5.080691778402979e-08 1.2014954364758523e-08 5.080691778402979e-08 8.230374805862084e-05" pbc="T T T"
V        1.51673602       1.07249635       2.62706789      -0.00002858       0.00000717       0.00000280
V        4.55021338       3.21748860       7.88120113      -0.00002045       0.00001224      -0.00002576
Sb       0.00000021      -0.00000032       0.00000019       0.00001306       0.00001396      -0.00000180
O        1.59642548       1.12884209       5.25413535      -0.00117958      -0.00084615      -0.00000149
O        4.47052874       3.16114035       5.25413644       0.00118017       0.00082052       0.00001201
O        3.75200279       1.12884230       4.00961270       0.00060296      -0.00084114      -0.00101709
O        2.31495086       3.16114072       6.49865867      -0.00058663       0.00083613       0.00102830
O        2.31495119       3.16114076       4.00961202      -0.00058424       0.00083613      -0.00102496
O        3.75200287       1.12884305       6.49865861       0.00060338      -0.00083888       0.00102735
