9
Lattice="5.275043325251371 -2.6847393097351973e-08 3.0455475889661408 1.7583477470721103 4.9733582504221125 3.0455475936421843 -9.513049538662703e-08 -6.154047598907726e-08 6.091095342703196" Properties=species:S:1:pos:R:3:forces:R:3 energy=-40.566871643066406 free_energy=-40.566871643066406 stress="-3.004267819051165e-05 1.2795648274277482e-07 6.394536011811169e-09 1.2795648274277482e-07 -3.0150198654155247e-05 7.72498776058228e-09 6.394536011811169e-09 7.72498776058228e-09 -3.0237868486437947e-05" pbc="T T T"
V        1.75834741       1.24333936       3.04554759      -0.00000067      -0.00000111       0.00000023
V        5.27504298       3.73001827       9.13664280      -0.00000112      -0.00000032      -0.00000117
Se      -0.00000026       0.00000000      -0.00000035       0.00000284      -0.00000252       0.00001981
S        1.79683427       1.27055333       6.09109512       0.00008905       0.00006297      -0.00000012
S        5.23655648       3.70280461       6.09109537      -0.00009009      -0.00006568       0.00000245
S        4.37662648       1.27055344       4.60165112      -0.00004663       0.00006732       0.00008437
S        2.65676481       3.70280517       7.58053982       0.00005539      -0.00007820      -0.00009277
S        2.65676517       3.70280516       4.60165096       0.00004748      -0.00006273       0.00008136
S        4.37662663       1.27055327       7.58053960      -0.00005631       0.00008059      -0.00009418
