9
Lattice="4.399648758397251 1.9282078060107204e-08 2.5401383641349646 1.4665495941066735 4.148028703207079 2.5401383818106638 -2.040636419162546e-08 7.2187462796971416e-09 5.080276763614796" Properties=species:S:1:pos:R:3:forces:R:3 energy=-54.43027114868164 free_energy=-54.43027114868164 stress="0.00018327205907553434 -1.6449012818497977e-08 -4.660305918946506e-08 -1.6449012818497977e-08 0.0001833829446695745 -1.3174796720250015e-07 -4.660305918946506e-08 -1.3174796720250015e-07 0.00018348915909882635" pbc="T T T"
V        1.46654975       1.03700694       2.54013868       0.00000080       0.00000038       0.00000302
V        4.39964915       3.11102111       7.62041442       0.00000270      -0.00000681      -0.00000846
Se      -0.00000010       0.00000013      -0.00000013      -0.00000334      -0.00000249      -0.00000460
O        1.44990657       1.02523925       5.08027666       0.00047302       0.00033820      -0.00000085
O        4.41629156       3.12278971       5.08027699      -0.00047505      -0.00033051       0.00000367
O        3.67469526       1.02523902       3.79579441      -0.00023967       0.00033498       0.00040817
O        2.19150295       3.12278977       6.36475934       0.00023997      -0.00033194      -0.00041139
O        2.19150280       3.12278974       3.79579448       0.00023663      -0.00033170       0.00041258
O        3.67469534       1.02523924       6.36475921      -0.00023478       0.00033146      -0.00040209
