9
Lattice="5.131481485962845 -8.593839845065925e-08 2.962662317331637 1.7104938866473502 4.838006915475479 2.9626620765479825 9.375091466838055e-09 -2.882695446648775e-07 5.925324618425087" Properties=species:S:1:pos:R:3:forces:R:3 energy=-45.16025161743164 free_energy=-45.16025161743164 stress="9.205903916154057e-05 1.6160827343014716e-08 3.517329361102384e-08 1.6160827343014716e-08 9.173306898446754e-05 -1.2874032506715594e-07 3.517329361102384e-08 -1.2874032506715594e-07 9.198491898132488e-05" pbc="T T T"
V        1.71049416       1.20950157       2.96266127      -0.00000023       0.00000001      -0.00000142
V        5.13148028       3.62850545       8.88798476      -0.00000185       0.00000093      -0.00000194
Si       0.00000012       0.00000028       0.00000074      -0.00000443      -0.00000272      -0.00000156
S        1.76492030       1.24798729       5.92532393      -0.00280476      -0.00197786      -0.00000006
S        5.07705415       3.59001963       5.92532469       0.00281078       0.00198814      -0.00000140
S        4.24902117       1.24798511       4.49113008       0.00140026      -0.00198710      -0.00241801
S        2.59295399       3.59001987       7.35952084      -0.00140399       0.00197619       0.00242472
S        2.59295563       3.59001901       4.49112838      -0.00139901       0.00198430      -0.00243598
S        4.24902169       1.24798777       7.35952144       0.00140336      -0.00198174       0.00243512
