9
Lattice="6.172168622067053 -6.447873320155764e-10 3.5635031989603263 2.0573895474240973 5.819176329399722 3.563503186241902 3.6985114619777088e-09 -1.2961595946906657e-08 7.127006391514674" Properties=species:S:1:pos:R:3:forces:R:3 energy=-37.107818603515625 free_energy=-37.107818603515625 stress="-1.5636789612472057e-05 -1.703971008737426e-08 3.1445062109725086e-09 -1.703971008737426e-08 -1.561435783514753e-05 8.519728922351533e-09 3.1445062109725086e-09 8.519728922351533e-09 -1.5618079487467185e-05" pbc="T T T"
V        2.05738969       1.45479361       3.56350358       0.00000053      -0.00000352      -0.00000035
V        6.17216893       4.36438230      10.69050986       0.00000150       0.00000076       0.00000159
Si       0.00000021      -0.00000008       0.00000051      -0.00000132       0.00000113      -0.00000636
Te       2.11669760       1.49673108       7.12700638      -0.00183666      -0.00129925      -0.00000133
Te       6.11286033       4.32244534       7.12700652       0.00183606       0.00130139      -0.00000018
Te       5.11381994       1.49673113       5.39661678       0.00091800      -0.00129781      -0.00159092
Te       3.11573817       4.32244513       8.85739528      -0.00092183       0.00130269       0.00159251
Te       3.11573816       4.32244540       5.39661687      -0.00091722       0.00129751      -0.00158920
Te       5.11381964       1.49673136       8.85739528       0.00092088      -0.00130286       0.00159424
