9
Lattice="4.297957279119078 8.060870477713602e-08 2.4814268251137737 1.43265248267814 4.052153264970032 2.4814268592239217 -2.4629046624616935e-08 2.4360851907217637e-08 4.962853692886342" Properties=species:S:1:pos:R:3:forces:R:3 energy=-60.91545104980469 free_energy=-60.91545104980469 stress="7.004672806942835e-05 8.291597453080612e-08 2.859526304632709e-08 8.291597453080612e-08 6.978970486670732e-05 -9.636019626668713e-08 2.859526304632709e-08 -9.636019626668713e-08 7.004833605606109e-05" pbc="T T T"
V        1.43265333       1.01303854       2.48142643       0.00000944       0.00000000      -0.00000626
V        4.29795805       3.03911335       7.44427956       0.00000780      -0.00001730      -0.00001107
Si       0.00000006       0.00000016       0.00000018      -0.00000750       0.00000135       0.00000008
O        1.42233754       1.00574578       4.96285399      -0.00020921      -0.00013733       0.00000154
O        4.30827140       3.04640823       4.96285387       0.00020826       0.00014937       0.00000526
O        3.58678833       1.00574490       3.71320817       0.00009894      -0.00014400      -0.00017500
O        2.14382113       3.04640869       6.21249959      -0.00010222       0.00014353       0.00017262
O        2.14382158       3.04640818       3.71320764      -0.00010252       0.00014067      -0.00017631
O        3.58678762       1.00574565       6.21250033       0.00009698      -0.00013697       0.00018978
