9
Lattice="5.441933621770685 3.379355807798369e-08 3.141901940061999 1.8139778538102918 5.130704625962758 3.14190203008384 -1.4083410225184365e-07 1.0669059748719087e-08 6.283804124055852" Properties=species:S:1:pos:R:3:forces:R:3 energy=-41.53083419799805 free_energy=-41.53083419799805 stress="-6.157643656479195e-05 -9.041423609801313e-09 1.985603148568771e-08 -9.041423609801313e-09 -6.155492155812681e-05 4.4833399215349345e-09 1.985603148568771e-08 4.4833399215349345e-09 -6.154793663881719e-05" pbc="T T T"
V        1.81397692       1.28267599       3.14190352      -0.00000361      -0.00000092       0.00000525
V        5.44193193       3.84802726       9.42570503      -0.00000787      -0.00000503      -0.00000412
Si      -0.00000001      -0.00000008      -0.00000011       0.00000007       0.00000278       0.00000089
Se       1.89338809       1.33882737       6.28380306       0.00087788       0.00061896      -0.00000263
Se       5.36252323       3.79187748       6.28380320      -0.00087826      -0.00061809      -0.00000323
Se       4.49524063       1.33882788       4.78162443      -0.00043524       0.00062105       0.00075999
Se       2.76067311       3.79187718       7.78598448       0.00044397      -0.00062092      -0.00075876
Se       2.76067124       3.79187675       4.78162450       0.00043693      -0.00062170       0.00075973
Se       4.49524021       1.33882885       7.78598424      -0.00043374       0.00062387      -0.00075724
