9
Lattice="5.542177878436349 -2.8246712925608408e-08 3.199777714051738 1.847392635535568 5.225215453944785 3.1997776516609497 8.339329632183358e-08 -1.744482862464961e-08 6.399555283662004" Properties=species:S:1:pos:R:3:forces:R:3 energy=-41.470848083496094 free_energy=-41.470848083496094 stress="-1.8975946431964985e-06 -1.103173659089407e-07 -1.8295443382498888e-08 -1.103173659089407e-07 -1.9355736640136456e-06 2.5298964700937177e-08 -1.8295443382498888e-08 2.5298964700937177e-08 -1.7298536931775743e-06" pbc="T T T"
V        1.84739347       1.30630276       3.19977740       0.00000228      -0.00000665      -0.00000366
V        5.54217850       3.91891318       9.59933262       0.00000467       0.00001105      -0.00000321
Sn      -0.00000031       0.00000033      -0.00000003       0.00001135       0.00000006      -0.00000623
S        1.98623832       1.40448071       6.39955612       0.00142130       0.00099504       0.00000287
S        5.40333297       3.82073408       6.39955556      -0.00142705      -0.00100493       0.00000013
S        4.54905823       1.40448126       4.91991043      -0.00071451       0.00100073       0.00123149
S        2.84051114       3.82073305       7.87919967       0.00070107      -0.00099578      -0.00122744
S        2.84051116       3.82073391       4.91991051       0.00070877      -0.00099927       0.00123212
S        4.54905882       1.40448253       7.87920024      -0.00070781       0.00100014      -0.00122663
