9
Lattice="5.71508543735113 1.6377584706697158e-07 3.299606085707353 1.9050285618012979 5.388234402153599 3.2996062099388603 -8.942961506696637e-08 8.891560533155736e-08 6.599212326311304" Properties=species:S:1:pos:R:3:forces:R:3 energy=-38.269065856933594 free_energy=-38.269065856933594 stress="-1.0744638530013617e-05 -1.306751151730623e-08 -3.214342925161873e-08 -1.306751151730623e-08 -1.0804275916598272e-05 3.9887851244202466e-08 -3.214342925161873e-08 3.9887851244202466e-08 -1.0789115549414419e-05" pbc="T T T"
V        1.90502958       1.34705905       3.29960612       0.00000793       0.00000253      -0.00000127
V        5.71508426       4.04117656       9.89881962      -0.00001113       0.00000541       0.00000915
Sn       0.00000019       0.00000024      -0.00000017      -0.00000641      -0.00000708      -0.00000375
Se       2.12662767       1.50375176       6.59921243      -0.00239818      -0.00170243       0.00000164
Se       5.49348661       3.88448168       6.59921262       0.00240827       0.00170356      -0.00000166
Se       4.65177170       1.50375340       5.14131890       0.00120120      -0.00169659      -0.00208541
Se       2.96834225       3.88448187       8.05710513      -0.00120295       0.00170210       0.00208349
Se       2.96834272       3.88448160       5.14131837      -0.00119516       0.00169641      -0.00208419
Se       4.65177077       1.50375246       8.05710545       0.00119629      -0.00170382       0.00208215
