9
Lattice="6.391844405429284 -1.3827057820162925e-08 3.6903331255843335 2.130614789674825 6.026288790240329 3.6903331240232022 -8.279357347654109e-09 -7.76638247848898e-09 7.3806662655089585" Properties=species:S:1:pos:R:3:forces:R:3 energy=-35.4025993347168 free_energy=-35.4025993347168 stress="0.00022355664987117052 6.3793650362242715e-09 3.0670657125142498e-09 6.3793650362242715e-09 0.00022352988889906555 -8.737337076070162e-09 3.0670657125142498e-09 -8.737337076070162e-09 0.0002235353458672762" pbc="T T T"
V        2.13061449       1.50657227       3.69033317      -0.00000266      -0.00000096      -0.00000012
V        6.39184465       4.51971596      11.07099950       0.00000252      -0.00000391      -0.00000103
Sn      -0.00000004      -0.00000016       0.00000002       0.00000141      -0.00000154       0.00000089
Te       2.30848877       1.63234830       7.38066629      -0.00279123      -0.00197190      -0.00000062
Te       6.21397027       4.39394063       7.38066626       0.00279221       0.00197214       0.00000093
Te       5.23760013       1.63234829       5.68954302       0.00139584      -0.00197142      -0.00241520
Te       3.28485919       4.39394084       9.07178920      -0.00139630       0.00197455       0.00241594
Te       3.28485917       4.39394075       5.68954305      -0.00139685       0.00197354      -0.00241685
Te       5.23760007       1.63234818       9.07178950       0.00139493      -0.00197051       0.00241619
