9
Lattice="4.226119383326178 1.9946478984387253e-07 2.43995215796893 1.4087063440489074 3.984426968228882 2.439952686447077 -2.3149363894352996e-07 4.835601640869745e-07 4.879904716896681" Properties=species:S:1:pos:R:3:forces:R:3 energy=-57.62763595581055 free_energy=-57.62763595581055 stress="3.0004744985490106e-05 -2.3523739400843624e-07 1.3749722427292e-07 -2.3523739400843624e-07 2.93287739623338e-05 1.6313670414547232e-07 1.3749722427292e-07 1.6313670414547232e-07 2.9550019462476484e-05" pbc="T T T"
V        1.40871265       0.99610538       2.43995148       0.00006986      -0.00002100      -0.00001922
V        4.22611935       2.98832327       7.31985456       0.00000820       0.00003318      -0.00002557
S       -0.00000036      -0.00000012       0.00000017      -0.00000316      -0.00000400       0.00000306
O        1.34422032       0.95050517       4.87990833      -0.00029504      -0.00022388       0.00000018
O        4.29060375       3.03392242       4.87990569       0.00027764       0.00022852       0.00000516
O        3.55400869       0.95050812       3.60408037       0.00012386      -0.00021362      -0.00025702
O        2.08081530       3.03392020       6.15572820      -0.00015682       0.00021279       0.00027514
O        2.08081382       3.03391807       3.60408132      -0.00017387       0.00019455      -0.00025308
O        3.55400893       0.95050753       6.15572797       0.00015062      -0.00020754       0.00027478
