9
Lattice="6.279277704074707 5.703370606223313e-08 3.62534260494189 2.093092576102924 5.920159854067482 3.625342684085962 -6.900423613803777e-08 4.813791610029968e-08 7.25068532940262" Properties=species:S:1:pos:R:3:forces:R:3 energy=-45.16636657714844 free_energy=-45.16636657714844 stress="9.246771514881402e-05 2.6525588836534553e-08 -7.621964392967584e-09 2.6525588836534553e-08 9.245895489584655e-05 2.1916847003922157e-08 -7.621964392967584e-09 2.1916847003922157e-08 9.242862870451063e-05" pbc="T T T"
V        2.09309308       1.48004022       3.62534250       0.00000293       0.00000089      -0.00000057
V        6.27927776       4.44011996      10.87602802      -0.00000016      -0.00000018       0.00000072
Ta      -0.00000008       0.00000024      -0.00000008      -0.00000241      -0.00000200      -0.00000028
Te       2.20219586       1.55718798       7.25068529      -0.00651051      -0.00460324       0.00000045
Te       6.17017386       4.36297197       7.25068498       0.00651501       0.00460648       0.00000045
Te       5.17817949       1.55718794       5.53250034       0.00325397      -0.00460405      -0.00563974
Te       3.19419041       4.36297184       8.96887031      -0.00325647       0.00460234       0.00563945
Te       3.19419066       4.36297225       5.53250048      -0.00325528       0.00460345      -0.00563822
Te       5.17817980       1.55718746       8.96887063       0.00325286      -0.00460367       0.00563763
