9
Lattice="5.434493624982118 4.8547278753741526e-08 3.137606252782419 1.8114979311202555 5.123689750134904 3.1376062348463787 4.493110582700853e-10 -2.164941077481701e-08 6.2752125047866185" Properties=species:S:1:pos:R:3:forces:R:3 energy=-53.85490036010742 free_energy=-53.85490036010742 stress="7.234598888317123e-05 8.65979004061046e-08 -7.146555791592846e-09 8.65979004061046e-08 7.228462345665321e-05 -2.0335946260274795e-09 -7.146555791592846e-09 -2.0335946260274795e-09 7.2279799496755e-05" pbc="T T T"
V        1.81149828       1.28092237       3.13760623       0.00000003      -0.00000090      -0.00000077
V        5.43449368       3.84276773       9.41281907      -0.00000001       0.00000045       0.00000172
Ta      -0.00000000      -0.00000010      -0.00000048      -0.00000128       0.00000144       0.00000653
S        1.92867926       1.36378223       6.27521252      -0.00132278      -0.00093520       0.00000041
S        5.31731224       3.75990744       6.27521239       0.00132352       0.00093552      -0.00000018
S        4.47015410       1.36378182       4.80789133       0.00066005      -0.00093395      -0.00114337
S        2.77583710       3.75990787       7.74253388      -0.00065735       0.00092837       0.00113860
S        2.77583737       3.75990790       4.80789118      -0.00065866       0.00093353      -0.00114262
S        4.47015424       1.36378181       7.74253382       0.00065653      -0.00092950       0.00113991
