9
Lattice="4.491073802315466 -4.820822096974904e-08 2.5929226160993086 1.497024559461862 4.234225070217082 2.5929226089265636 -7.342234893757002e-08 -6.0702226460803e-08 5.185845359369842" Properties=species:S:1:pos:R:3:forces:R:3 energy=-65.57910919189453 free_energy=-65.57910919189453 stress="0.00011981471470789984 1.4686338367653207e-08 1.1111785624962067e-07 1.4686338367653207e-08 0.00011970022751484066 4.4748421856866116e-08 1.1111785624962067e-07 4.4748421856866116e-08 0.00011989133054157719" pbc="T T T"
V        1.49702432       1.05855805       2.59292183      -0.00000470       0.00002463      -0.00001304
V        4.49107336       3.17566867       7.77876590      -0.00000582      -0.00000036      -0.00002963
Ta       0.00000001      -0.00000011       0.00000016       0.00000316      -0.00000334      -0.00000297
O        1.58248389       1.11898518       5.18584558      -0.00111574      -0.00079042       0.00000537
O        4.40561475       3.11523910       5.18584615       0.00112045       0.00078130       0.00001348
O        3.69983185       1.11898480       3.96339438       0.00055918      -0.00079376      -0.00095958
O        2.28826685       3.11523929       6.40829715      -0.00055566       0.00078350       0.00097871
O        2.28826656       3.11523966       3.96339408      -0.00055656       0.00078756      -0.00096548
O        3.69983156       1.11898525       6.40829704       0.00055546      -0.00078964       0.00097299
