9
Lattice="5.434529048871627 5.0240134906804894e-08 3.137626717592817 1.8115097101351267 5.123722982144853 3.1376267525610735 -5.7402959152760855e-08 2.237159951257184e-09 6.275253534610501" Properties=species:S:1:pos:R:3:forces:R:3 energy=-53.854896545410156 free_energy=-53.854896545410156 stress="8.593859092798084e-05 2.587639258422314e-08 -9.835986247708206e-08 2.587639258422314e-08 8.595643885200843e-05 1.252525549944039e-07 -9.835986247708206e-08 1.252525549944039e-07 8.59117426443845e-05" pbc="T T T"
V        1.81150957       1.28093100       3.13762666      -0.00000135       0.00000056      -0.00000046
V        5.43452879       3.84279234       9.41288036      -0.00000034       0.00000017      -0.00000054
Ta      -0.00000022       0.00000023      -0.00000012       0.00000406      -0.00000363       0.00000238
S        1.92869326       1.36379206       6.27525350      -0.00156182      -0.00110450       0.00000030
S        5.31734550       3.75993069       6.27525324       0.00156304       0.00110513       0.00000018
S        4.47018243       1.36379213       4.80792426       0.00078188      -0.00110734      -0.00135481
S        2.77585656       3.75993061       7.74258290      -0.00078233       0.00110620       0.00135633
S        2.77585618       3.75993129       4.80792374      -0.00077876       0.00110254      -0.00134918
S        4.47018277       1.36379177       7.74258339       0.00077564      -0.00109932       0.00134569
