9
Lattice="5.763098148214473 -5.163101281436794e-08 3.32732626077868 1.9210326713811652 5.433500864315911 3.327326253871468 6.53259742647078e-08 3.7732893037476927e-08 6.654652408409432" Properties=species:S:1:pos:R:3:forces:R:3 energy=-48.67047119140625 free_energy=-48.67047119140625 stress="0.0002162736636819318 -8.337889312315383e-08 -7.032025628461724e-09 -8.337889312315383e-08 0.00021634627773892134 2.5180765916843484e-08 -7.032025628461724e-09 2.5180765916843484e-08 0.00021640167688019574" pbc="T T T"
V        1.92103281       1.35837593       3.32732637       0.00000228       0.00000331       0.00000181
V        5.76309833       4.07512481       9.98197738       0.00000085      -0.00000623      -0.00000932
Ta       0.00000007      -0.00000007       0.00000021       0.00000119       0.00000252      -0.00000432
Se       2.02905350       1.43475798       6.65465235      -0.00624577      -0.00441204      -0.00000031
Se       5.65507711       3.99874320       6.65465293       0.00624222       0.00441366       0.00000361
Se       4.74857105       1.43475774       5.08453853       0.00312368      -0.00441802      -0.00541229
Se       2.93556006       3.99874273       8.22476686      -0.00312470       0.00441757       0.00541530
Se       2.93555934       3.99874299       5.08453852      -0.00312452       0.00441504      -0.00540831
Se       4.74857125       1.43475808       8.22476660       0.00312471      -0.00441565       0.00541376
