9
Lattice="4.491026605203385 -3.9888518145528335e-09 2.5928954743486976 1.4970088841693732 4.23418057007679 2.5928954405235256 -9.009008209688768e-08 -1.051305000024642e-07 5.185791104737969" Properties=species:S:1:pos:R:3:forces:R:3 energy=-65.57911682128906 free_energy=-65.57911682128906 stress="9.265339758712798e-05 -1.722681020055461e-07 7.108536692612688e-08 -1.722681020055461e-07 9.21659084269777e-05 2.811760602128288e-08 7.108536692612688e-08 2.811760602128288e-08 9.23989646253176e-05" pbc="T T T"
V        1.49700787       1.05854644       2.59289663      -0.00001339       0.00001569       0.00001289
V        4.49102831       3.17563455       7.77868504       0.00002265      -0.00000881      -0.00001944
Ta      -0.00000010      -0.00000004       0.00000009       0.00000165       0.00000435       0.00000056
O        1.58246283       1.11897135       5.18579098      -0.00060886      -0.00041813      -0.00000153
O        4.40557240       3.11520920       5.18579173       0.00060475       0.00041592       0.00000609
O        3.69979456       1.11897057       3.96334926       0.00029978      -0.00043076      -0.00051999
O        2.28824074       3.11520991       6.40823258      -0.00030401       0.00042665       0.00052059
O        2.28823987       3.11520926       3.96334926      -0.00030777       0.00042385      -0.00051987
O        3.69979507       1.11897061       6.40823249       0.00030512      -0.00042886       0.00052178
