9
Lattice="5.763137885769563 -1.1196212025177432e-07 3.3273493212368703 1.9210458902335208 5.433538599462535 3.3273492625736205 4.7736982842524026e-08 -3.8092357112940136e-08 6.654698559790877" Properties=species:S:1:pos:R:3:forces:R:3 energy=-48.67047119140625 free_energy=-48.67047119140625 stress="0.0002196010173065588 -8.340673218754091e-08 1.5770840633422267e-08 -8.340673218754091e-08 0.0002196398563683033 -3.6601083053255934e-08 1.5770840633422267e-08 -3.6601083053255934e-08 0.00021967757493257523" pbc="T T T"
V        1.92104643       1.35838443       3.32734936       0.00000156      -0.00000181       0.00000110
V        5.76313763       4.07515426       9.98204751      -0.00000088       0.00000310      -0.00000327
Ta      -0.00000020      -0.00000011       0.00000057       0.00000030       0.00000195      -0.00001203
Se       2.02904963       1.43475431       6.65469850      -0.00596423      -0.00421859      -0.00000014
Se       5.65513422       3.99878388       6.65469866       0.00596359       0.00421757       0.00000088
Se       4.74861298       1.43475428       5.08455781       0.00298107      -0.00421943      -0.00516602
Se       2.93557077       3.99878385       8.22483931      -0.00298578       0.00422366       0.00517175
Se       2.93557105       3.99878388       5.08455790      -0.00298399       0.00421868      -0.00516808
Se       4.74861276       1.43475503       8.22483900       0.00298836      -0.00422516       0.00517597
