9
Lattice="4.52408336832017 -2.346033398562578e-08 2.6119807199695813 1.5080277984623545 4.265346586360087 2.611980666031938 2.1678529984774253e-08 -5.073081724125278e-08 5.223961402390874" Properties=species:S:1:pos:R:3:forces:R:3 energy=-54.420166015625 free_energy=-54.420166015625 stress="0.00024037176626734436 7.885130770546311e-08 -5.033068717352762e-08 7.885130770546311e-08 0.0002405502018518746 1.1250598674905632e-07 -5.033068717352762e-08 1.1250598674905632e-07 0.00024041325377766043" pbc="T T T"
V        1.50802833       1.06633652       2.61198063       0.00000643       0.00000036      -0.00000081
V        4.52408383       3.19901032       7.83594092       0.00000512       0.00000521      -0.00001243
Te       0.00000000       0.00000019       0.00000016       0.00000600      -0.00001262      -0.00000655
O        1.55125774       1.09690451       5.22396153       0.00030202       0.00020903       0.00000046
O        4.48085344       3.16844190       5.22396178      -0.00030303      -0.00020796       0.00000480
O        3.74845447       1.09690445       3.95540930      -0.00015715       0.00021434       0.00026888
O        2.28365630       3.16844170       6.49251377       0.00014713      -0.00020981      -0.00025541
O        2.28365615       3.16844167       3.95540922       0.00014970      -0.00021583       0.00026309
O        3.74845456       1.09690484       6.49251391      -0.00015637       0.00021720      -0.00026286
