9
Lattice="5.636937397884807 -4.722634847403292e-08 3.2544873959467973 1.8789791011585006 5.314555649654519 3.25448737333373 -1.9068408420340266e-08 -4.117863539258278e-08 6.508974824921059" Properties=species:S:1:pos:R:3:forces:R:3 energy=-37.07823944091797 free_energy=-37.07823944091797 stress="0.00037518746103160083 -5.8561607119145265e-08 5.49574217245663e-08 -5.8561607119145265e-08 0.0003751424665097147 5.180985596098253e-08 5.49574217245663e-08 5.180985596098253e-08 0.00037518725730478764" pbc="T T T"
V        1.87897828       1.32863882       3.25448807      -0.00000484      -0.00000108       0.00000553
V        5.63693752       3.98591545       9.76346052       0.00000223      -0.00000705      -0.00001137
Te      -0.00000009      -0.00000021       0.00000017      -0.00000152       0.00000143      -0.00000123
Se       2.22020835       1.56992529       6.50897472      -0.00124690      -0.00087759      -0.00000326
Se       5.29570819       3.74463094       6.50897575       0.00124338       0.00087735       0.00000504
Se       4.52683338       1.56992470       5.17724467       0.00062482      -0.00087836      -0.00107741
Se       2.98908399       3.74463127       7.84070495      -0.00062104       0.00088468       0.00107822
Se       2.98908299       3.74463088       5.17724454      -0.00062296       0.00087893      -0.00107616
Se       4.52683328       1.56992517       7.84070496       0.00062680      -0.00087833       0.00108063
