9
Lattice="5.301780334878354 2.279144015054371e-08 3.0609843591696912 1.7672601539351631 4.998566255679546 3.060984323106516 4.9157407604735826e-08 -9.408640999281643e-09 6.121968633196272" Properties=species:S:1:pos:R:3:forces:R:3 energy=-50.09917449951172 free_energy=-50.09917449951172 stress="7.810634997440502e-06 3.61707730434091e-09 1.4944758763846266e-09 3.61707730434091e-09 7.822133738955017e-06 -2.7269528857232217e-09 1.4944758763846266e-09 -2.7269528857232217e-09 7.822449333616532e-06" pbc="T T T"
V        1.76725947       1.24964134       3.06098447      -0.00000241      -0.00000244       0.00000030
V        5.30178033       3.74892540       9.18295302       0.00000031       0.00000447      -0.00000082
Ti       0.00000027      -0.00000022      -0.00000046       0.00000144       0.00000531       0.00000633
S        1.86568391       1.31923776       6.12196896      -0.00225759      -0.00159553      -0.00000003
S        5.20335731       3.67932907       6.12196856       0.00224912       0.00158899       0.00000112
S        4.36893835       1.31923667       4.67671434       0.00112887      -0.00159569      -0.00195161
S        2.70010192       3.67932922       7.56722317      -0.00112253       0.00159140       0.00194824
S        2.70010226       3.67932880       4.67671371      -0.00112411       0.00159344      -0.00195432
S        4.36893840       1.31923708       7.56722375       0.00112711      -0.00158982       0.00195089
