9
Lattice="4.371102261629879 4.277896408840701e-09 2.5236570853896083 1.4570340654293419 4.121114913096061 2.523657130100531 -5.2173864637884264e-08 1.7866969197306416e-08 5.047314261147024" Properties=species:S:1:pos:R:3:forces:R:3 energy=-60.94232177734375 free_energy=-60.94232177734375 stress="0.0001265079918084666 1.935774633921028e-07 8.375469207066999e-08 1.935774633921028e-07 0.000126612838357687 6.731418267236222e-08 8.375469207066999e-08 6.731418267236222e-08 0.00012687442358583212" pbc="T T T"
V        1.45703437       1.03027862       2.52365811       0.00000244      -0.00000287       0.00000872
V        4.37110077       3.09083535       7.57097090      -0.00001943      -0.00001110      -0.00000172
Ti      -0.00000014       0.00000020       0.00000020       0.00000013      -0.00000423      -0.00000065
O        1.53295733       1.08396435       5.04731396       0.00346065       0.00244385      -0.00000492
O        4.29517875       3.03715054       5.04731409      -0.00345325      -0.00243801       0.00000017
O        3.60462371       1.08396505       3.85123662      -0.00173140       0.00245148       0.00299114
O        2.22351322       3.03715046       6.24339177       0.00173438      -0.00244427      -0.00299019
O        2.22351298       3.03715036       3.85123699       0.00172943      -0.00244415       0.00299180
O        3.60462411       1.08396484       6.24339151      -0.00172251       0.00244892      -0.00299436
