9
Lattice="6.188716634075993 -8.919360448703163e-08 3.5730572618123286 2.0629054578299315 5.834778176110348 3.5730572666093097 -5.039078398699201e-08 -2.9756608872938445e-08 7.146114610904091" Properties=species:S:1:pos:R:3:forces:R:3 energy=-42.10236740112305 free_energy=-42.10236740112305 stress="-5.716211308026686e-05 1.3123949926807654e-08 4.553676991037037e-09 1.3123949926807654e-08 -5.717913154512644e-05 9.10783892749123e-09 4.553676991037037e-09 9.10783892749123e-09 -5.7192246458726004e-05" pbc="T T T"
V        2.06290535       1.45869528       3.57305665      -0.00000105       0.00000462      -0.00000261
V        6.18871614       4.37608320      10.71917262      -0.00000232      -0.00000102       0.00000373
Ti       0.00000012      -0.00000015       0.00000044      -0.00000259      -0.00000105      -0.00000097
Te       2.15219735       1.52183319       7.14611490      -0.00163018      -0.00115351       0.00000101
Te       6.09942480       4.31294446       7.14611411       0.00163502       0.00115396      -0.00000189
Te       5.11261794       1.52183355       5.43691509       0.00081580      -0.00115330      -0.00141315
Te       3.13900431       4.31294450       8.85531390      -0.00081576       0.00115173       0.00141377
Te       3.13900432       4.31294467       5.43691487      -0.00081473       0.00115216      -0.00141303
Te       5.11261784       1.52183352       8.85531400       0.00081575      -0.00115373       0.00141310
