9
Lattice="5.658879389001509 -3.408192986475481e-08 3.2671554406859014 1.88629316789856 5.335242519254818 3.2671553188116724 3.962631096524357e-08 -1.2124486304480807e-07 6.534310812736963" Properties=species:S:1:pos:R:3:forces:R:3 energy=-45.46935272216797 free_energy=-45.46935272216797 stress="-1.7328400645055808e-05 4.741998083090948e-08 4.617494653302856e-08 4.741998083090948e-08 -1.7332273273495957e-05 -4.3754877054880126e-08 4.617494653302856e-08 -4.3754877054880126e-08 -1.734571560518816e-05" pbc="T T T"
V        1.88629253       1.33381081       3.26715519      -0.00000326       0.00000283      -0.00000251
V        5.65887970       4.00143130       9.80146811       0.00000088      -0.00000384       0.00001169
Ti       0.00000007       0.00000052      -0.00000081       0.00000047      -0.00000640       0.00000870
Se       1.97373026       1.39563832       6.53431150      -0.00161061      -0.00113511       0.00000045
Se       5.57144205       3.93960377       6.53431039       0.00161373       0.00113965      -0.00000258
Se       4.67201429       1.39563839       4.97645535       0.00080283      -0.00113398      -0.00139363
Se       2.87315794       3.93960416       8.09216593      -0.00080449       0.00113406       0.00138768
Se       2.87315910       3.93960450       4.97645549      -0.00080450       0.00114201      -0.00139737
Se       4.67201442       1.39563770       8.09216517       0.00080494      -0.00113921       0.00138773
