9
Lattice="4.5717961082460015 3.1659826683852425e-08 2.6395276377914145 1.523932054807503 4.310330641595405 2.639527657058192 2.9814608298061206e-08 4.4678986969431956e-08 5.2790552239424" Properties=species:S:1:pos:R:3:forces:R:3 energy=-59.877601623535156 free_energy=-59.877601623535156 stress="0.0008412948227487504 6.422277465389925e-08 -7.040242877565106e-08 6.422277465389925e-08 0.0008412798051722348 2.649992048020522e-08 -7.040242877565106e-08 2.649992048020522e-08 0.0008411447051912546" pbc="T T T"
V        1.52393148       1.07758343       2.63952767      -0.00000647       0.00001107      -0.00000076
V        4.57179594       3.23274832       7.91858305      -0.00000299       0.00000274       0.00000251
W        0.00000023      -0.00000005      -0.00000022      -0.00000036      -0.00000438       0.00000421
O        1.56523130       1.10678478       5.27905490       0.00073969       0.00051326      -0.00000195
O        4.53049727       3.20354533       5.27905527      -0.00073242      -0.00051975       0.00000190
O        3.78918138       1.10678545       3.99505711      -0.00036472       0.00052387       0.00064194
O        2.30654725       3.20354504       6.56305372       0.00036854      -0.00052583      -0.00064051
O        2.30654714       3.20354545       3.99505717       0.00036711      -0.00052613       0.00063944
O        3.78918100       1.10678522       6.56305342      -0.00036716       0.00052559      -0.00064611
