9
Lattice="5.836448795879188 3.781230292254298e-08 3.369675237214621 1.945482985477854 5.502656751553868 3.369675206265794 -1.0238524108340287e-08 -4.514422401018172e-08 6.739350492162887" Properties=species:S:1:pos:R:3:forces:R:3 energy=-48.87897872924805 free_energy=-48.87897872924805 stress="7.310604269150645e-05 -8.605498535985134e-09 1.742392363723866e-08 -8.605498535985134e-09 7.31086329324171e-05 -4.0922452093639095e-09 1.742392363723866e-08 -4.0922452093639095e-09 7.312103844014928e-05" pbc="T T T"
V        1.94548318       1.37566441       3.36967553       0.00000269      -0.00000001       0.00000350
V        5.83644825       4.12699273      10.10902581      -0.00000442       0.00000079       0.00000257
W       -0.00000014       0.00000004       0.00000018       0.00000090      -0.00000163      -0.00000404
Se       1.98086760       1.40068455       6.73935035       0.00066019       0.00046417       0.00000088
Se       5.80106402       4.10197234       6.73934961      -0.00065902      -0.00046469      -0.00000367
Se       4.84601519       1.40068451       5.08515714      -0.00033060       0.00046717       0.00057086
Se       2.93591695       4.10197162       8.39354436       0.00032803      -0.00046310      -0.00056941
Se       2.93591659       4.10197144       5.08515662       0.00033048      -0.00046807       0.00056913
Se       4.84601541       1.40068539       8.39354408      -0.00032825       0.00046531      -0.00056982
