9
Lattice="5.492747335099638 -6.525980023828105e-09 3.1712390472647027 1.8309157909057792 5.178612002470383 3.171239014889323 2.0167076082957842e-09 -3.8225622204908916e-08 6.342478091036486" Properties=species:S:1:pos:R:3:forces:R:3 energy=-53.384613037109375 free_energy=-53.384613037109375 stress="0.00011519053805386648 4.105991990854818e-08 -8.181191279987843e-10 4.105991990854818e-08 0.00011518089013407007 1.639823743460056e-08 -8.181191279987843e-10 1.639823743460056e-08 0.00011515878577483818" pbc="T T T"
V        1.83091557       1.29465146       3.17123873      -0.00000298      -0.00000671      -0.00000236
V        5.49274762       3.88395896       9.51371733       0.00000293      -0.00000155       0.00000224
W       -0.00000028      -0.00000009       0.00000007       0.00000674      -0.00000143      -0.00000386
S        1.88603724       1.33363018       6.34247814      -0.00124052      -0.00087747       0.00000114
S        5.43762572       3.84498215       6.34247802       0.00123751       0.00087591      -0.00000043
S        4.54972864       1.33362968       4.80459506       0.00061649      -0.00087267      -0.00106689
S        2.77393447       3.84498288       7.88036075      -0.00061980       0.00087975       0.00107166
S        2.77393483       3.84498255       4.80459496      -0.00061688       0.00087771      -0.00107113
S        4.54972869       1.33363001       7.88036144       0.00061648      -0.00087339       0.00106964
