9
Lattice="6.211985548990596 -7.289410642696118e-08 3.5864916980246004 2.07066179292053 5.856716360327457 3.5864916772708395 -6.385647076859511e-08 -7.057142392047767e-08 7.172983506651844" Properties=species:S:1:pos:R:3:forces:R:3 energy=-45.016944885253906 free_energy=-45.016944885253906 stress="-4.289988282835111e-05 -4.5865004238976326e-08 3.757243405289046e-09 -4.5865004238976326e-08 -4.2861200199695304e-05 4.754129978579158e-09 3.757243405289046e-09 4.754129978579158e-09 -4.279865606804378e-05" pbc="T T T"
V        2.07066181       1.46417939       3.58649127      -0.00000007       0.00000114      -0.00000190
V        6.21198525       4.39253699      10.75947538      -0.00000228       0.00000025       0.00000225
W        0.00000014      -0.00000003      -0.00000003      -0.00000449      -0.00000057      -0.00000102
Te       2.16373274       1.52998979       7.17298322      -0.00341235      -0.00241372       0.00000043
Te       6.11891425       4.32672606       7.17298332       0.00341772       0.00241544       0.00000061
Te       5.13011923       1.52999082       5.46033931       0.00171169      -0.00241798      -0.00296019
Te       3.15252804       4.32672581       8.88562755      -0.00170898       0.00241493       0.00295936
Te       3.15252868       4.32672585       5.46033977      -0.00170918       0.00241710      -0.00295968
Te       5.13011899       1.52999016       8.88562774       0.00170798      -0.00241655       0.00296003
