9
Lattice="6.345957266850924 3.0965606832565625e-08 3.663839980807798 2.1153191225049066 5.983025615408148 3.663839973256206 2.3633923654687684e-08 7.462912845629295e-09 7.3276799206804455" Properties=species:S:1:pos:R:3:forces:R:3 energy=-42.40436553955078 free_energy=-42.40436553955078 stress="3.6463003198150545e-05 3.23871525154118e-08 -4.252540986016129e-09 3.23871525154118e-08 3.645859396783635e-05 -1.1065020899536648e-08 -4.252540986016129e-09 -1.1065020899536648e-08 3.644232856458984e-05" pbc="T T T"
V        2.11531913       1.49575593       3.66383990      -0.00000075      -0.00000134      -0.00000011
V        6.34595752       4.48726962      10.99152001       0.00000089       0.00000065      -0.00000061
Zr       0.00000007       0.00000007      -0.00000041       0.00000157       0.00000114       0.00000736
Te       2.25681277       1.59580762       7.32767983      -0.00023124      -0.00016309       0.00000162
Te       6.20446340       4.38721812       7.32767981       0.00023098       0.00016247       0.00000109
Te       5.21755081       1.59580757       5.61829704       0.00011610      -0.00016469      -0.00019921
Te       3.24372534       4.38721837       9.03706322      -0.00011230       0.00015812       0.00019409
Te       3.24372553       4.38721826       5.61829692      -0.00011684       0.00016539      -0.00019856
Te       5.21755112       1.59580706       9.03706318       0.00011167      -0.00015859       0.00019434
