9
Lattice="5.782736556393473 6.057819866545773e-08 3.3386645090675025 1.9275789322421424 5.452016289842127 3.338664469234979 2.0280419045223673e-08 -3.44442300298657e-08 6.677328983008278" Properties=species:S:1:pos:R:3:forces:R:3 energy=-44.986873626708984 free_energy=-44.986873626708984 stress="3.060688322875649e-05 3.97447443845067e-08 2.4811631860188754e-08 3.97447443845067e-08 3.056696368730627e-05 -4.469541892149209e-08 2.4811631860188754e-08 -4.469541892149209e-08 3.06050933431834e-05" pbc="T T T"
V        1.92757806       1.36300313       3.33866495      -0.00000647      -0.00000760       0.00000371
V        5.78273650       4.08901280      10.01599275      -0.00000195       0.00000490      -0.00000238
Zr      -0.00000007      -0.00000006       0.00000017      -0.00000139       0.00000372       0.00000307
Se       2.08281723       1.47277396       6.67732896      -0.00051201      -0.00036291      -0.00000005
Se       5.62749817       3.97924293       6.67732919       0.00050879       0.00036588       0.00000121
Se       4.74132841       1.47277366       5.14243740       0.00025701      -0.00036337      -0.00044003
Se       2.96898742       3.97924268       8.21222098      -0.00025104       0.00035972       0.00043828
Se       2.96898760       3.97924225       5.14243700      -0.00025394       0.00036180      -0.00044363
Se       4.74132871       1.47277389       8.21222045       0.00026107      -0.00036211       0.00043981
