9
Lattice="5.46499071247128 -1.1921442661750595e-08 3.1552138105633394 1.8216635752994688 5.1524424748857705 3.1552137833435845 1.0202111213565742e-08 -2.612329121609258e-08 6.310427603456109" Properties=species:S:1:pos:R:3:forces:R:3 energy=-49.7606201171875 free_energy=-49.7606201171875 stress="5.041553231421858e-05 4.439793599431141e-08 2.103797358543602e-09 4.439793599431141e-08 5.042133489041589e-05 1.9708920717675937e-08 2.103797358543602e-09 1.9708920717675937e-08 5.033901470596902e-05" pbc="T T T"
V        1.82166351       1.28811004       3.15521369      -0.00000060      -0.00000376      -0.00000086
V        5.46499056       3.86433185       9.46564120      -0.00000009       0.00000069      -0.00000280
Zr       0.00000039       0.00000046       0.00000009      -0.00000521      -0.00000771      -0.00000126
S        1.97262598       1.39485685       6.31042753      -0.00281769      -0.00199598       0.00000011
S        5.31402820       3.75758521       6.31042782       0.00282919       0.00199977       0.00000039
S        4.47867801       1.39485702       4.86355770       0.00141098      -0.00199103      -0.00244203
S        2.80797647       3.75758548       7.75729727      -0.00141235       0.00199839       0.00244391
S        2.80797611       3.75758563       4.86355785      -0.00141294       0.00199303      -0.00244248
S        4.47867791       1.39485714       7.75729763       0.00140843      -0.00199345       0.00244477
