9
Lattice="4.569461360418922 -4.432542731647512e-08 2.6381798363499858 1.5231537625640363 4.3081297684161015 2.638179805955694 -5.7697598403921785e-08 -7.802359479428956e-08 5.276359772635141" Properties=species:S:1:pos:R:3:forces:R:3 energy=-60.23948287963867 free_energy=-60.23948287963867 stress="6.174529698910192e-05 1.0874950362449454e-07 9.795786581889843e-08 1.0874950362449454e-07 6.161475903354585e-05 7.2894088987141e-08 9.795786581889843e-08 7.2894088987141e-08 6.150530680315569e-05" pbc="T T T"
V        1.52315315       1.07703269       2.63817957      -0.00000944       0.00000433      -0.00000802
V        4.56946117       3.23109698       7.91453800      -0.00000209      -0.00000460      -0.00002269
Zr      -0.00000016       0.00000000       0.00000001       0.00000105      -0.00000318       0.00000043
O        1.64695518       1.16457281       5.27636041      -0.00155348      -0.00109744       0.00000559
O        4.44566005       3.14355646       5.27635992       0.00155872       0.00109881       0.00000540
O        3.74598399       1.16457299       4.06448493       0.00077531      -0.00109959      -0.00133824
O        2.34663190       3.14355656       6.48823492      -0.00077122       0.00109881       0.00134993
O        2.34663060       3.14355653       4.06448509      -0.00078154       0.00109547      -0.00133771
O        3.74598438       1.16457353       6.48823479       0.00078258      -0.00109226       0.00134575
