9
Lattice="4.148332426750079 -2.889901578686994e-08 2.395041012574852 1.3827774429221946 3.9110857190236117 2.39504102195377 -5.058887385331005e-08 -2.428496224906105e-08 4.790082112772198" Properties=species:S:1:pos:R:3:forces:R:3 energy=-66.68071746826172 free_energy=-66.68071746826172 stress="-3.3481581340311095e-05 1.2049474662489956e-07 4.826114619049804e-09 1.2049474662489956e-07 -3.371400816831738e-05 -1.9674489237786474e-07 4.826114619049804e-09 -1.9674489237786474e-07 -3.3954420359805226e-05" pbc="T T T"
W        1.38277780       0.97777243       2.39504149       0.00000886       0.00001564       0.00000401
W        4.14833348       2.93331383       7.18512341       0.00001567      -0.00000254       0.00000631
As      -0.00000011      -0.00000001      -0.00000031      -0.00000503      -0.00000223       0.00001475
N        1.51127285       1.06863181       4.79008234      -0.00097537      -0.00068387       0.00000043
N        4.01983659       2.84245425       4.79008196       0.00097024       0.00068864      -0.00000314
N        3.39269556       1.06863090       3.70384201       0.00047755      -0.00068876      -0.00083810
N        2.13841323       2.84245406       5.87632213      -0.00049013       0.00067890       0.00082856
N        2.13841393       2.84245376       3.70384141      -0.00048658       0.00067902      -0.00084621
N        3.39269594       1.06863148       5.87632223       0.00048473      -0.00068432       0.00083399
