9
Lattice="4.191234685427172 5.627549418238875e-08 2.419810412957754 1.3970782710772736 3.951534069843788 2.4198104310671975 -3.912399722302271e-08 -5.4853808487003386e-09 4.839620893680255" Properties=species:S:1:pos:R:3:forces:R:3 energy=-63.99794387817383 free_energy=-63.99794387817383 stress="3.4147036785725504e-05 1.0276124129404707e-07 -1.6265047975139169e-07 1.0276124129404707e-07 3.3939086279133335e-05 6.299276833487966e-08 -1.6265047975139169e-07 6.299276833487966e-08 3.432681114645675e-05" pbc="T T T"
W        1.39707702       0.98788322       2.41980981      -0.00001871      -0.00000763      -0.00000631
W        4.19123324       2.96364977       7.25943092      -0.00002120      -0.00000888      -0.00000732
Ga       0.00000019       0.00000002       0.00000005      -0.00000069       0.00000063      -0.00001228
N        1.56106837       1.10384152       4.83962125       0.00065267       0.00045615       0.00000148
N        4.02724499       2.84769239       4.83962101      -0.00063944      -0.00045383       0.00000274
N        3.41070128       1.10384208       3.77173486      -0.00031412       0.00046128       0.00056005
N        2.17761246       2.84769259       5.90750709       0.00032246      -0.00045055      -0.00054991
N        2.17761277       2.84769281       3.77173472       0.00033361      -0.00045639       0.00056422
N        3.41070132       1.10384211       5.90750710      -0.00031507       0.00045937      -0.00055355
