9
Lattice="4.549313173296536 1.4645804624512033e-07 2.6265467978603323 1.5164378490855848 4.289133639318391 2.6265468211192826 8.179023429269759e-08 8.632072450907515e-08 5.253093454055822" Properties=species:S:1:pos:R:3:forces:R:3 energy=-67.39309692382812 free_energy=-67.39309692382812 stress="-0.0001315760164288804 6.316450473775603e-09 8.13169691582516e-08 6.316450473775603e-09 -0.0001317277055932209 7.281753511279021e-08 8.13169691582516e-08 7.281753511279021e-08 -0.00013221513654571027" pbc="T T T"
Y        1.51643723       1.07228324       2.62654672       0.00000538       0.00000206       0.00000075
Y        4.54931385       3.21685046       7.87964073      -0.00000301      -0.00000026      -0.00000124
As       0.00000035       0.00000030      -0.00000058      -0.00000637      -0.00000419       0.00001360
O        1.50154952       1.06175592       5.25309317       0.00295389       0.00209355       0.00000255
O        4.56420143       3.22737827       5.25309343      -0.00295222      -0.00209081       0.00000123
O        3.79853793       1.06175604       3.92692634      -0.00147265       0.00208545       0.00255907
O        2.26721269       3.22737812       6.57926108       0.00147980      -0.00209439      -0.00256979
O        2.26721293       3.22737761       3.92692641       0.00147200      -0.00208509       0.00256073
O        3.79853860       1.06175571       6.57926088      -0.00147706       0.00209320      -0.00256777
