9
Lattice="5.538488362895352 5.672686426465312e-08 3.197647789959266 1.8461628633469298 5.221736553654067 3.197647751451341 1.4303879247584085e-07 5.398130838559631e-08 6.3952953321680654" Properties=species:S:1:pos:R:3:forces:R:3 energy=-49.12788009643555 free_energy=-49.12788009643555 stress="-0.00017923476116266102 7.555224001976057e-09 2.739951820984743e-09 7.555224001976057e-09 -0.0001791961694834754 1.8994393613525062e-08 2.739951820984743e-09 1.8994393613525062e-08 -0.0001792747643776238" pbc="T T T"
Y        1.84616200       1.30543396       3.19764766      -0.00000387      -0.00000038      -0.00000145
Y        5.53848895       3.91630269       9.59294347       0.00000117       0.00000010       0.00000120
As       0.00000012      -0.00000001      -0.00000037       0.00000087       0.00000133       0.00000950
S        1.89045313       1.33675241       6.39529548      -0.00102532      -0.00072438       0.00000092
S        5.49419827       3.88498440       6.39529518       0.00102484       0.00072426       0.00000046
S        4.59326199       1.33675232       4.83482828       0.00051612      -0.00072813      -0.00088996
S        2.79138947       3.88498456       7.95576283      -0.00051078       0.00072360       0.00088584
S        2.79138935       3.88498448       4.83482848      -0.00051552       0.00072700      -0.00088966
S        4.59326227       1.33675184       7.95576243       0.00051254      -0.00072348       0.00088328
