9
Lattice="4.573023709474649 -2.091535581951633e-08 2.640236978444113 1.5243411988190951 4.311488939498421 2.640237009540083 -8.884218201693745e-08 -2.4736283983791007e-08 5.2804741107673845" Properties=species:S:1:pos:R:3:forces:R:3 energy=-61.88507843017578 free_energy=-61.88507843017578 stress="4.608276140061207e-05 -1.1666617005801072e-08 3.7742746705760055e-09 -1.1666617005801072e-08 4.6133856812957674e-05 7.692845471751752e-09 3.7742746705760055e-09 7.692845471751752e-09 4.63518917968031e-05" pbc="T T T"
Y        1.52434119       1.07787211       2.64023715       0.00000082       0.00000223       0.00000146
Y        4.57302400       3.23361656       7.92071079       0.00000241       0.00000160       0.00000595
As       0.00000115       0.00000103       0.00000199      -0.00000600      -0.00000941      -0.00001520
N        1.57032710       1.11038932       5.28047395      -0.00272429      -0.00192440       0.00000034
N        4.52703716       3.20109858       5.28047362       0.00272799       0.00192857      -0.00000096
N        3.78785975       1.11038941       4.00018021       0.00136197      -0.00192451      -0.00235939
N        2.30950475       3.20109952       6.56076688      -0.00136530       0.00192893       0.00236249
N        2.30950488       3.20109911       4.00018038      -0.00136179       0.00192571      -0.00235868
N        3.78785960       1.11038955       6.56076708       0.00136435      -0.00192916       0.00236273
