9
Lattice="5.538391968526262 5.962790339699671e-08 3.1975921434448336 1.8461306786641825 5.221646273879984 3.197592201865129 8.137463175081638e-08 1.290904962837319e-07 6.395184145944699" Properties=species:S:1:pos:R:3:forces:R:3 energy=-49.12787628173828 free_energy=-49.12787628173828 stress="-0.00018769035523291677 -5.785234513666637e-09 1.7196935431229576e-08 -5.785234513666637e-09 -0.00018779431411530823 -6.289513265755886e-08 1.7196935431229576e-08 -6.289513265755886e-08 -0.00018777340301312506" pbc="T T T"
Y        1.84613102       1.30541223       3.19759174       0.00000120       0.00000244      -0.00000150
Y        5.53839168       3.91623489       9.59277641      -0.00000133       0.00000013       0.00000080
As      -0.00000016       0.00000014      -0.00000008      -0.00000143      -0.00000741       0.00000470
S        1.89047901       1.33677059       6.39518394      -0.00174719      -0.00123620       0.00000024
S        5.49404359       3.88487575       6.39518405       0.00175279       0.00123882       0.00000029
S        4.59315273       1.33677057       4.83479514       0.00087366      -0.00123626      -0.00151342
S        2.79137015       3.88487542       7.95557380      -0.00087312       0.00123286       0.00151485
S        2.79137064       3.88487553       4.83479538      -0.00087744       0.00123984      -0.00151867
S        4.59315233       1.33677078       7.95557361       0.00087270      -0.00123435       0.00151372
