9
Lattice="4.549290058878479 -5.746398703203153e-08 2.6265335815855617 1.5164300014422378 4.2891112378062894 2.6265335192427828 2.956092914498608e-08 -5.5451274038233406e-08 5.253067111970121" Properties=species:S:1:pos:R:3:forces:R:3 energy=-67.39309692382812 free_energy=-67.39309692382812 stress="-4.723900019598659e-06 7.09383414232434e-08 2.1530681237891258e-08 7.09383414232434e-08 -4.588485353451688e-06 3.0004574824715746e-08 2.1530681237891258e-08 3.0004574824715746e-08 -4.647913101507584e-06" pbc="T T T"
Y        1.51643013       1.07227778       2.62653347       0.00000168       0.00000201       0.00000076
Y        4.54929032       3.21683321       7.87960054      -0.00000048      -0.00000189      -0.00000004
As      -0.00000004       0.00000024      -0.00000019       0.00000099      -0.00000418       0.00000098
O        1.50167561       1.06184520       5.25306708      -0.00137818      -0.00097597       0.00000155
O        4.56404426       3.22726605       5.25306725       0.00137627       0.00097167      -0.00000016
O        3.79845195       1.06184487       3.92702240       0.00068927      -0.00097227      -0.00118947
O        2.26726799       3.22726586       6.57911174      -0.00068885       0.00097656       0.00119150
O        2.26726799       3.22726590       3.92702261      -0.00069070       0.00097799      -0.00119400
O        3.79845228       1.06184517       6.57911172       0.00068939      -0.00097454       0.00118947
