9
Lattice="5.771814133526473 -8.509397927782274e-08 3.332358483035891 1.9239379730557526 5.441718536569431 3.3323584678383233 7.477901080337534e-09 -1.3325439233190843e-08 6.664716953119681" Properties=species:S:1:pos:R:3:forces:R:3 energy=-44.58342361450195 free_energy=-44.58342361450195 stress="-5.8917397836921737e-05 5.936915403736975e-09 -1.683531714036235e-08 5.936915403736975e-09 -5.891174805583432e-05 2.722929215437375e-09 -1.683531714036235e-08 2.722929215437375e-09 -5.894680361961946e-05" pbc="T T T"
Y        1.92393861       1.36043031       3.33235914       0.00000178       0.00000198       0.00000300
Y        5.77181446       4.08128913       9.99707359       0.00000076       0.00000109      -0.00000919
As      -0.00000022       0.00000005      -0.00000015       0.00000041      -0.00000078       0.00000309
Se       1.98930565       1.40665159       6.66471642       0.00057638       0.00040737      -0.00000091
Se       5.70644634       4.03506651       6.66471770      -0.00057447      -0.00040655       0.00000303
Se       4.77716103       1.40665121       5.05514829      -0.00028992       0.00040422       0.00049976
Se       2.91859113       4.03506667       8.27428615       0.00028892      -0.00040741      -0.00049728
Se       2.91859058       4.03506642       5.05514813       0.00028488      -0.00040749       0.00049755
Se       4.77716089       1.40665178       8.27428639      -0.00028886       0.00040752      -0.00049886
