9
Lattice="5.7718717037457665 1.6664962229985367e-07 3.3323916058112717 1.9239573960193967 5.4417725374270125 3.3323915983310535 -3.447238893780004e-08 -3.35370160064867e-08 6.664783271330459" Properties=species:S:1:pos:R:3:forces:R:3 energy=-44.58342361450195 free_energy=-44.58342361450195 stress="-5.0786595238605514e-05 7.510852384484679e-09 3.711944307482895e-09 7.510852384484679e-09 -5.072036947240122e-05 2.8076271973986877e-08 3.711944307482895e-09 2.8076271973986877e-08 -5.076085653854534e-05" pbc="T T T"
Y        1.92395637       1.36044200       3.33239223      -0.00000385      -0.00000382       0.00000188
Y        5.77187199       4.08133195       9.99717545       0.00000028       0.00000870       0.00000192
As       0.00000024       0.00000013      -0.00000036      -0.00000407      -0.00000013       0.00000275
Se       1.98932767       1.40666602       6.66478308       0.00053608       0.00037605      -0.00000057
Se       5.70650113       4.03510655       6.66478303      -0.00053352      -0.00037172       0.00000187
Se       4.77720826       1.40666661       5.05520003      -0.00026353       0.00037096       0.00046206
Se       2.91862067       4.03510571       8.27436701       0.00026554      -0.00037830      -0.00046504
Se       2.91862130       4.03510570       5.05519928       0.00026646      -0.00037734       0.00046131
Se       4.77720865       1.40666603       8.27436615      -0.00026348       0.00037566      -0.00046632
