9
Lattice="6.064631048811618 -1.421808611131098e-07 3.501416512519711 2.0215435944513835 5.71778880671413 3.5014164336013196 6.336475816261495e-08 -5.184926601276355e-08 7.002832915288477" Properties=species:S:1:pos:R:3:forces:R:3 energy=-42.22468566894531 free_energy=-42.22468566894531 stress="-6.74299881211482e-05 -2.6244215689530392e-08 8.310656163246222e-09 -2.6244215689530392e-08 -6.741155084455386e-05 -2.4233997031331e-09 8.310656163246222e-09 -2.4233997031331e-09 -6.738110823789611e-05" pbc="T T T"
Y        2.02154364       1.42944662       3.50141630      -0.00000076      -0.00000042      -0.00000023
Y        6.06463127       4.28834093      10.50424856       0.00000129      -0.00000400      -0.00000462
Bi      -0.00000018      -0.00000009       0.00000039       0.00000341       0.00000144       0.00000069
Se       2.19197585       1.54996109       7.00283307      -0.00117415      -0.00082798       0.00000131
Se       5.89419859       4.16782827       7.00283318       0.00116900       0.00082947       0.00000107
Se       4.96864306       1.54996104       5.39972385       0.00058984      -0.00082964      -0.00101396
Se       3.11753192       4.16782754       8.60594227      -0.00058721       0.00082933       0.00101482
Se       3.11753169       4.16782730       5.39972360      -0.00058931       0.00083064      -0.00101659
Se       4.96864304       1.54996176       8.60594229       0.00058782      -0.00082874       0.00101761
