9
Lattice="6.491136134767638 -6.275106585278405e-08 3.7476593147951345 2.163711973775795 6.1199018906942 3.74765933555285 6.5710652818306055e-09 3.006934872743928e-08 7.495318618208842" Properties=species:S:1:pos:R:3:forces:R:3 energy=-38.483001708984375 free_energy=-38.483001708984375 stress="-0.00018912742962129414 -4.148617893662276e-09 -1.3576437751794401e-08 -4.148617893662276e-09 -0.00018914596876129508 2.8973737187243387e-08 -1.3576437751794401e-08 2.8973737187243387e-08 -0.00018915117834694684" pbc="T T T"
Y        2.16371187       1.52997517       3.74765948      -0.00000094      -0.00000206       0.00000074
Y        6.49113627       4.58992647      11.24297763      -0.00000071      -0.00000119       0.00000044
Bi       0.00000008       0.00000001       0.00000036       0.00000209      -0.00000044       0.00000019
Te       2.36638396       1.67328611       7.49531827      -0.00266230      -0.00188228       0.00000025
Te       6.28846399       4.44661578       7.49531862       0.00266078       0.00188299      -0.00000087
Te       5.30794388       1.67328621       5.79700823       0.00133097      -0.00188261      -0.00230616
Te       3.34690415       4.44661569       9.19362902      -0.00133097       0.00188322       0.00230552
Te       3.34690407       4.44661551       5.79700835      -0.00133015       0.00188318      -0.00230402
Te       5.30794421       1.67328643       9.19362913       0.00133118      -0.00188076       0.00230356
