9
Lattice="5.772983729904175 -5.6651357000390396e-08 3.3330337658761735 1.9243278317249655 5.44282129015217 3.333033808885868 -4.729423798466094e-08 1.9233839862242026e-08 6.666067613668374" Properties=species:S:1:pos:R:3:forces:R:3 energy=-46.515869140625 free_energy=-46.515869140625 stress="0.00010242938151350245 -2.2977390656819807e-08 6.643139371931284e-10 -2.2977390656819807e-08 0.00010247462341794744 -1.539364724578718e-08 6.643139371931284e-10 -1.539364724578718e-08 0.00010255364759359509" pbc="T T T"
Y        1.92432819       1.36070535       3.33303366       0.00000166       0.00000068      -0.00000027
Y        5.77298351       4.08211601       9.99910154      -0.00000047       0.00000064       0.00000028
Bi       0.00000006      -0.00000005       0.00000038      -0.00000049      -0.00000401      -0.00000943
S        2.03395530       1.43822347       6.66606765      -0.00652629      -0.00461607      -0.00000021
S        5.66335615       4.00459772       6.66606753       0.00652823       0.00461653      -0.00000031
S        4.75600566       1.43822366       5.09449107       0.00326365      -0.00461458      -0.00565203
S        2.94130574       4.00459723       8.23764395      -0.00326839       0.00461984       0.00565846
S        2.94130578       4.00459762       5.09449122      -0.00326376       0.00461622      -0.00565399
S        4.75600564       1.43822392       8.23764385       0.00326571      -0.00461918       0.00565770
