9
Lattice="5.772525420439378 -8.861026589967223e-09 3.3327691012060674 1.9241751341749362 5.442389269606832 3.332769097079042 -2.04979750428181e-09 -6.503977808829908e-09 6.665538205962503" Properties=species:S:1:pos:R:3:forces:R:3 energy=-46.5158576965332 free_energy=-46.5158576965332 stress="8.565364623791538e-06 -5.293096516645335e-10 1.7911268912484957e-08 -5.293096516645335e-10 8.544337106286548e-06 -2.4913877183507793e-08 1.7911268912484957e-08 -2.4913877183507793e-08 8.551577593607362e-06" pbc="T T T"
Y        1.92417510       1.36059762       3.33276923      -0.00000021       0.00000213      -0.00000036
Y        5.77252546       4.08179206       9.99830701      -0.00000076       0.00000014      -0.00000062
Bi       0.00000013      -0.00000000       0.00000005      -0.00000721       0.00000537       0.00000130
S        2.03392116       1.43819916       6.66553826      -0.00710195      -0.00502191       0.00000019
S        5.66277947       4.00418970       6.66553833       0.00710556       0.00502338       0.00000095
S        4.75556477       1.43819964       5.09419657       0.00355244      -0.00502443      -0.00615488
S        2.94113562       4.00418974       8.23687999      -0.00354968       0.00501950       0.00614873
S        2.94113573       4.00418975       5.09419652      -0.00355148       0.00502057      -0.00615042
S        4.75556479       1.43819937       8.23687973       0.00355339      -0.00502481       0.00615510
