9
Lattice="6.06459091976247 7.243878586940591e-08 3.5013932347836634 2.0215303755462517 5.717751166628909 3.5013932336356315 3.8372011686930354e-08 2.572707216069817e-08 7.00278640310503" Properties=species:S:1:pos:R:3:forces:R:3 energy=-42.22468566894531 free_energy=-42.22468566894531 stress="-6.55337207717821e-05 3.1039029124713124e-08 1.554194639652451e-08 3.1039029124713124e-08 -6.555509025929496e-05 -1.3274477517200012e-08 1.554194639652451e-08 -1.3274477517200012e-08 -6.55532639939338e-05" pbc="T T T"
Y        2.02153037       1.42943900       3.50139320      -0.00000012       0.00000566       0.00000128
Y        6.06459075       4.28831253      10.50417911       0.00000004      -0.00000468      -0.00000432
Bi       0.00000042       0.00000011       0.00000029      -0.00000688      -0.00000025      -0.00000714
Se       2.19203297       1.55000129       7.00278629      -0.00193431      -0.00136907      -0.00000170
Se       5.89408814       4.16774994       7.00278688       0.00194005       0.00137027       0.00000325
Se       4.96857484       1.55000151       5.39974923       0.00096876      -0.00136454      -0.00167399
Se       3.11754665       4.16774933       8.60582380      -0.00097032       0.00136593       0.00167707
Se       3.11754669       4.16774945       5.39974915      -0.00096769       0.00136519      -0.00167548
Se       4.96857452       1.55000187       8.60582353       0.00097049      -0.00136855       0.00168127
