9
Lattice="5.619161206014985 8.898371041590058e-08 3.2442242444912432 1.8730537824542444 5.297796115430568 3.244224308193852 1.0802178420555562e-07 1.5440236495353255e-07 6.488448301883296" Properties=species:S:1:pos:R:3:forces:R:3 energy=-46.438758850097656 free_energy=-46.438758850097656 stress="-0.00014014339831192046 3.067101417286722e-08 -3.3133016330566534e-08 3.067101417286722e-08 -0.00014016857312526554 -2.0118795518442312e-08 -3.3133016330566534e-08 -2.0118795518442312e-08 -0.0001400766195729375" pbc="T T T"
Y        1.87305350       1.32444884       3.24422398      -0.00000040      -0.00000097       0.00000026
Y        5.61916126       3.97334720       9.73267345      -0.00000011      -0.00000002       0.00000151
B        0.00000016      -0.00000005       0.00000003       0.00000007       0.00000062       0.00000119
Se       1.79087949       1.26634319       6.48844808       0.00493288       0.00348726      -0.00000026
Se       5.70133550       4.03145330       6.48844828      -0.00493171      -0.00348845      -0.00000124
Se       4.72372170       1.26634324       4.79517140      -0.00246581       0.00348788       0.00427140
Se       2.76849355       4.03145304       8.18172526       0.00246592      -0.00348742      -0.00427110
Se       2.76849364       4.03145331       4.79517150       0.00246567      -0.00348601       0.00427051
Se       4.72372161       1.26634340       8.18172546      -0.00246656       0.00348724      -0.00427180
