9
Lattice="5.314798215757472 -1.0763151332973502e-08 3.0685002521753724 1.7715994184919595 5.010839581062117 3.0685002116677804 7.13825208845525e-08 8.636023349686567e-10 6.137000380712553" Properties=species:S:1:pos:R:3:forces:R:3 energy=-51.12004852294922 free_energy=-51.12004852294922 stress="-0.00026147239259444177 -2.026958689782532e-08 6.094341920004354e-09 -2.026958689782532e-08 -0.00026145088486373425 3.446543273000202e-09 6.094341920004354e-09 3.446543273000202e-09 -0.00026143863215111196" pbc="T T T"
Y        1.77159953       1.25270993       3.06850020       0.00000012       0.00000038       0.00000011
Y        5.31479833       3.75812951       9.20550066      -0.00000004      -0.00000048       0.00000039
B       -0.00000007      -0.00000006      -0.00000008      -0.00000056       0.00000099       0.00000007
S        1.66743046       1.17905128       6.13700039       0.00434086       0.00307003       0.00000033
S        5.41896707       3.83178799       6.13700027      -0.00433844      -0.00306785       0.00000140
S        4.48108294       1.17905174       4.51253737      -0.00216947       0.00306523       0.00375646
S        2.60531482       3.83178828       7.76146359       0.00216912      -0.00306928      -0.00375888
S        2.60531478       3.83178808       4.51253736       0.00216760      -0.00306708       0.00375786
S        4.48108291       1.17905159       7.76146349      -0.00216934       0.00306776      -0.00375777
