9
Lattice="6.076971501468541 -9.585409808172255e-08 3.5085412975688013 2.025657102696397 5.7294236022648946 3.5085412526873734 2.1542347588895478e-08 -3.9735569155518397e-08 7.0170825578251215" Properties=species:S:1:pos:R:3:forces:R:3 energy=-41.06040954589844 free_energy=-41.06040954589844 stress="0.00036646859371103346 2.573680646378307e-08 -2.1310279763042672e-08 2.573680646378307e-08 0.0003664946125354618 -1.214235112456663e-08 -2.1310279763042672e-08 -1.214235112456663e-08 0.00036647284287028015" pbc="T T T"
Y        2.02565711       1.43235602       3.50854135       0.00000064       0.00000172       0.00000014
Y        6.07697146       4.29706757      10.52562345       0.00000008      -0.00000016      -0.00000231
B        0.00000001      -0.00000018       0.00000023      -0.00000151      -0.00000089      -0.00000062
Te       1.92906307       1.36405340       7.01708251      -0.00131842      -0.00093132       0.00000035
Te       6.17356575       4.36537010       7.01708266       0.00131834       0.00093189       0.00000058
Te       5.11243979       1.36405349       5.17915929       0.00065903      -0.00093183      -0.00113964
Te       2.99018877       4.36536998       8.85500590      -0.00065897       0.00093210       0.00114027
Te       2.99018869       4.36536993       5.17915907      -0.00065848       0.00093073      -0.00113928
Te       5.11243987       1.36405361       8.85500599       0.00065944      -0.00093222       0.00114039
