9
Lattice="4.44993326826736 -1.816930944434711e-08 2.5691701646770135 1.483311117161975 4.195437320569237 2.569170086960386 1.0304340055359616e-07 -2.2320349210125577e-08 5.138340150877635" Properties=species:S:1:pos:R:3:forces:R:3 energy=-64.73824310302734 free_energy=-64.73824310302734 stress="0.0006468633655458689 -1.0886502366247441e-08 1.7696548226808773e-08 -1.0886502366247441e-08 0.0006469620275311172 2.6852458034909432e-08 1.7696548226808773e-08 2.6852458034909432e-08 0.0006466966005973518" pbc="T T T"
Y        1.48331116       1.04885921       2.56917034       0.00000368      -0.00000161       0.00000808
Y        4.44993350       3.14657789       7.70751062       0.00000190      -0.00000024       0.00000911
C       -0.00000320       0.00000072      -0.00001225      -0.00011389       0.00002138      -0.00041324
N        1.33802771       0.94612847       5.13834018      -0.00397956      -0.00281656       0.00000164
N        4.59521843       3.24930993       5.13834027       0.00404096       0.00286174      -0.00000146
N        3.78091868       0.94612966       3.72793746       0.00195932      -0.00277412      -0.00339627
N        2.15232315       3.24931150       6.54874760      -0.00205356       0.00290358       0.00355422
N        2.15232660       3.24930655       3.72793896      -0.00193506       0.00274193      -0.00335515
N        3.78092205       0.94612501       6.54874851       0.00207496      -0.00293696       0.00359309
