9
Lattice="4.208490873482843 -1.963495457994345e-08 2.429773237327269 1.4028303186135267 3.967802776955407 2.4297731577142714 7.352129408653309e-08 -4.551820258555451e-08 4.859546347311916" Properties=species:S:1:pos:R:3:forces:R:3 energy=-68.80638122558594 free_energy=-68.80638122558594 stress="9.497603605268523e-05 1.1711677672110454e-07 1.2740612476136448e-07 1.1711677672110454e-07 9.513772238278762e-05 4.834137001807903e-08 1.2740612476136448e-07 4.834137001807903e-08 9.462654270464554e-05" pbc="T T T"
Y        1.40283035       0.99195064       2.42977320      -0.00000037      -0.00000046       0.00000123
Y        4.20849089       2.97585212       7.28931952       0.00000056       0.00000110      -0.00000203
C       -0.00000018      -0.00000027       0.00000011       0.00000357       0.00000004      -0.00000334
O        1.28137129       0.90606618       4.85954634       0.00254500       0.00179672       0.00000116
O        4.32995024       3.06173658       4.85954639      -0.00254357      -0.00179827       0.00000226
O        3.56780553       0.90606614       3.53947291      -0.00127625       0.00180054       0.00221312
O        2.04351590       3.06173676       6.17961971       0.00127316      -0.00180101      -0.00220835
O        2.04351579       3.06173665       3.53947297       0.00127280      -0.00179869       0.00220585
O        3.56780556       0.90606592       6.17961964      -0.00127476       0.00179845      -0.00220847
