9
Lattice="6.096174255443163 -2.841223954681041e-08 3.519627906754334 2.0320581203353307 5.747528036417942 3.5196277994105873 5.9468231730516793e-08 -8.941831133473795e-08 7.039255710506698" Properties=species:S:1:pos:R:3:forces:R:3 energy=-44.53216552734375 free_energy=-44.53216552734375 stress="5.8935100241797045e-05 1.6350629294947794e-08 2.91636759186531e-09 1.6350629294947794e-08 5.8903839089907706e-05 -7.461974149691741e-09 2.91636759186531e-09 -7.461974149691741e-09 5.8908670325763524e-05" pbc="T T T"
Y        2.03205795       1.43688203       3.51962803      -0.00000011      -0.00000009       0.00000017
Y        6.09617419       4.31064600      10.55888321       0.00000014       0.00000004       0.00000010
Co       0.00000031      -0.00000017       0.00000004      -0.00000384      -0.00000200      -0.00000231
Te       2.02210888       1.42984685       7.03925564       0.00213591       0.00151031       0.00000028
Te       6.10612333       4.31768116       7.03925572      -0.00213360      -0.00150864       0.00000037
Te       5.08511993       1.42984659       5.27082557      -0.00106766       0.00151063       0.00185005
Te       3.04311274       4.31768107       8.80768620       0.00106800      -0.00150955      -0.00184954
Te       3.04311255       4.31768122       5.27082538       0.00106837      -0.00151045       0.00185044
Te       5.08511985       1.42984693       8.80768589      -0.00106717       0.00150975      -0.00184964
