9
Lattice="5.343142393240525 4.76744538412113e-09 3.084864682833377 1.7810474483958645 5.037562935548582 3.084864718362022 -7.530723217926808e-09 3.81885097313901e-08 6.169729378710354" Properties=species:S:1:pos:R:3:forces:R:3 energy=-52.995296478271484 free_energy=-52.995296478271484 stress="0.0001616310328245163 -6.6066028203692895e-09 -6.320845624685489e-09 -6.6066028203692895e-09 0.00016163932741619647 -5.848702411270779e-09 -6.320845624685489e-09 -5.848702411270779e-09 0.00016164527914952487" pbc="T T T"
Y        1.78104762       1.25939070       3.08486481       0.00000052      -0.00000002       0.00000022
Y        5.34314235       3.77817219       9.25459411      -0.00000049       0.00000015      -0.00000075
Co      -0.00000004       0.00000007       0.00000017      -0.00000056      -0.00000059       0.00000064
S        1.77993078       1.25860148       6.16972930      -0.00190413      -0.00134572       0.00000054
S        5.34425886       3.77896169       6.16972933       0.00190482       0.00134569      -0.00000070
S        4.45317672       1.25860121       4.62632996       0.00095211      -0.00134623      -0.00164849
S        2.67101311       3.77896157       7.71312870      -0.00095171       0.00134632       0.00164941
S        2.67101294       3.77896171       4.62633014      -0.00095195       0.00134656      -0.00164902
S        4.45317697       1.25860124       7.71312860       0.00095153      -0.00134626       0.00164765
