9
Lattice="4.520420422310309 4.0799231105864485e-08 2.609865942167168 1.5068068380784065 4.261893141590104 2.6098659557191257 4.382770500601072e-08 4.7588536832902493e-08 5.219731808422531" Properties=species:S:1:pos:R:3:forces:R:3 energy=-69.48450469970703 free_energy=-69.48450469970703 stress="-0.00038268009666353464 -1.0808281353247295e-10 2.778458707553e-08 -1.0808281353247295e-10 -0.00038283257163129747 -2.0705883230220934e-08 2.778458707553e-08 -2.0705883230220934e-08 -0.0003829328634310514" pbc="T T T"
Y        1.50680688       1.06547329       2.60986568       0.00000270       0.00000107       0.00000059
Y        4.52042081       3.19642027       7.82959788      -0.00000006      -0.00000021      -0.00000108
Cr       0.00000032       0.00000019      -0.00000017      -0.00000624      -0.00000650       0.00000672
O        1.48556489       1.05045274       5.21973185       0.00430074       0.00304262       0.00000160
O        4.54166225       3.21144024       5.21973174      -0.00429201      -0.00303529       0.00000100
O        3.77763809       1.05045314       3.89640264      -0.00214642       0.00303626       0.00372386
O        2.24958902       3.21144045       6.54306123       0.00214949      -0.00304320      -0.00372733
O        2.24958909       3.21143998       3.89640278       0.00214304      -0.00303479       0.00372043
O        3.77763805       1.05045281       6.54306128      -0.00215200       0.00304016      -0.00372732
