9
Lattice="5.39676288576872 -3.241297041476227e-08 3.1158224963177963 1.7989209102947328 5.088116902595423 3.1158225328102387 -6.7531879196090845e-09 3.991872879925629e-08 6.231645004332453" Properties=species:S:1:pos:R:3:forces:R:3 energy=-56.1029052734375 free_energy=-56.1029052734375 stress="7.942447700770572e-05 -8.06343525283637e-09 1.4064954534376284e-08 -8.06343525283637e-09 7.938895578263327e-05 -2.440957302951574e-08 1.4064954534376284e-08 -2.440957302951574e-08 7.940854993648827e-05" pbc="T T T"
Y        1.79892091       1.27202926       3.11582248       0.00000019      -0.00000108      -0.00000055
Y        5.39676278       3.81608826       9.34746733       0.00000030       0.00000067       0.00000055
Cr      -0.00000022       0.00000022       0.00000007       0.00000329      -0.00000202       0.00000177
S        1.82516870       1.29058912       6.23164510       0.00002110       0.00001460       0.00000007
S        5.37051512       3.79752767       6.23164507      -0.00002173      -0.00001580       0.00000021
S        4.48417843       1.29058897       4.69646503      -0.00001130       0.00001532       0.00001922
S        2.71150547       3.79752776       7.76682506       0.00001059      -0.00001490      -0.00001782
S        2.71150535       3.79752744       4.69646506       0.00000924      -0.00001273       0.00001562
S        4.48417860       1.29058902       7.76682506      -0.00001207       0.00001603      -0.00001946
