9
Lattice="6.161939015668027 -1.091160300326823e-08 3.5575971910070043 2.0539796758534243 5.809531843327879 3.557597166322408 -1.7912291338597365e-09 -3.1498898439563166e-08 7.115194385116501" Properties=species:S:1:pos:R:3:forces:R:3 energy=-46.76625061035156 free_energy=-46.76625061035156 stress="0.0003249764849897474 -1.7018034981219898e-08 -8.344318125352856e-09 -1.7018034981219898e-08 0.000324972061207518 3.9605474455584044e-09 -8.344318125352856e-09 3.9605474455584044e-09 0.0003249633882660419" pbc="T T T"
Y        2.05398005       1.45238269       3.55759726       0.00000069      -0.00000091      -0.00000004
Y        6.16193886       4.35714894      10.67279158      -0.00000045       0.00000082       0.00000001
Cr      -0.00000000       0.00000012      -0.00000008       0.00000128       0.00000095       0.00000033
Te       2.09315672       1.48008504       7.11519434       0.00076106       0.00053934      -0.00000013
Te       6.12276202       4.32944693       7.11519449      -0.00076285      -0.00054012       0.00000007
Te       5.11536057       1.48008505       5.37032413      -0.00038023       0.00053898       0.00065848
Te       3.10055789       4.32944675       8.86006464       0.00038078      -0.00054004      -0.00065907
Te       3.10055804       4.32944657       5.37032409       0.00038050      -0.00053921       0.00065887
Te       5.11536065       1.48008514       8.86006454      -0.00038075       0.00054014      -0.00065837
