9
Lattice="5.672867659132918 -6.0833169249628e-08 3.275231645058802 1.8909558194641998 5.348430838371256 3.275231661616122 -3.568091940805736e-08 -4.951716581698066e-09 6.55046335191876" Properties=species:S:1:pos:R:3:forces:R:3 energy=-51.27716064453125 free_energy=-51.27716064453125 stress="9.472608508076519e-05 1.0550618156912606e-08 1.125463189310949e-08 1.0550618156912606e-08 9.47218359215185e-05 -3.592636588223286e-08 1.125463189310949e-08 -3.592636588223286e-08 9.471610974287614e-05" pbc="T T T"
Y        1.89095503       1.33710712       3.27523182      -0.00000234      -0.00000223       0.00000001
Y        5.67286807       4.01132328       9.82569468       0.00000099       0.00000148       0.00000049
Cr       0.00000025       0.00000009       0.00000012      -0.00000772       0.00000316       0.00000152
Se       1.93235762       1.36638308       6.55046338      -0.00483783      -0.00341936       0.00000094
Se       5.63146579       3.98204713       6.55046370       0.00484122       0.00342524      -0.00000001
Se       4.70668870       1.36638345       4.94870279       0.00242187      -0.00342410      -0.00419353
Se       2.85713461       3.98204795       8.15222410      -0.00241864       0.00341938       0.00418366
Se       2.85713498       3.98204745       4.94870226      -0.00241948       0.00342242      -0.00418773
Se       4.70668878       1.36638354       8.15222385       0.00242178      -0.00342594       0.00419486
