9
Lattice="4.515289529936878 6.274885987650642e-08 2.606903689762107 1.5050966051702865 4.257055695933043 2.6069036273543365 -5.0897049640136145e-08 -1.1242324742700058e-07 5.213807467680518" Properties=species:S:1:pos:R:3:forces:R:3 energy=-70.94673919677734 free_energy=-70.94673919677734 stress="-7.14088455424644e-05 -3.220310063056786e-08 -5.101440603283436e-09 -3.220310063056786e-08 -7.15444257366471e-05 -7.46596455769577e-08 -5.101440603283436e-09 -7.46596455769577e-08 -7.13462068233639e-05" pbc="T T T"
Y        1.50509657       1.06426398       2.60690390       0.00000080      -0.00000111      -0.00000101
Y        4.51528965       3.19279167       7.82071114      -0.00000155      -0.00000041      -0.00000023
Cr       0.00000038      -0.00000008       0.00000012       0.00000118       0.00000194      -0.00000341
N        1.51950803       1.07445464       5.21380747      -0.00047660      -0.00033700       0.00000074
N        4.50087815       3.18260119       5.21380714       0.00047243       0.00033456      -0.00000057
N        3.75553539       1.07445439       3.92283613       0.00023776      -0.00033534      -0.00041068
N        2.26485083       3.18260114       6.50477840      -0.00023800       0.00033951       0.00041246
N        2.26485060       3.18260089       3.92283627      -0.00023711       0.00033754      -0.00041306
N        3.75553514       1.07445469       6.50477841       0.00024092      -0.00033921       0.00041497
