9
Lattice="5.287696737018749 -2.1315426363786674e-07 3.052853246850049 1.7625654381700844 4.985288327413557 3.0528531427060304 -1.1160050037035791e-07 -2.0646336483850784e-07 6.105706686997846" Properties=species:S:1:pos:R:3:forces:R:3 energy=-50.35273361206055 free_energy=-50.35273361206055 stress="-0.0003632066654972732 6.697586041326531e-09 5.178960815754863e-09 6.697586041326531e-09 -0.0003632687730714679 -6.074642566744615e-09 5.178960815754863e-09 -6.074642566744615e-09 -0.0003632257867138833" pbc="T T T"
Y        1.76256566       1.24632165       3.05285315       0.00000080       0.00000064       0.00000076
Y        5.28769665       3.73896608       9.15856012      -0.00000026       0.00000007       0.00000058
C       -0.00000021       0.00000093       0.00000304      -0.00000021       0.00001924       0.00005315
S        1.64161924       1.16080000       6.10570668       0.00668618       0.00472844       0.00000041
S        5.40864230       3.82448762       6.10570659      -0.00669521      -0.00473422       0.00000014
S        4.46688717       1.16079948       4.47453676      -0.00333518       0.00471646       0.00577682
S        2.58337584       3.82448682       7.73687431       0.00335497      -0.00474645      -0.00581181
S        2.58337518       3.82448826       4.47453723       0.00333931      -0.00472352       0.00578520
S        4.46688637       1.16080066       7.73687476      -0.00335063       0.00473942      -0.00580427
