9
Lattice="6.060581161027104 -1.6254139475539317e-08 3.499078181295195 2.020193698918784 5.713970926053729 3.499078191859063 8.72584546483888e-09 1.910813094516567e-08 6.998156347476796" Properties=species:S:1:pos:R:3:forces:R:3 energy=-46.031837463378906 free_energy=-46.031837463378906 stress="-6.280050001805648e-05 -8.894758707356232e-09 5.9923928041882846e-09 -8.894758707356232e-09 -6.28042034804821e-05 -1.1921412301774126e-08 5.9923928041882846e-09 -1.1921412301774126e-08 -6.279977969825268e-05" pbc="T T T"
Y        2.02019304       1.42849350       3.49907806      -0.00000066       0.00000103       0.00000016
Y        6.06058121       4.28547769      10.49723542       0.00000023      -0.00000008       0.00000086
Fe      -0.00000019      -0.00000015      -0.00000000       0.00000010       0.00000289      -0.00000127
Te       1.96686602       1.39078465       6.99815629       0.00531065       0.00375490      -0.00000082
Te       6.11390906       4.32318634       6.99815609      -0.00531293      -0.00375597       0.00000037
Te       5.07714849       1.39078468       5.20243446      -0.00265556       0.00375513       0.00459821
Te       3.00362661       4.32318632       8.79387834       0.00265682      -0.00375667      -0.00460060
Te       3.00362701       4.32318632       5.20243410       0.00265595      -0.00375567       0.00459980
Te       5.07714814       1.39078437       8.79387806      -0.00265470       0.00375446      -0.00459669
