9
Lattice="5.347525088688797 1.0638573069649846e-07 3.0873952189578127 1.7825084226214527 5.041695374165996 3.087395289237947 7.808236457755003e-09 9.159646153682082e-08 6.17479042439134" Properties=species:S:1:pos:R:3:forces:R:3 energy=-54.682655334472656 free_energy=-54.682655334472656 stress="-0.0004487165133468807 -3.765642730968466e-08 -1.303386198969747e-08 -3.765642730968466e-08 -0.0004487219266593456 -2.436650881065816e-08 -1.303386198969747e-08 -2.436650881065816e-08 -0.00044864037772640586" pbc="T T T"
Y        1.78250815       1.26042400       3.08739524      -0.00000049       0.00000045       0.00000032
Y        5.34752496       3.78127191       9.26218568      -0.00000085       0.00000071       0.00000129
Fe       0.00000009      -0.00000020       0.00000008       0.00000159       0.00000283      -0.00000195
S        1.76978239       1.25142517       6.17479046      -0.00067472      -0.00047794       0.00000043
S        5.36025134       3.79027048       6.17479044       0.00067246       0.00047678      -0.00000066
S        4.46263403       1.25142526       4.62007189       0.00033849      -0.00047821      -0.00058633
S        2.66739957       3.79027008       7.72950921      -0.00033781       0.00047734       0.00058487
S        2.66739955       3.79027022       4.62007177      -0.00033817       0.00047946      -0.00058600
S        4.46263396       1.25142545       7.72950896       0.00033972      -0.00048119       0.00058728
