9
Lattice="4.526605151328024 4.751510704204441e-08 2.61343678588798 1.5088683654849109 4.267724462386197 2.613436895160894 -7.24147577753303e-08 8.26265171209576e-08 5.226873697202008" Properties=species:S:1:pos:R:3:forces:R:3 energy=-66.208984375 free_energy=-66.208984375 stress="-0.0002127523475792259 4.7085251253520255e-09 -8.438593823711926e-08 4.7085251253520255e-09 -0.0002127993939211592 -1.9848394927635127e-08 -8.438593823711926e-08 -1.9848394927635127e-08 -0.0002126728359144181" pbc="T T T"
Y        1.50886859       1.06693072       2.61343687      -0.00000147      -0.00000095      -0.00000100
Y        4.52660511       3.20079312       7.84031045       0.00000035       0.00000025      -0.00000094
Fe      -0.00000001       0.00000050      -0.00000020      -0.00000046      -0.00001032       0.00000256
O        1.48706239       1.05151218       5.22687382       0.00178620       0.00126353       0.00000140
O        4.54841052       3.21621258       5.22687368      -0.00178035      -0.00125672      -0.00000295
O        3.78307369       1.05151198       3.90127103      -0.00088994       0.00125970       0.00154090
O        2.25239961       3.21621251       6.55247633       0.00088793      -0.00125822      -0.00153887
O        2.25239977       3.21621243       3.90127106       0.00089082      -0.00125946       0.00154133
O        3.78307404       1.05151233       6.55247661      -0.00089355       0.00126235      -0.00154117
