9
Lattice="5.684938210154397 9.254978685974844e-08 3.2822004398440856 1.8949794718682607 5.359811234698571 3.282200472360468 -2.492675087426511e-08 2.2198436957688853e-08 6.564400922862494" Properties=species:S:1:pos:R:3:forces:R:3 energy=-50.011741638183594 free_energy=-50.011741638183594 stress="-2.124162892869208e-05 -4.6332882419619636e-08 3.6651755408456665e-08 -4.6332882419619636e-08 -2.1197232854319736e-05 1.7502279625603023e-09 3.6651755408456665e-08 1.7502279625603023e-09 -2.1237743567326106e-05" pbc="T T T"
Y        1.89497975       1.33995322       3.28220027       0.00000248       0.00000104      -0.00000120
Y        5.68493800       4.01985820       9.84660172      -0.00000169      -0.00000139       0.00000171
Fe      -0.00000010      -0.00000020       0.00000016      -0.00000212       0.00000133      -0.00000670
Se       1.86285616       1.31723813       6.56440121       0.00072816       0.00051406       0.00000016
Se       5.71706156       4.04257307       6.56440071      -0.00072497      -0.00051436       0.00000153
Se       4.75351003       1.31723870       4.89548084      -0.00036582       0.00051504       0.00062662
Se       2.82640773       4.04257272       8.23332057       0.00036021      -0.00051200      -0.00062627
Se       2.82640758       4.04257303       4.89548110       0.00036426      -0.00051436       0.00063014
Se       4.75350993       1.31723855       8.23332055      -0.00036032       0.00051063      -0.00062591
