9
Lattice="4.473241989697515 -1.376872016134768e-07 2.582627088887214 1.4910806649730772 4.217411731125437 2.582626861030215 2.1294623898825165e-07 -1.284909874272988e-07 5.165253808940738" Properties=species:S:1:pos:R:3:forces:R:3 energy=-60.635169982910156 free_energy=-60.635169982910156 stress="0.0002699482429306954 -2.8606246260665102e-08 1.0428420438302055e-07 -2.8606246260665102e-08 0.0002695218427106738 -1.7764796211849898e-07 1.0428420438302055e-07 -1.7764796211849898e-07 0.00026970551698468626" pbc="T T T"
Y        1.49108082       1.05435279       2.58262684       0.00000042      -0.00000070       0.00000259
Y        4.47324200       3.16305883       7.74788096       0.00000146      -0.00000269      -0.00000178
Ga       0.00000005       0.00000019      -0.00000010       0.00000837       0.00001081      -0.00000008
N        1.50782763       1.06619503       5.16525410       0.00013429       0.00009404      -0.00000109
N        4.45649601       3.15121682       5.16525416      -0.00014646      -0.00010075      -0.00000012
N        3.71932830       1.06619446       3.88844392      -0.00007057       0.00010107       0.00012302
N        2.24499417       3.15121666       6.44206409       0.00007294      -0.00010112      -0.00012735
N        2.24499412       3.15121662       3.88844311       0.00006776      -0.00009627       0.00012012
N        3.71932845       1.06619471       6.44206400      -0.00006797       0.00009564      -0.00011548
