9
Lattice="6.28140497517678 5.2765371362676564e-08 3.626570741946541 2.0938017275715946 5.9221653227874755 3.626570708289874 2.8634056055073012e-08 -2.0973454147649815e-08 7.2531414342974045" Properties=species:S:1:pos:R:3:forces:R:3 energy=-39.35314178466797 free_energy=-39.35314178466797 stress="-4.1576106013963e-05 -7.546200997410324e-09 5.166317929017339e-10 -7.546200997410324e-09 -4.157139119342901e-05 -1.8309223026591326e-09 5.166317929017339e-10 -1.8309223026591326e-09 -4.157794683123939e-05" pbc="T T T"
Y        2.09380193       1.48054102       3.62657052      -0.00000064      -0.00000154      -0.00000080
Y        6.28140513       4.44162401      10.87971190       0.00000033      -0.00000001      -0.00000006
Ga       0.00000001       0.00000003      -0.00000045      -0.00000290      -0.00000058       0.00000176
Te       2.18978558       1.54841209       7.25314172       0.00018610       0.00013181       0.00000126
Te       6.18542098       4.37375315       7.25314161      -0.00018348      -0.00012943       0.00000063
Te       5.18651214       1.54841237       5.52298076      -0.00009242       0.00012983       0.00015812
Te       3.18869445       4.37375333       8.98330240       0.00009328      -0.00013107      -0.00016020
Te       3.18869439       4.37375333       5.52298066       0.00009227      -0.00013026       0.00015910
Te       5.18651235       1.54841210       8.98330237      -0.00009260       0.00013142      -0.00015993
