9
Lattice="5.447204591754129 -2.6010877007854707e-09 3.1449450584035743 1.8157348410467815 5.135673920906036 3.1449450937701893 -2.8857970132540565e-08 2.2909463476231568e-08 6.289890166790637" Properties=species:S:1:pos:R:3:forces:R:3 energy=-47.99203872680664 free_energy=-47.99203872680664 stress="4.065996836288832e-05 -3.381706648042382e-08 1.2246722747022432e-08 -3.381706648042382e-08 4.067951158504002e-05 -2.0267194589251858e-09 1.2246722747022432e-08 -2.0267194589251858e-09 4.073201853316277e-05" pbc="T T T"
Y        1.81573530       1.28391855       3.14494516       0.00000150      -0.00000020      -0.00000023
Y        5.44720454       3.85175496       9.43483531       0.00000024      -0.00000127       0.00000046
Ga       0.00000001       0.00000032       0.00000010      -0.00000229      -0.00000586      -0.00000217
S        1.86753852       1.32054928       6.28989018      -0.00153449      -0.00108597      -0.00000120
S        5.39540030       3.81512458       6.28988985       0.00154251       0.00109044       0.00000059
S        4.51343521       1.32054968       4.76228113       0.00076754      -0.00108683      -0.00133237
S        2.74950426       3.81512430       7.81749904      -0.00077190       0.00108947       0.00133717
S        2.74950460       3.81512448       4.76228123      -0.00077240       0.00108917      -0.00133628
S        4.51343487       1.32054959       7.81749922       0.00076956      -0.00108895       0.00133362
