9
Lattice="5.447205137683021 -1.0942336681541525e-07 3.144945386455133 1.815734960591456 5.135674169562815 3.144945355516374 3.579102610348464e-08 -1.2583919837727635e-08 6.289890710918301" Properties=species:S:1:pos:R:3:forces:R:3 energy=-47.99203872680664 free_energy=-47.99203872680664 stress="4.0853701648302376e-05 -2.7787050882466247e-08 -5.522297064075588e-10 -2.7787050882466247e-08 4.091047958354466e-05 -2.6779106931940078e-08 -5.522297064075588e-10 -2.6779106931940078e-08 4.0952912968350574e-05" pbc="T T T"
Y        1.81573513       1.28391866       3.14494530      -0.00000031      -0.00000066      -0.00000012
Y        5.44720520       3.85175523       9.43483566       0.00000016      -0.00000058      -0.00000069
Ga       0.00000002      -0.00000023       0.00000029       0.00000239       0.00000145      -0.00000849
S        1.86753907       1.32054938       6.28989067      -0.00154188      -0.00109063       0.00000008
S        5.39540107       3.81512498       6.28989089       0.00153959       0.00108810      -0.00000055
S        4.51343533       1.32054942       4.76228157       0.00076905      -0.00108695      -0.00133309
S        2.74950471       3.81512445       7.81749981      -0.00077294       0.00109358       0.00133878
S        2.74950460       3.81512447       4.76228171      -0.00076930       0.00108913      -0.00133488
S        4.51343535       1.32054975       7.81749981       0.00077318      -0.00109364       0.00133845
