9
Lattice="5.749435028887168 4.0379165364728877e-08 3.319437881662859 1.9164783394461544 5.42061929193719 3.319437953692112 -3.2554831130372127e-08 6.519773958592468e-08 6.638875819712368" Properties=species:S:1:pos:R:3:forces:R:3 energy=-43.51963806152344 free_energy=-43.51963806152344 stress="-6.964443309698254e-05 -1.0863606014765992e-08 1.454854547944251e-08 -1.0863606014765992e-08 -6.96579591021873e-05 -9.863068584081702e-09 1.454854547944251e-08 -9.863068584081702e-09 -6.963688065297902e-05" pbc="T T T"
Y        1.91647835       1.35515495       3.31943810      -0.00000041       0.00000082       0.00000071
Y        5.74943534       4.06546453       9.95831363       0.00000107      -0.00000050       0.00000010
Ga      -0.00000014       0.00000017      -0.00000010      -0.00000201      -0.00000215      -0.00000049
Se       1.99714054       1.41219176       6.63887602      -0.00062507      -0.00044200      -0.00000052
Se       5.66877225       4.00842745       6.63887578       0.00062948       0.00044565      -0.00000050
Se       4.75086499       1.41219196       5.04901280       0.00031248      -0.00044315      -0.00054187
Se       2.91504861       4.00842751       8.22873866      -0.00031418       0.00044413       0.00054367
Se       2.91504879       4.00842697       5.04901269      -0.00031433       0.00044267      -0.00054426
Se       4.75086460       1.41219227       8.22873915       0.00031286      -0.00044523       0.00054318
