9
Lattice="4.476184869524104 -3.564908879508932e-08 2.584326708608411 1.4920615530965609 4.220187855292935 2.5843267717726213 -4.868171381064306e-08 4.293686830709855e-08 5.168653501536033" Properties=species:S:1:pos:R:3:forces:R:3 energy=-62.64754867553711 free_energy=-62.64754867553711 stress="4.391532274894416e-05 1.1958436019199326e-08 -6.04888761301936e-09 1.1958436019199326e-08 4.392840855871327e-05 1.7948854846849827e-08 -6.04888761301936e-09 1.7948854846849827e-08 4.390764297568239e-05" pbc="T T T"
Y        1.49206158       1.05504691       2.58432664      -0.00000142       0.00000026      -0.00000037
Y        4.47618467       3.16514077       7.75298009       0.00000083      -0.00000031      -0.00000048
Ga      -0.00000016      -0.00000005       0.00000018       0.00000227       0.00000369      -0.00000536
O        1.55397598       1.09882729       5.16865363      -0.00051457      -0.00036490      -0.00000204
O        4.41427070       3.12136089       5.16865371       0.00051069       0.00036097      -0.00000057
O        3.69919694       1.09882696       3.93010978       0.00025398      -0.00035924      -0.00044644
O        2.26904958       3.12136075       6.40719705      -0.00025696       0.00036621       0.00044936
O        2.26904952       3.12136116       3.93010958      -0.00025299       0.00035822      -0.00044382
O        3.69919660       1.09882698       6.40719720       0.00025851      -0.00036401       0.00044978
