9
Lattice="6.281404518943252 -7.894511031471835e-09 3.6265705375920536 2.0938015112264243 5.922164983056235 3.6265705161925226 1.952945119329126e-08 -1.2399581742224294e-08 7.2531410413581066" Properties=species:S:1:pos:R:3:forces:R:3 energy=-39.35314178466797 free_energy=-39.35314178466797 stress="-4.169144813204184e-05 1.087761969387202e-08 -2.8652050892453984e-13 1.087761969387202e-08 -4.1679784771986306e-05 -8.293193687336498e-09 -2.8652050892453984e-13 -8.293193687336498e-09 -4.1690494981594384e-05" pbc="T T T"
Y        2.09380160       1.48054113       3.62657039      -0.00000039      -0.00000004      -0.00000004
Y        6.28140463       4.44162370      10.87971162      -0.00000009       0.00000036      -0.00000050
Ga       0.00000002      -0.00000004      -0.00000038      -0.00000106      -0.00000031       0.00000483
Te       2.18978556       1.54841204       7.25314129       0.00018579       0.00013185       0.00000190
Te       6.18542049       4.37375281       7.25314107      -0.00018328      -0.00013091       0.00000142
Te       5.18651157       1.54841232       5.52298044      -0.00009172       0.00012816       0.00015850
Te       3.18869421       4.37375285       8.98330172       0.00009406      -0.00013261      -0.00016208
Te       3.18869429       4.37375299       5.52298054       0.00008997      -0.00012910       0.00015892
Te       5.18651186       1.54841204       8.98330167      -0.00009324       0.00013267      -0.00016291
