9
Lattice="4.476184823435974 5.3248997088763876e-08 2.584326730309859 1.4920616402650615 4.220187807587757 2.584326761054727 1.8974917189365693e-08 5.107188914480727e-08 5.168653427754208" Properties=species:S:1:pos:R:3:forces:R:3 energy=-62.64754867553711 free_energy=-62.64754867553711 stress="4.3937172449659556e-05 6.253235262931867e-09 3.3309841551698582e-09 6.253235262931867e-09 4.395440191728994e-05 1.9728387812278925e-08 3.3309841551698582e-09 1.9728387812278925e-08 4.383491614134982e-05" pbc="T T T"
Y        1.49206176       1.05504702       2.58432685      -0.00000139      -0.00000024      -0.00000022
Y        4.47618473       3.16514086       7.75298012       0.00000120      -0.00000012       0.00000035
Ga      -0.00000015      -0.00000009       0.00000028       0.00000311       0.00000195      -0.00000710
O        1.55397591       1.09882711       5.16865354      -0.00051522      -0.00036377      -0.00000001
O        4.41427087       3.12136085       5.16865345       0.00051314       0.00036132      -0.00000038
O        3.69919682       1.09882690       3.93010965       0.00025699      -0.00036240      -0.00044525
O        2.26904977       3.12136075       6.40719697      -0.00025979       0.00036681       0.00045055
O        2.26904953       3.12136111       3.93010958      -0.00025609       0.00036150      -0.00044608
O        3.69919681       1.09882710       6.40719732       0.00025818      -0.00036502       0.00044858
