9
Lattice="5.749434561914792 4.639653235850271e-08 3.319437551116241 1.916478167324131 5.4206188640441875 3.319437661489205 -5.782139347447773e-08 9.42928094915302e-08 6.638875202382109" Properties=species:S:1:pos:R:3:forces:R:3 energy=-43.5196418762207 free_energy=-43.5196418762207 stress="-6.976623262744397e-05 -3.36123306965419e-08 5.673614911216873e-09 -3.36123306965419e-08 -6.977095472393557e-05 -2.12706829927356e-09 5.673614911216873e-09 -2.12706829927356e-09 -6.975745054660365e-05" pbc="T T T"
Y        1.91647801       1.35515448       3.31943717       0.00000031      -0.00000029      -0.00000053
Y        5.74943438       4.06546367       9.95831201      -0.00000027      -0.00000194      -0.00000218
Ga      -0.00000010       0.00000004       0.00000007       0.00000030       0.00000076      -0.00000327
Se       1.99714059       1.41219190       6.63887552      -0.00062907      -0.00044438       0.00000016
Se       5.66877215       4.00842710       6.63887583       0.00062728       0.00044486       0.00000039
Se       4.75086425       1.41219209       5.04901238       0.00031401      -0.00044420      -0.00054522
Se       2.91504881       4.00842699       8.22873806      -0.00031520       0.00044711       0.00054583
Se       2.91504853       4.00842706       5.04901262      -0.00031404       0.00044455      -0.00054431
Se       4.75086410       1.41219263       8.22873802       0.00031662      -0.00044657       0.00054887
