9
Lattice="5.548868551085657 4.0722140555049683e-10 3.2036408827112366 1.8496228236347325 5.231523550497209 3.20364092966899 6.292111261764414e-09 6.196046646223482e-08 6.4072817545241785" Properties=species:S:1:pos:R:3:forces:R:3 energy=-49.407623291015625 free_energy=-49.407623291015625 stress="-0.0002584572066552937 -1.507320313010041e-08 3.679293536507089e-09 -1.507320313010041e-08 -0.0002584340691100806 -7.210739561003265e-09 3.679293536507089e-09 -7.210739561003265e-09 -0.0002584417525213212" pbc="T T T"
Y        1.84962289       1.30788102       3.20364100      -0.00000001       0.00000151       0.00000067
Y        5.54886855       3.92364277       9.61092259       0.00000098      -0.00000017      -0.00000055
Ge      -0.00000004       0.00000003       0.00000011      -0.00000041      -0.00000038       0.00000176
S        1.87762266       1.32767976       6.40728161      -0.00708282      -0.00500923      -0.00000078
S        5.52086883       3.90384382       6.40728181       0.00708222       0.00500914       0.00000003
S        4.61005726       1.32767984       4.82970997       0.00354269      -0.00500965      -0.00613514
S        2.78843401       3.90384376       7.98485355      -0.00354213       0.00500789       0.00613567
S        2.78843402       3.90384370       4.82971002      -0.00354180       0.00500897      -0.00613558
S        4.61005728       1.32767978       7.98485359       0.00354120      -0.00500819       0.00613371
