9
Lattice="6.283557914649804 4.747329076744515e-09 3.627813866040488 2.094519281664624 5.924195183272052 3.627813914008734 -1.4973752613616342e-08 4.81608145108967e-08 7.255627758016333" Properties=species:S:1:pos:R:3:forces:R:3 energy=-40.36369705200195 free_energy=-40.36369705200195 stress="-0.00011591611837502569 -6.3944587402886555e-09 -4.9739771329493365e-11 -6.3944587402886555e-09 -0.00011591587099246681 4.931322461487753e-09 -4.9739771329493365e-11 4.931322461487753e-09 -0.00011591326619964093" pbc="T T T"
Y        2.09451882       1.48104820       3.62781378      -0.00000120      -0.00000193      -0.00000051
Y        6.28355818       4.44314704      10.88344163       0.00000105       0.00000179       0.00000019
Ge      -0.00000020      -0.00000005       0.00000011       0.00000053      -0.00000062      -0.00000174
Te       2.19416221       1.55150657       7.25562792      -0.00002100      -0.00001572       0.00000117
Te       6.18391510       4.37268872       7.25562807       0.00002116       0.00001587      -0.00000003
Te       5.18647713       1.55150679       5.52801400       0.00001132      -0.00001512      -0.00001831
Te       3.19160024       4.37268863       8.98324140      -0.00001190       0.00001647       0.00001939
Te       3.19160024       4.37268839       5.52801396      -0.00001106       0.00001565      -0.00001878
Te       5.18647703       1.55150663       8.98324132       0.00001119      -0.00001630       0.00001858
