9
Lattice="4.474309986950697 -7.937025882701573e-08 2.583244004315691 1.4914366939649695 4.218419547975774 2.583243819888628 7.989609940793175e-08 -1.6938109919478162e-07 5.1664878702473676" Properties=species:S:1:pos:R:3:forces:R:3 energy=-62.4292106628418 free_energy=-62.4292106628418 stress="0.0001621640840312466 -3.715294383255241e-08 -1.4307869555807429e-08 -3.715294383255241e-08 0.00016234141367021948 -8.729382727779011e-08 -1.4307869555807429e-08 -8.729382727779011e-08 0.00016241231060121208" pbc="T T T"
Y        1.49143647       1.05460470       2.58324385       0.00000306       0.00000013       0.00000129
Y        4.47430992       3.16381431       7.74973185       0.00000166       0.00000137      -0.00000229
Ge       0.00000016      -0.00000029      -0.00000009       0.00000078       0.00000183       0.00000256
N        1.53041841       1.08216843       5.16648790      -0.00018191      -0.00012970       0.00000101
N        4.43532882       3.13625085       5.16648766       0.00017834       0.00012833       0.00000033
N        3.70910099       1.08216916       3.90862525       0.00009173      -0.00013256      -0.00016081
N        2.25664548       3.13625034       6.42435105      -0.00009173       0.00012946       0.00016057
N        2.25664562       3.13625054       3.90862484      -0.00009364       0.00013107      -0.00016230
N        3.70910122       1.08216875       6.42435092       0.00009167      -0.00012958       0.00015938
