9
Lattice="4.522759573381799 8.950369331686731e-08 2.6112162762937983 1.5075866147999109 4.264098489990125 2.611216265980455 7.83579099487889e-08 4.277619665416753e-08 5.222432416867686" Properties=species:S:1:pos:R:3:forces:R:3 energy=-66.21920776367188 free_energy=-66.21920776367188 stress="-9.81755365501158e-05 -2.5653136503933638e-08 2.3988974362509907e-08 -2.5653136503933638e-08 -9.841184510150924e-05 -1.0011709150603565e-07 2.3988974362509907e-08 -1.0011709150603565e-07 -9.82237106654793e-05" pbc="T T T"
Y        1.50758630       1.06602490       2.61121666      -0.00000110       0.00000213       0.00000161
Y        4.52275959       3.19807448       7.83364913       0.00000046      -0.00000149      -0.00000004
Ge       0.00000011       0.00000005       0.00000004       0.00000204      -0.00000089      -0.00000169
O        1.52729153       1.07995794       5.22243218      -0.00160563      -0.00113732       0.00000067
O        4.50305500       3.18414035       5.22243236       0.00160468       0.00113553      -0.00000065
O        3.75911397       1.07995791       3.93388899       0.00080299      -0.00113577      -0.00138843
O        2.27123239       3.18414054       6.51097575      -0.00080377       0.00113648       0.00139022
O        2.27123219       3.18414026       3.93388894      -0.00080347       0.00113803      -0.00138998
O        3.75911415       1.07995806       6.51097579       0.00080347      -0.00113600       0.00138903
