9
Lattice="5.811747987981742 -6.171802630413693e-09 3.3554143395001876 1.9372493298199691 5.479368500030246 3.3554143285682834 4.585490611664628e-08 1.9035549020001592e-08 6.710828599577309" Properties=species:S:1:pos:R:3:forces:R:3 energy=-44.77980422973633 free_energy=-44.77980422973633 stress="-0.0001549157314002514 8.35026270351591e-09 -8.631951819992878e-10 8.35026270351591e-09 -0.0001549333828734234 -2.8161517562352856e-10 -8.631951819992878e-10 -2.8161517562352856e-10 -0.00015494308900088072" pbc="T T T"
Y        1.93724886       1.36984216       3.35541460      -0.00000124       0.00000035       0.00000124
Y        5.81174808       4.10952675      10.06624296      -0.00000147       0.00000065       0.00000005
Ge       0.00000003       0.00000005      -0.00000016      -0.00000150      -0.00000250       0.00000039
Se       1.98653282       1.40469052       6.71082826      -0.00042759      -0.00030322      -0.00000031
Se       5.76246469       4.07467769       6.71082858       0.00043288       0.00030531       0.00000032
Se       4.81848173       1.40469077       5.07580190       0.00021378      -0.00030459      -0.00037031
Se       2.93051570       4.07467779       8.34585567      -0.00021445       0.00030313       0.00037089
Se       2.93051576       4.07467785       5.07580206      -0.00021447       0.00030440      -0.00037196
Se       4.81848184       1.40469045       8.34585524       0.00021429      -0.00030376       0.00036937
