9
Lattice="6.368405235066779 -1.4678613348327635e-08 3.676800482025135 2.1228017106591173 6.004190065750841 3.676800517573765 -1.9376245642085765e-08 2.9836929997612706e-08 7.353600997610914" Properties=species:S:1:pos:R:3:forces:R:3 energy=-48.026187896728516 free_energy=-48.026187896728516 stress="-0.00010919024498434737 2.580465974233448e-08 6.860601864389082e-09 2.580465974233448e-08 -0.00010920556815108284 -1.470894406274681e-09 6.860601864389082e-09 -1.470894406274681e-09 -0.00010922580258920789" pbc="T T T"
Y        2.12280177       1.50104748       3.67680076       0.00000063       0.00000028       0.00000050
Y        6.36840506       4.50314253      11.03040125      -0.00000087      -0.00000045      -0.00000086
Hf       0.00000010       0.00000018       0.00000035      -0.00000190       0.00000034      -0.00000195
Te       2.24718644       1.58900093       7.35360109      -0.00335753      -0.00237471      -0.00000057
Te       6.24402042       4.41518922       7.35360125       0.00335911       0.00237487      -0.00000085
Te       5.24481213       1.58900056       5.62292101       0.00167778      -0.00237128      -0.00290589
Te       3.24639513       4.41518915       9.08428076      -0.00167917       0.00237401       0.00290807
Te       3.24639466       4.41518941       5.62292087      -0.00167650       0.00237258      -0.00290653
Te       5.24481196       1.58900087       9.08428069       0.00167841      -0.00237547       0.00290796
