9
Lattice="5.89167769307255 -1.370400919752651e-08 3.4015615513640873 1.9638925061471928 5.554726890076658 3.401561629808726 -1.384587705517868e-07 -1.830397815711488e-09 6.803123342545759" Properties=species:S:1:pos:R:3:forces:R:3 energy=-52.48218536376953 free_energy=-52.48218536376953 stress="-0.0001029083359753713 1.936441940131317e-08 -2.1149302753542543e-08 1.936441940131317e-08 -0.00010289272904628888 1.795778459268149e-08 -2.1149302753542543e-08 1.795778459268149e-08 -0.00010293129162164405" pbc="T T T"
Y        1.96389288       1.38868214       3.40156201       0.00000290       0.00000274       0.00000242
Y        5.89167696       4.16604495      10.20468294      -0.00000275      -0.00000177      -0.00000883
Hf       0.00000021       0.00000020       0.00000045      -0.00000372      -0.00000244      -0.00001261
Se       2.07165861       1.46488378       6.80312313      -0.00197922      -0.00140028      -0.00000024
Se       5.78391139       4.08984286       6.80312401       0.00198390       0.00140426       0.00000139
Se       4.85584838       1.46488359       5.19567076       0.00098731      -0.00139746      -0.00171132
Se       2.99972194       4.08984303       8.41057614      -0.00099240       0.00140209       0.00171976
Se       2.99972154       4.08984291       5.19567032      -0.00098685       0.00139453      -0.00170949
Se       4.85584834       1.46488403       8.41057626       0.00099090      -0.00140142       0.00171882
