9
Lattice="4.653969316462865 -6.156641614000166e-09 2.686970171589313 1.5513231840426127 4.387803731995337 2.6869700254743023 1.0444329787115811e-07 -1.0510106649515641e-07 5.373940162277568" Properties=species:S:1:pos:R:3:forces:R:3 energy=-74.3628921508789 free_energy=-74.3628921508789 stress="8.138859993778169e-05 1.52479003645567e-07 4.35893241501617e-08 1.52479003645567e-07 8.13238657428883e-05 8.880525115273485e-08 4.35893241501617e-08 8.880525115273485e-08 8.097742829704657e-05" pbc="T T T"
Y        1.55132334       1.09695099       2.68696996       0.00000170      -0.00000278      -0.00000185
Y        4.65396942       3.29085272       8.06091023       0.00000188       0.00000052       0.00000171
Hf       0.00000008       0.00000002      -0.00000020      -0.00000265      -0.00000056       0.00000078
O        1.62403755       1.14836799       5.37394017      -0.00046647      -0.00032872      -0.00000083
O        4.58125494       3.23943581       5.37394022       0.00046688       0.00033060       0.00000195
O        3.84195073       1.14836767       4.09342777       0.00022924      -0.00032502      -0.00039834
O        2.36334180       3.23943589       6.65445276      -0.00022870       0.00032499       0.00039810
O        2.36334208       3.23943605       4.09342774      -0.00023177       0.00032601      -0.00039995
O        3.84195058       1.14836747       6.65445276       0.00022992      -0.00032496       0.00039893
