9
Lattice="5.572155492799536 -4.994138821734023e-08 3.217085450528578 1.857385115513166 5.253478489496473 3.217085453417907 4.359048605831075e-09 6.620977222837917e-09 6.43417089350707" Properties=species:S:1:pos:R:3:forces:R:3 energy=-58.060089111328125 free_energy=-58.060089111328125 stress="-2.9819706469425e-05 -2.0767661368381596e-08 2.6355842508429816e-10 -2.0767661368381596e-08 -2.980239332828205e-05 -2.4509404283890035e-08 2.6355842508429816e-10 -2.4509404283890035e-08 -2.9861876100767404e-05" pbc="T T T"
Y        1.85738483       1.31336950       3.21708546      -0.00000124       0.00000009      -0.00000109
Y        5.57215577       3.94010899       9.65125616       0.00000073       0.00000065       0.00000046
Hf      -0.00000004      -0.00000017      -0.00000003      -0.00000044       0.00000568      -0.00000129
S        1.96044394       1.38624327       6.43417090      -0.00055087      -0.00039028      -0.00000035
S        5.46909673       3.86723522       6.43417111       0.00054900       0.00038776      -0.00000017
S        4.59193351       1.38624320       4.91487962       0.00027750      -0.00038919      -0.00047575
S        2.83760711       3.86723525       7.95346220      -0.00027663       0.00038862       0.00047424
S        2.83760711       3.86723522       4.91487967      -0.00027362       0.00038916      -0.00047474
S        4.59193347       1.38624329       7.95346216       0.00027583      -0.00039265       0.00047868
