9
Lattice="4.572275356029283 5.958655853170682e-08 2.6398048974177213 1.5240918834902761 4.310782542935529 2.6398048247262733 -1.1364372570179764e-07 -1.693867394389021e-07 5.279609991672124" Properties=species:S:1:pos:R:3:forces:R:3 energy=-68.92151641845703 free_energy=-68.92151641845703 stress="8.845974662108347e-05 1.7959861509098118e-07 6.42961524022212e-08 1.7959861509098118e-07 8.825195254758e-05 1.9613828783349163e-07 6.42961524022212e-08 1.9613828783349163e-07 8.807027916191146e-05" pbc="T T T"
Y        1.52409182       1.07769543       2.63980486      -0.00000412       0.00000067       0.00000276
Y        4.57227542       3.23308722       7.91941439      -0.00000010      -0.00000414       0.00000058
Hf      -0.00000023      -0.00000025      -0.00000033       0.00001749       0.00000819       0.00001286
N        1.70589868       1.20625207       5.27960950       0.00226802       0.00160140      -0.00000161
N        4.39046949       3.10453061       5.27960826      -0.00227940      -0.00161225      -0.00001014
N        3.71932639       1.20625128       4.11715671      -0.00113362       0.00160521       0.00196689
N        2.37704005       3.10453018       6.44206413       0.00113577      -0.00161386      -0.00196755
N        2.37704111       3.10453148       4.11715662       0.00113925      -0.00159931       0.00196671
N        3.71932614       1.20625148       6.44206461      -0.00114268       0.00161386      -0.00196987
