9
Lattice="4.6516590029075395 2.686386495015542e-08 2.685636753953107 1.5505529864510152 4.385626543388343 2.685636822967833 -8.807011776870619e-08 2.2250428810932888e-08 5.3712736604481295" Properties=species:S:1:pos:R:3:forces:R:3 energy=-68.02796936035156 free_energy=-68.02796936035156 stress="0.00014073379861656576 -1.4487167909749132e-08 -8.731223744007366e-08 -1.4487167909749132e-08 0.00014074271894060075 3.8247829792226185e-08 -8.731223744007366e-08 3.8247829792226185e-08 0.00014089298201724887" pbc="T T T"
Y        1.55055293       1.09640663       2.68563662       0.00000031       0.00000026       0.00000075
Y        4.65165913       3.28921995       8.05691077      -0.00000046       0.00000018      -0.00000043
Ir       0.00000014       0.00000012       0.00000013      -0.00000562       0.00000345      -0.00000270
N        1.60286680       1.13339816       5.37127362      -0.00275385      -0.00194669       0.00000046
N        4.59934480       3.25222843       5.37127347       0.00275695       0.00194931      -0.00000025
N        3.85022557       1.13339811       4.07376032       0.00137919      -0.00194967      -0.00238919
N        2.35198651       3.25222834       6.66878687      -0.00137872       0.00194895       0.00238657
N        2.35198629       3.25222857       4.07376023      -0.00137615       0.00194514      -0.00238371
N        3.85022544       1.13339807       6.66878680       0.00137877      -0.00194979       0.00238824
