9
Lattice="4.658018476148726 2.8733879287111094e-08 2.689308250080816 1.5526728884340841 4.39162173027461 2.6893081877952065 8.539185843710904e-08 -1.5902820505893027e-08 5.378616352258586" Properties=species:S:1:pos:R:3:forces:R:3 energy=-68.44960021972656 free_energy=-68.44960021972656 stress="0.00020088735618628561 3.849311625003793e-08 -2.7599064367223036e-08 3.849311625003793e-08 0.00020082514674868435 3.866238529326438e-08 -2.7599064367223036e-08 3.866238529326438e-08 0.00020081919501535594" pbc="T T T"
Y        1.55267290       1.09790569       2.68930842      -0.00000061      -0.00000090       0.00000068
Y        4.65801858       3.29371623       8.06792454      -0.00000078      -0.00000095      -0.00000160
Ir      -0.00000002      -0.00000007      -0.00000019      -0.00000174       0.00000337      -0.00000054
O        1.56380239       1.10577529       5.37861650      -0.00066520      -0.00046849      -0.00000096
O        4.64688898       3.28584616       5.37861671       0.00066543       0.00046875      -0.00000083
O        3.87611746       1.10577512       4.04360046       0.00033127      -0.00046710      -0.00057375
O        2.33457417       3.28584677       6.71363213      -0.00033120       0.00046831       0.00057308
O        2.33457408       3.28584660       4.04360055      -0.00032788       0.00046465      -0.00056964
O        3.87611724       1.10577517       6.71363218       0.00033061      -0.00046838       0.00057336
