9
Lattice="5.5328105274614785 -1.14570626927432e-09 3.194369636501275 1.844270200053031 5.216383780020077 3.1943695926583864 2.2647581645089444e-08 -3.7682081121966467e-08 6.388739233775807" Properties=species:S:1:pos:R:3:forces:R:3 energy=-54.04863357543945 free_energy=-54.04863357543945 stress="-2.420901000732556e-05 -2.6312681811191396e-08 -1.8104527654827507e-08 -2.6312681811191396e-08 -2.4162422050721943e-05 -2.0174329762312482e-08 -1.8104527654827507e-08 -2.0174329762312482e-08 -2.4138598746503703e-05" pbc="T T T"
Y        1.84427028       1.30409611       3.19436962      -0.00000046      -0.00000001       0.00000024
Y        5.53281051       3.91228781       9.58310898      -0.00000053      -0.00000035      -0.00000013
Ir       0.00000013      -0.00000007       0.00000005      -0.00000186      -0.00000077      -0.00000353
S        1.87891035       1.32859009       6.38873920       0.00014979       0.00010580      -0.00000002
S        5.49817030       3.88779335       6.38873936      -0.00014669      -0.00010318      -0.00000007
S        4.59335555       1.32859021       4.82155372      -0.00007424       0.00010556       0.00012797
S        2.78372521       3.88779353       7.95592473       0.00007251      -0.00010359      -0.00012726
S        2.78372545       3.88779349       4.82155360       0.00007415      -0.00010526       0.00012726
S        4.59335516       1.32859038       7.95592464      -0.00007245       0.00010198      -0.00012451
