9
Lattice="5.531727539647501 -4.945938882393643e-08 3.1937443763835542 1.8439091058007622 5.215362949290699 3.1937444239300334 -4.090250781743911e-08 2.9309871787117312e-08 6.387488823612316" Properties=species:S:1:pos:R:3:forces:R:3 energy=-54.048614501953125 free_energy=-54.048614501953125 stress="-0.00022806347988080233 -2.6295156274613873e-08 -1.673058847018183e-08 -2.6295156274613873e-08 -0.0002281160413986072 -8.407291751666435e-09 -1.673058847018183e-08 -8.407291751666435e-09 -0.0002280103217344731" pbc="T T T"
Y        1.84390879       1.30384084       3.19374445      -0.00000089       0.00000137      -0.00000091
Y        5.53172751       3.91152208       9.58123314      -0.00000060      -0.00000009      -0.00000047
Ir       0.00000000       0.00000006       0.00000019       0.00000133      -0.00000052       0.00000237
S        1.87895938       1.32862490       6.38748884      -0.00417215      -0.00295055      -0.00000026
S        5.49667736       3.88673815       6.38748880       0.00417298       0.00294977       0.00000042
S        4.59224796       1.32862506       4.82097106       0.00208792      -0.00295126      -0.00361395
S        2.78338880       3.88673787       7.95400648      -0.00208688       0.00294960       0.00361431
S        2.78338874       3.88673784       4.82097104      -0.00208771       0.00295067      -0.00361419
S        4.59224788       1.32862499       7.95400652       0.00208640      -0.00294918       0.00361311
