9
Lattice="4.657918457140695 1.1746221585824375e-08 2.6892503692510483 1.5526394883942396 4.391527637477374 2.6892503837895076 -1.0599484710847064e-08 1.031093279867968e-08 5.378500756860968" Properties=species:S:1:pos:R:3:forces:R:3 energy=-68.44960021972656 free_energy=-68.44960021972656 stress="0.00015599853941239417 3.198949549698682e-09 -4.203375070233051e-08 3.198949549698682e-09 0.00015588455426041037 5.944262326806893e-08 -4.203375070233051e-08 5.944262326806893e-08 0.00015595350123476237" pbc="T T T"
Y        1.55263967       1.09788169       2.68925031       0.00000343      -0.00000058      -0.00000060
Y        4.65791855       3.29364576       8.06775095      -0.00000041      -0.00000078      -0.00000194
Ir       0.00000011      -0.00000004      -0.00000030       0.00000066      -0.00000015       0.00002668
O        1.56379025       1.10576693       5.37850071      -0.00061599      -0.00043552       0.00000083
O        4.64676762       3.28576101       5.37850084       0.00061420       0.00043420      -0.00000018
O        3.87602292       1.10576686       4.04353237       0.00031166      -0.00044228      -0.00053995
O        2.33453484       3.28576077       6.71346926      -0.00030594       0.00043308       0.00052911
O        2.33453458       3.28576102       4.04353259      -0.00030906       0.00043787      -0.00053469
O        3.87602319       1.10576664       6.71346929       0.00030192      -0.00042580       0.00052107
