9
Lattice="6.121334152096538 1.3236195647946272e-08 3.5341538589842307 2.04044475960548 5.771249042532273 3.5341538074370433 7.483254966876478e-08 -1.0217515605726582e-08 7.0683075883546636" Properties=species:S:1:pos:R:3:forces:R:3 energy=-46.3857307434082 free_energy=-46.3857307434082 stress="-5.500688530446496e-06 2.2377008690455114e-08 3.04326674971378e-10 2.2377008690455114e-08 -5.510597020474961e-06 1.145440631233896e-09 3.04326674971378e-10 1.145440631233896e-09 -5.533915100386366e-06" pbc="T T T"
Y        2.04044505       1.44281185       3.53415409       0.00000110       0.00000024       0.00000018
Y        6.12133412       4.32843679      10.60246214      -0.00000061       0.00000021       0.00000058
Mn       0.00000002      -0.00000001       0.00000004      -0.00000038       0.00000077       0.00000389
Te       2.05403200       1.45242005       7.06830751       0.00057642       0.00040773      -0.00000044
Te       6.10774699       4.31882926       7.06830723      -0.00057749      -0.00040839       0.00000028
Te       5.09431796       1.45242006       5.31299741      -0.00028839       0.00040780       0.00050035
Te       3.06746081       4.31882924       8.82361748       0.00029089      -0.00041044      -0.00050312
Te       3.06746088       4.31882912       5.31299758       0.00028867      -0.00040807       0.00050120
Te       5.09431812       1.45241984       8.82361755      -0.00029018       0.00041020      -0.00050288
