9
Lattice="5.731095120380963 2.5330512143837514e-08 3.30884925022249 1.910365055587227 5.403328387730467 3.308849264809183 3.115684931488844e-09 2.0068121083304658e-08 6.617698495048491" Properties=species:S:1:pos:R:3:forces:R:3 energy=-50.7680778503418 free_energy=-50.7680778503418 stress="-0.00020430356380529702 -3.710919571631166e-08 -1.9751883684193672e-08 -3.710919571631166e-08 -0.0002042646665358916 1.5267330510937427e-08 -1.9751883684193672e-08 1.5267330510937427e-08 -0.00020429515279829502" pbc="T T T"
Y        1.91036471       1.35083273       3.30884920      -0.00000007       0.00000156      -0.00000044
Y        5.73109528       4.05249653       9.92654859      -0.00000080       0.00000039       0.00000351
Mn       0.00000013      -0.00000017       0.00000011      -0.00000117       0.00000138      -0.00000310
Se       1.90656252       1.34814304       6.61769842      -0.00044629      -0.00031585      -0.00000173
Se       5.73489786       4.05518466       6.61769819       0.00044787       0.00031441      -0.00000213
Se       4.77781392       1.34814348       4.95998053       0.00022413      -0.00031462      -0.00038853
Se       2.86364632       4.05518493       8.27541620      -0.00022402       0.00031593       0.00038785
Se       2.86364636       4.05518524       4.95998048      -0.00022258       0.00031596      -0.00038373
Se       4.77781363       1.34814333       8.27541627       0.00022313      -0.00031886       0.00038803
