9
Lattice="5.384393086496101 3.790241492774911e-09 3.1086808285585055 1.7947977206670351 5.076454135931522 3.1086807911550767 6.135450825005042e-08 -2.425439725431897e-09 6.217361550847822" Properties=species:S:1:pos:R:3:forces:R:3 energy=-55.871280670166016 free_energy=-55.871280670166016 stress="2.485131517460104e-05 3.36389982535934e-09 2.7680998826440373e-08 3.36389982535934e-09 2.4747299903538078e-05 -1.1083872486494784e-08 2.7680998826440373e-08 -1.1083872486494784e-08 2.47959433181677e-05" pbc="T T T"
Y        1.79479802       1.26911344       3.10868050       0.00000017       0.00000035       0.00000027
Y        5.38439293       3.80734010       9.32604204       0.00000107      -0.00000023       0.00000001
Mn      -0.00000040       0.00000031       0.00000010       0.00000326      -0.00000241       0.00000065
S        1.78908577       1.26507472       6.21736176       0.00453359       0.00320578      -0.00000134
S        5.39010524       3.81137963       6.21736177      -0.00453651      -0.00320688      -0.00000108
S        4.48985042       1.26507446       4.65807421      -0.00226897       0.00320867       0.00393003
S        2.68934092       3.81137948       7.77664897       0.00226679      -0.00320485      -0.00392675
S        2.68934032       3.81137951       4.65807454       0.00226775      -0.00320637       0.00392652
S        4.48985027       1.26507487       7.77664898      -0.00226721       0.00320596      -0.00392807
