9
Lattice="5.837386594122046 1.2596072934900053e-08 3.3702166194204826 1.9457955328335355 5.503540790855049 3.3702166374618505 -1.9037515441282264e-08 8.634515406149701e-09 6.740433271814931" Properties=species:S:1:pos:R:3:forces:R:3 energy=-51.80177688598633 free_energy=-51.80177688598633 stress="-0.0001375189021928236 2.165776713525247e-08 -1.3908459273181961e-08 2.165776713525247e-08 -0.00013752780796494335 3.020416272647708e-08 -1.3908459273181961e-08 3.020416272647708e-08 -0.00013746270269621164" pbc="T T T"
Y        1.94579449       1.37588458       3.37021711      -0.00000469      -0.00000229       0.00000208
Y        5.83738696       4.12765545      10.11065071       0.00000251      -0.00000036       0.00000477
Mo       0.00000019      -0.00000007      -0.00000039       0.00000120       0.00000405      -0.00000131
Se       2.01422944       1.42427536       6.74043366      -0.00316639      -0.00223934       0.00000150
Se       5.76895295       4.07926586       6.74043296       0.00316116       0.00223788      -0.00000165
Se       4.83027209       1.42427534       5.11459006       0.00158443      -0.00223810      -0.00274276
Se       2.95290993       4.07926628       8.36627618      -0.00158246       0.00223983       0.00273811
Se       2.95290990       4.07926556       5.11458964      -0.00158191       0.00223555      -0.00273926
Se       4.83027246       1.42427489       8.36627619       0.00158625      -0.00223712       0.00273849
