9
Lattice="5.5082508958077545 4.88890560540026e-08 3.180189975565152 1.836083646345453 5.193228649732091 3.180190030442565 1.229111685773462e-08 7.590193615588365e-08 6.360379929841511" Properties=species:S:1:pos:R:3:forces:R:3 energy=-57.078975677490234 free_energy=-57.078975677490234 stress="-3.842190926661715e-05 2.992381809008293e-08 2.4425290234830754e-08 2.992381809008293e-08 -3.8423338992288336e-05 -3.6271572412260866e-08 2.4425290234830754e-08 -3.6271572412260866e-08 -3.845473474939354e-05" pbc="T T T"
Y        1.83608344       1.29830728       3.18019008      -0.00000077      -0.00000078       0.00000046
Y        5.50825140       3.89492165       9.54056982       0.00000157       0.00000016       0.00000191
Mo      -0.00000025      -0.00000010      -0.00000054       0.00000269       0.00000094       0.00000787
S        1.90162199       1.34465006       6.36037999      -0.00021704      -0.00015363       0.00000233
S        5.44271242       3.84857869       6.36038028       0.00021625       0.00015479       0.00000093
S        4.55743969       1.34464997       4.82704292       0.00010768      -0.00015438      -0.00018688
S        2.78689457       3.84857905       7.89371726      -0.00010389       0.00014651       0.00018081
S        2.78689474       3.84857880       4.82704298      -0.00011037       0.00015587      -0.00018863
S        4.55744027       1.34464979       7.89371698       0.00010388      -0.00014937       0.00018132
