9
Lattice="4.623635322019395 1.1463183466390158e-07 2.6694571166591032 1.5412118877051824 4.359205242176496 2.669457106920122 1.7141257842993172e-07 1.0927925278252649e-07 5.338913936422932" Properties=species:S:1:pos:R:3:forces:R:3 energy=-72.12132263183594 free_energy=-72.12132263183594 stress="2.525774652895052e-05 2.2628137230640277e-07 5.647889267379469e-08 2.2628137230640277e-07 2.523527837183792e-05 9.455349214704256e-08 5.647889267379469e-08 9.455349214704256e-08 2.473890890541952e-05" pbc="T T T"
Y        1.54121180       1.08980127       2.66945710      -0.00000130       0.00000028      -0.00000307
Y        4.62363548       3.26940408       8.00837113       0.00000088      -0.00000169      -0.00000102
Mo       0.00000005      -0.00000007      -0.00000010       0.00000645       0.00000495      -0.00001024
N        1.63504363       1.15615011       5.33891410      -0.00417256      -0.00295007      -0.00000005
N        4.52980405       3.20305551       5.33891404       0.00416327       0.00294304       0.00000200
N        3.80611412       1.15614985       4.08544554       0.00207937      -0.00294018      -0.00359881
N        2.35873351       3.20305531       6.59238258      -0.00208092       0.00294447       0.00360608
N        2.35873308       3.20305545       4.08544544      -0.00207973       0.00294209      -0.00360024
N        3.80611377       1.15615000       6.59238239       0.00208306      -0.00294304       0.00360703
