9
Lattice="4.648491283620385 5.23143330660018e-08 2.6838076695513586 1.5494971240226354 4.38263963067686 2.6838077039150923 1.6460646047871186e-08 5.3726240496762613e-08 5.367615310592052" Properties=species:S:1:pos:R:3:forces:R:3 energy=-70.1911392211914 free_energy=-70.1911392211914 stress="0.00012918539869133383 1.783490688467282e-08 1.1630708840471016e-08 1.783490688467282e-08 0.00012912000238429755 1.675988059446354e-08 1.1630708840471016e-08 1.675988059446354e-08 0.00012914508988615125" pbc="T T T"
Y        1.54949711       1.09565960       2.68380769       0.00000022      -0.00000033      -0.00000062
Y        4.64849090       3.28698021       8.05142319      -0.00000295       0.00000128      -0.00000047
Mo      -0.00000002       0.00000009      -0.00000012      -0.00000299       0.00000301      -0.00000345
O        1.56449911       1.10626734       5.36761548      -0.00040171      -0.00028034      -0.00000010
O        4.63348967       3.27637205       5.36761501       0.00040162       0.00028057      -0.00000175
O        3.86624180       1.10626753       4.03870316       0.00020006      -0.00027891      -0.00034133
O        2.33174664       3.27637212       6.69652769      -0.00019926       0.00027928       0.00034001
O        2.33174656       3.27637225       4.03870318      -0.00019701       0.00027677      -0.00033739
O        3.86624191       1.10626781       6.69652754       0.00020191      -0.00028122       0.00034423
