9
Lattice="4.648432260800631 -2.959998007960178e-08 2.683773618250152 1.5494773589741646 4.382583847624971 2.6837736760756794 -1.0073887652245086e-07 -4.1162873001296025e-10 5.367547410985157" Properties=species:S:1:pos:R:3:forces:R:3 energy=-70.19113159179688 free_energy=-70.19113159179688 stress="9.939423034666106e-05 -4.8785636863613036e-08 -6.033056365595257e-08 -4.8785636863613036e-08 9.939073061104864e-05 3.546981730551124e-08 -6.033056365595257e-08 3.546981730551124e-08 9.95360387605615e-05" pbc="T T T"
Y        1.54947722       1.09564547       2.68377383      -0.00000090      -0.00000006      -0.00000057
Y        4.64843218       3.28693816       8.05132033       0.00000049       0.00000196      -0.00000312
Mo       0.00000006      -0.00000008       0.00000002       0.00000114       0.00000583       0.00000205
O        1.56449154       1.10626249       5.36754746      -0.00032724      -0.00023011       0.00000332
O        4.63341810       3.27632133       5.36754755       0.00032373       0.00022740      -0.00000029
O        3.86618617       1.10626230       4.03866320       0.00016792      -0.00023642      -0.00028589
O        2.33172319       3.27632173       6.69643152      -0.00016350       0.00022799       0.00028361
O        2.33172306       3.27632119       4.03866327      -0.00016397       0.00023262      -0.00028475
O        3.86618652       1.10626260       6.69643148       0.00016259      -0.00022922       0.00028595
