9
Lattice="5.83744697029185 1.1684408019476221e-07 3.370251594354851 1.94581579572109 5.503597901303969 3.3702515444795975 -1.848928582420485e-08 -7.415839312869971e-08 6.740503220734071" Properties=species:S:1:pos:R:3:forces:R:3 energy=-51.801780700683594 free_energy=-51.801780700683594 stress="-0.0001343662297585979 7.726743689318027e-09 -1.6381905609819114e-08 7.726743689318027e-09 -0.00013434392167255282 -2.6070498648778084e-08 -1.6381905609819114e-08 -2.6070498648778084e-08 -0.00013442535419017076" pbc="T T T"
Y        1.94581569       1.37590016       3.37025181      -0.00000074       0.00000365       0.00000112
Y        5.83744657       4.12769803      10.11075341      -0.00000175      -0.00000155      -0.00000729
Mo       0.00000013      -0.00000021       0.00000015      -0.00000354      -0.00000125      -0.00000264
Se       2.01422434       1.42427160       6.74050336      -0.00283454      -0.00200313       0.00000026
Se       5.76903815       4.07932636       6.74050368       0.00283681       0.00200633       0.00000412
Se       4.83033500       1.42427158       5.11462118       0.00141726      -0.00200409      -0.00245303
Se       2.95292785       4.07932610       8.36638556      -0.00141719       0.00200292       0.00245414
Se       2.95292811       4.07932600       5.11462092      -0.00141625       0.00200083      -0.00245449
Se       4.83033514       1.42427218       8.36638539       0.00141998      -0.00200361       0.00245786
