9
Lattice="5.50820682706631 2.722687957958952e-08 3.1801646365798164 1.8360689953964628 5.193187163716563 3.1801645891713655 -4.691674602171679e-08 -9.123843530524451e-08 6.360329354421848" Properties=species:S:1:pos:R:3:forces:R:3 energy=-57.078975677490234 free_energy=-57.078975677490234 stress="-4.6278233639895916e-05 9.759565955391736e-08 1.4045086871306012e-08 9.759565955391736e-08 -4.636436278815381e-05 -1.6038082861769e-08 1.4045086871306012e-08 -1.6038082861769e-08 -4.6384062443394214e-05" pbc="T T T"
Y        1.83606906       1.29829694       3.18016425       0.00000057       0.00000112      -0.00000105
Y        5.50820684       3.89489029       9.54049430      -0.00000005      -0.00000121      -0.00000042
Mo       0.00000016       0.00000005      -0.00000020      -0.00000141       0.00000046       0.00000014
S        1.90161727       1.34464632       6.36032941      -0.00030430      -0.00021581       0.00000128
S        5.44265856       3.84854079       6.36032918       0.00030468       0.00021602      -0.00000130
S        4.55739834       1.34464612       4.82701306       0.00014964      -0.00021051      -0.00025739
S        2.78687740       3.84854071       7.89364562      -0.00014960       0.00021094       0.00025719
S        2.78687720       3.84854075       4.82701301      -0.00015026       0.00021116      -0.00025818
S        4.55739826       1.34464641       7.89364566       0.00015064      -0.00021221       0.00025967
