9
Lattice="6.333932398684537 8.420504161241723e-08 3.6568976271193607 2.1113108772176963 5.971688768521846 3.6568976301211604 3.115540045565187e-08 2.570662828604121e-08 7.313795200275971" Properties=species:S:1:pos:R:3:forces:R:3 energy=-47.27276611328125 free_energy=-47.27276611328125 stress="-2.3946771761984564e-05 3.339657439482835e-08 -7.297594084576531e-09 3.339657439482835e-08 -2.3960847101989202e-05 2.0901843811316212e-08 -7.297594084576531e-09 2.0901843811316212e-08 -2.3963411877048202e-05" pbc="T T T"
Y        2.11131071       1.49292204       3.65689790       0.00000039       0.00000046       0.00000045
Y        6.33393237       4.47876672      10.97069250      -0.00000008       0.00000002      -0.00000009
Nb      -0.00000005       0.00000003      -0.00000039      -0.00000138      -0.00000043       0.00000372
Te       2.21424082       1.56570479       7.31379532      -0.00017382      -0.00012284       0.00000161
Te       6.23100255       4.40598422       7.31379531       0.00017464       0.00012344       0.00000029
Te       5.22681193       1.56570469       5.57448624       0.00008817      -0.00012383      -0.00014943
Te       3.21843133       4.40598438       9.05310421      -0.00008443       0.00011921       0.00014655
Te       3.21843128       4.40598413       5.57448636      -0.00008730       0.00012299      -0.00014881
Te       5.22681233       1.56570455       9.05310437       0.00008382      -0.00011891       0.00014567
