9
Lattice="5.5900261881825895 -1.8827604914556066e-08 3.227403138737364 1.8633420759209733 5.270327097580954 3.227403085140314 1.5183536066432973e-08 -5.490634431008018e-08 6.454806251176076" Properties=species:S:1:pos:R:3:forces:R:3 energy=-57.62189865112305 free_energy=-57.62189865112305 stress="-8.905494905775413e-05 -2.354924788505741e-08 -2.247443298131202e-08 -2.354924788505741e-08 -8.902877743821591e-05 1.9567734099723566e-08 -2.247443298131202e-08 1.9567734099723566e-08 -8.903432899387553e-05" pbc="T T T"
Y        1.86334232       1.31758156       3.22740318       0.00000109      -0.00000017      -0.00000019
Y        5.59002612       3.95274491       9.68220918      -0.00000066      -0.00000042      -0.00000108
Nb       0.00000001      -0.00000012      -0.00000031      -0.00000051       0.00000107       0.00000466
S        1.93223438       1.36629612       6.45480629      -0.00114910      -0.00081314       0.00000035
S        5.52113389       3.90403092       6.45480629       0.00114748       0.00081252       0.00000142
S        4.62390884       1.36629626       4.90076719       0.00057620      -0.00081626      -0.00100045
S        2.82945922       3.90403111       8.00884549      -0.00057372       0.00081307       0.00099622
S        2.82945917       3.90403129       4.90076726      -0.00057510       0.00081457      -0.00099649
S        4.62390914       1.36629605       8.00884531       0.00057410      -0.00081125       0.00099541
