9
Lattice="4.646576227895466 -5.681314164265229e-08 2.6827018743331736 1.5488586688059918 4.380834176987395 2.682701909427792 -7.58476038273216e-08 -1.0650397139852457e-08 5.365403880038237" Properties=species:S:1:pos:R:3:forces:R:3 energy=-74.54481506347656 free_energy=-74.54481506347656 stress="6.800932897021994e-05 8.862620859417802e-09 1.4352895760794127e-08 8.862620859417802e-09 6.81587916915305e-05 4.3431008123206993e-08 1.4352895760794127e-08 4.3431008123206993e-08 6.790646148147061e-05" pbc="T T T"
Y        1.54885871       1.09520852       2.68270239       0.00000389       0.00000164       0.00000219
Y        4.64657586       3.28562585       8.04810571      -0.00000291       0.00000147      -0.00000185
Nb       0.00000000       0.00000014      -0.00000008      -0.00000217       0.00000141       0.00000482
O        1.59576389       1.12837511       5.36540365      -0.00015044      -0.00010812      -0.00000049
O        4.59967122       3.25245883       5.36540389       0.00014961       0.00010443       0.00000047
O        3.84869403       1.12837537       4.06467390       0.00007731      -0.00010860      -0.00012988
O        2.34674063       3.25245888       6.66613381      -0.00007468       0.00010616       0.00012702
O        2.34674050       3.25245835       4.06467365      -0.00007606       0.00010586      -0.00012803
O        3.84869435       1.12837538       6.66613389       0.00007516      -0.00010377       0.00012690
