9
Lattice="4.663126529066642 9.207064430386088e-08 2.692257135087462 1.5543755638829246 4.396437900636435 2.692257191571324 5.001496038482773e-08 1.0454426171933673e-07 5.384514183546471" Properties=species:S:1:pos:R:3:forces:R:3 energy=-69.29679107666016 free_energy=-69.29679107666016 stress="0.0005869715241715312 2.9196240092232983e-08 7.654612943497341e-08 2.9196240092232983e-08 0.0005871403845958412 -8.503926807179596e-08 7.654612943497341e-08 -8.503926807179596e-08 0.0005873473128303885" pbc="T T T"
Y        1.55437559       1.09910948       2.69225698      -0.00000032       0.00000190      -0.00000046
Y        4.66312647       3.29732891       8.07677123       0.00000154      -0.00000169       0.00000311
Nb       0.00000027       0.00000032       0.00000012      -0.00000009      -0.00000243      -0.00000244
N        1.70659118       1.20674235       5.38451426      -0.00656533      -0.00464082       0.00000002
N        4.51091067       3.18969554       5.38451441       0.00656450       0.00464249       0.00000017
N        3.80983121       1.20674211       4.17020842       0.00328201      -0.00464129      -0.00568461
N        2.40767148       3.18969564       6.59882000      -0.00328064       0.00464237       0.00568414
N        2.40767112       3.18969561       4.17020855      -0.00328207       0.00464249      -0.00568485
N        3.80983070       1.20674259       6.59881992       0.00328094      -0.00464118       0.00568402
