9
Lattice="5.8845284955570945 -2.4778977109855777e-09 3.3974340594742793 1.961509478459693 5.547986682057604 3.3974340901716333 -2.5319447038897057e-08 1.9692882258415086e-08 6.794868162803129" Properties=species:S:1:pos:R:3:forces:R:3 energy=-52.147705078125 free_energy=-52.147705078125 stress="-4.296843326301314e-05 1.1119696274874968e-08 6.212450553988447e-09 1.1119696274874968e-08 -4.301877925172448e-05 -1.9280054885939535e-08 6.212450553988447e-09 -1.9280054885939535e-08 -4.301869194023311e-05" pbc="T T T"
Y        1.96150975       1.38699655       3.39743436       0.00000129      -0.00000064       0.00000115
Y        5.88452852       4.16098998      10.19230165       0.00000116      -0.00000047      -0.00000249
Nb       0.00000017       0.00000013       0.00000032      -0.00000100       0.00000004      -0.00000262
Se       2.02878236       1.43456614       6.79486870      -0.00022858      -0.00015935      -0.00000006
Se       5.81725547       4.11342057       6.79486844       0.00022826       0.00016070      -0.00000049
Se       4.87013687       1.43456562       5.15441106       0.00011036      -0.00015879      -0.00019556
Se       2.97590119       4.11342073       8.43532478      -0.00011324       0.00016220       0.00019745
Se       2.97590046       4.11342098       5.15441121      -0.00011276       0.00015891      -0.00019526
Se       4.87013703       1.43456608       8.43532475       0.00011442      -0.00016259       0.00019791
