9
Lattice="4.444991380196734 -1.6700881749152176e-08 2.566316841310918 1.4816637744069547 4.190777833387581 2.566316846933567 -5.841855893282382e-08 -3.442186096706896e-08 5.132633783805733" Properties=species:S:1:pos:R:3:forces:R:3 energy=-64.71427154541016 free_energy=-64.71427154541016 stress="0.00013185670832172036 6.212262348981312e-08 -8.511558124979501e-10 6.212262348981312e-08 0.00013180401583667845 2.3963780293456693e-08 -8.511558124979501e-10 2.3963780293456693e-08 0.00013170808961149305" pbc="T T T"
Y        1.48166392       1.04769444       2.56631675      -0.00000264       0.00000009       0.00000035
Y        4.44499122       3.14308329       7.69895070       0.00000206      -0.00000074      -0.00000168
Ni       0.00000006       0.00000002      -0.00000003      -0.00000593      -0.00000186      -0.00000212
N        1.51563314       1.07171433       5.13263371      -0.00151169      -0.00106640       0.00000069
N        4.41102171       3.11906333       5.13263377       0.00151780       0.00107066       0.00000022
N        3.68717471       1.07171416       3.87889379       0.00075787      -0.00106965      -0.00131135
N        2.23948031       3.11906364       6.38637369      -0.00075784       0.00106935       0.00131188
N        2.23948034       3.11906362       3.87889376      -0.00075775       0.00106868      -0.00131078
N        3.68717478       1.07171415       6.38637362       0.00075805      -0.00107016       0.00131290
