9
Lattice="6.115280344288268 -1.0240052889688277e-08 3.530658740932256 2.0384267693049605 5.765541781930134 3.5306587452106126 -4.050967482396341e-08 -2.3404858917792486e-08 7.061317552029388" Properties=species:S:1:pos:R:3:forces:R:3 energy=-43.07558822631836 free_energy=-43.07558822631836 stress="-1.8710376252784044e-06 8.915489679850452e-09 -3.3828839729466154e-09 8.915489679850452e-09 -1.8738957123787259e-06 -1.391013859652901e-09 -3.3828839729466154e-09 -1.391013859652901e-09 -1.861591499618953e-06" pbc="T T T"
Y        2.03842698       1.44138554       3.53065855       0.00000054      -0.00000037      -0.00000026
Y        6.11527991       4.32415616      10.59197616      -0.00000175       0.00000049       0.00000016
Ni       0.00000008      -0.00000008       0.00000010       0.00000040       0.00000026       0.00000002
Te       2.07639674       1.46823418       7.06131746       0.00012715       0.00009021      -0.00000028
Te       6.07731047       4.29730757       7.06131757      -0.00012857      -0.00009057      -0.00000002
Te       5.07708191       1.46823423       5.32887101      -0.00006336       0.00009039       0.00011137
Te       3.07662506       4.29730753       8.79376414       0.00006461      -0.00009032      -0.00011174
Te       3.07662526       4.29730749       5.32887094       0.00006469      -0.00009058       0.00011183
Te       5.07708187       1.46823435       8.79376426      -0.00006358       0.00009055      -0.00011113
