9
Lattice="5.323513853200564 -3.9320230428454124e-08 3.0735321759175975 1.7745045727501934 5.019056928309175 3.0735321896215386 -8.105024640143815e-09 1.1052639351043139e-08 6.147064365873614" Properties=species:S:1:pos:R:3:forces:R:3 energy=-50.863399505615234 free_energy=-50.863399505615234 stress="1.4063618436921388e-05 9.444728554797166e-09 7.869268792148887e-09 9.444728554797166e-09 1.4046140677237418e-05 6.7007563941956505e-09 7.869268792148887e-09 6.7007563941956505e-09 1.4047015611140523e-05" pbc="T T T"
Y        1.77450464       1.25476456       3.07353240       0.00000004       0.00000073      -0.00000055
Y        5.32351388       3.76429194       9.22059631       0.00000078      -0.00000014      -0.00000040
Ni       0.00000006      -0.00000014      -0.00000017      -0.00000404       0.00000590       0.00000641
S        1.79915033       1.27219180       6.14706438       0.00032556       0.00023037       0.00000138
S        5.29886793       3.74686541       6.14706457      -0.00032640      -0.00023043       0.00000038
S        4.42393849       1.27219196       4.63164213      -0.00016078       0.00022721       0.00027966
S        2.67407960       3.74686555       7.66248636       0.00016570      -0.00023466      -0.00028688
S        2.67407974       3.74686512       4.63164240       0.00016257      -0.00023025       0.00028354
S        4.42393885       1.27219170       7.66248644      -0.00016356       0.00023103      -0.00028336
