9
Lattice="4.369743232191291 -1.0625136521274186e-07 2.5228725535074776 1.4565810538925927 4.119833385732602 2.52287242071071 1.3642484946393118e-07 -6.617520882769665e-08 5.0457448707202355" Properties=species:S:1:pos:R:3:forces:R:3 energy=-63.07771301269531 free_energy=-63.07771301269531 stress="-1.471330142521765e-05 -4.610805959259778e-08 -1.7420403253254335e-07 -4.610805959259778e-08 -1.4775509953324217e-05 2.5228604272342636e-07 -1.7420403253254335e-07 2.5228604272342636e-07 -1.4949554497434292e-05" pbc="T T T"
Y        1.45658133       1.02995829       2.52287155       0.00000659      -0.00000022      -0.00001755
Y        4.36974377       3.08987493       7.56861695       0.00000653      -0.00000087      -0.00001859
N       -0.00000760      -0.00000040       0.00001925      -0.00025879      -0.00002026       0.00065006
O        1.34486212       0.95096113       5.04574631      -0.00062227      -0.00042784       0.00004415
O        4.48146854       3.16887704       5.04574628       0.00082707       0.00059712       0.00004234
O        3.69731786       0.95095207       3.68754733       0.00050437      -0.00073409      -0.00084996
O        2.12901418       3.16886816       6.40392965      -0.00023180       0.00030255       0.00040781
O        2.12900733       3.16887815       3.68755080      -0.00047809       0.00065285      -0.00074971
O        3.69731001       0.95096352       6.40393149       0.00024652      -0.00037134       0.00049162
