9
Lattice="4.369706276901925 2.2594933958606177e-07 2.5228506682175045 1.4565689692245698 4.119798455440994 2.522850673014956 1.596532600853879e-08 1.7164869704297493e-08 5.045701308782236" Properties=species:S:1:pos:R:3:forces:R:3 energy=-63.07771682739258 free_energy=-63.07771682739258 stress="-1.2893441635242198e-05 -6.165863624119083e-07 -4.595900549020371e-09 -6.165863624119083e-07 -1.2308811164984945e-05 -1.0057666344209792e-07 -4.595900549020371e-09 -1.0057666344209792e-07 -1.1941231605305802e-05" pbc="T T T"
Y        1.45656923       1.02994935       2.52285139       0.00000928      -0.00001270       0.00002587
Y        4.36970676       3.08984862       7.56855305       0.00000914      -0.00001131       0.00002574
N       -0.00000960       0.00001267      -0.00002676      -0.00034021       0.00043360      -0.00091670
O        1.34488796       0.95098077       5.04569946      -0.00149584      -0.00101697      -0.00005957
O        4.48138651       3.16882014       5.04569905       0.00147641       0.00109082      -0.00005801
O        3.69726040       0.95098230       3.68755758       0.00066239      -0.00094223      -0.00124073
O        2.12900907       3.16882423       6.40384827      -0.00084400       0.00119865       0.00136614
O        2.12901966       3.16880914       3.68756849      -0.00049466       0.00070035      -0.00087678
O        3.69727087       0.95096723       6.40385939       0.00101739      -0.00144088       0.00173569
