9
Lattice="4.653895651832109 -2.0215648116820798e-07 2.68692792464283 1.5512984096183653 4.38773511816998 2.68692783872861 -1.677678978132537e-07 -2.2385280162028986e-07 5.37385613986816" Properties=species:S:1:pos:R:3:forces:R:3 energy=-72.67739868164062 free_energy=-72.67739868164062 stress="-6.528977337438846e-06 5.8611902886696043e-08 2.799469811520794e-08 5.8611902886696043e-08 -6.486236543423729e-06 -9.438091197466747e-09 2.799469811520794e-08 -9.438091197466747e-09 -6.547173597937217e-06" pbc="T T T"
Y        1.55129845       1.09693351       2.68692817      -0.00000022       0.00000232      -0.00000019
Y        4.65389539       3.29080096       8.06078394       0.00000021      -0.00000100      -0.00000354
Os      -0.00000022       0.00000005       0.00000015      -0.00000035      -0.00000172       0.00000317
N        1.55092958       1.09667314       5.37385593       0.00096607       0.00068170       0.00000015
N        4.65426444       3.29106164       5.37385581      -0.00096548      -0.00068271      -0.00000008
N        3.87843052       1.09667297       4.03007257      -0.00048369       0.00068313       0.00083911
N        2.32676344       3.29106176       6.71763910       0.00048512      -0.00068319      -0.00083661
N        2.32676345       3.29106193       4.03007257       0.00048226      -0.00068182       0.00083578
N        3.87843054       1.09667282       6.71763927      -0.00048351       0.00068355      -0.00083756
