9
Lattice="5.788041403741357 1.9693321713607513e-08 3.341727259740642 1.9293471688642037 5.457018092518849 3.3417272325184215 4.526153037807624e-08 -1.3355122116093798e-09 6.683454441086017" Properties=species:S:1:pos:R:3:forces:R:3 energy=-51.832374572753906 free_energy=-51.832374572753906 stress="-5.331297143129632e-05 -4.5514596536122554e-08 5.035938333008971e-09 -4.5514596536122554e-08 -5.3285155445337296e-05 -7.707842142323784e-10 5.035938333008971e-09 -7.707842142323784e-10 -5.322513243299909e-05" pbc="T T T"
Y        1.92934698       1.36425446       3.34172698      -0.00000059      -0.00000142      -0.00000084
Y        5.78804113       4.09276330      10.02518238      -0.00000104       0.00000105       0.00000310
Os       0.00000002      -0.00000003      -0.00000008       0.00000138       0.00000159      -0.00000260
Se       1.96853687       1.39196574       6.68345446       0.00018376       0.00013080      -0.00000073
Se       5.74885214       4.06505255       6.68345435      -0.00018770      -0.00013337      -0.00000237
Se       4.80377311       1.39196596       5.04653015      -0.00009108       0.00013128       0.00015754
Se       2.91361562       4.06505218       8.32037876       0.00009045      -0.00012711      -0.00015599
Se       2.91361571       4.06505246       5.04653002       0.00009486      -0.00012964       0.00015974
Se       4.80377290       1.39196589       8.32037870      -0.00008982       0.00012714      -0.00015771
