9
Lattice="5.497964012350382 3.9576349376856875e-08 3.174251038769757 1.832654733811962 5.1835303270745525 3.1742509942290997 5.288280720815866e-08 -1.7157135090668444e-08 6.348501985943765" Properties=species:S:1:pos:R:3:forces:R:3 energy=-56.25363540649414 free_energy=-56.25363540649414 stress="-7.982477836776525e-05 -1.2651865333168644e-08 4.350205085046355e-09 -1.2651865333168644e-08 -7.980601367307827e-05 -3.405586568305807e-08 4.350205085046355e-09 -3.405586568305807e-08 -7.981814997037873e-05" pbc="T T T"
Y        1.83265470       1.29588275       3.17425103      -0.00000093       0.00000036       0.00000120
Y        5.49796415       3.88764811       9.52275254       0.00000249       0.00000090      -0.00000251
Os       0.00000007      -0.00000007      -0.00000013       0.00000050      -0.00000077       0.00000144
S        1.86628603       1.31966362       6.34850183       0.00034678       0.00024319      -0.00000028
S        5.46433291       3.86386665       6.34850232      -0.00034821      -0.00024641      -0.00000026
S        4.56482093       1.31966324       4.79050230      -0.00017396       0.00024432       0.00030077
S        2.76579772       3.86386666       7.90650195       0.00017378      -0.00024414      -0.00029892
S        2.76579767       3.86386667       4.79050236       0.00017273      -0.00024152       0.00029808
S        4.56482113       1.31966379       7.90650185      -0.00017306       0.00024390      -0.00029916
