9
Lattice="6.473066845819301 8.872641893258957e-08 3.7372267542586037 2.1576890179293744 6.102865866660033 3.7372267790773885 -8.478558360963947e-09 2.4401406774843507e-08 7.474453523202525" Properties=species:S:1:pos:R:3:forces:R:3 energy=-37.9986686706543 free_energy=-37.9986686706543 stress="-0.0002069287875201553 7.3074106765602664e-09 -2.0353252416782652e-09 7.3074106765602664e-09 -0.0002069345209747553 4.6428208499982304e-10 -2.0353252416782652e-09 4.6428208499982304e-10 -0.00020692024554591626" pbc="T T T"
Y        2.15768933       1.52571599       3.73722687       0.00000192      -0.00000205       0.00000077
Y        6.47306719       4.57714953      11.21168030       0.00000204       0.00000061      -0.00000030
Pb       0.00000032      -0.00000022       0.00000003      -0.00000598       0.00000210       0.00000014
Te       2.37942075       1.68250455       7.47445356      -0.00481312      -0.00340413       0.00000012
Te       6.25133494       4.42036155       7.47445364       0.00481258       0.00340521       0.00000021
Te       5.28335637       1.68250475       5.79786540       0.00240728      -0.00340408      -0.00416903
Te       3.34739907       4.42036166       9.15104149      -0.00240615       0.00340451       0.00416648
Te       3.34739903       4.42036163       5.79786538      -0.00240496       0.00340131      -0.00416636
Te       5.28335637       1.68250448       9.15104158       0.00240632      -0.00340325       0.00416805
