9
Lattice="5.709406309642601 -6.3805402807235866e-09 3.2963272483114054 1.9031354254263986 5.382879905955332 3.296327257154395 -1.658039905833805e-08 -8.937184359927968e-10 6.592654525340947" Properties=species:S:1:pos:R:3:forces:R:3 energy=-45.878597259521484 free_energy=-45.878597259521484 stress="-8.47271439852193e-05 1.0021485863376256e-08 2.832526391216561e-08 1.0021485863376256e-08 -8.474471542285755e-05 -2.1830814489476325e-08 2.832526391216561e-08 -2.1830814489476325e-08 -8.472215995425358e-05" pbc="T T T"
Y        1.90313549       1.34572013       3.29632763       0.00000046      -0.00000085       0.00000294
Y        5.70940599       4.03715976       9.88898186      -0.00000305      -0.00000045       0.00000211
Pb       0.00000002      -0.00000004       0.00000006       0.00000020       0.00000311      -0.00000431
S        2.03786272       1.44098652       6.59265464      -0.00387323      -0.00273839      -0.00000118
S        5.57467896       3.94189335       6.59265442       0.00387236       0.00273788      -0.00000096
S        4.69047487       1.44098650       5.06116782       0.00193453      -0.00273594      -0.00335312
S        2.92206683       3.94189351       8.12414086      -0.00193512       0.00273880       0.00335261
S        2.92206683       3.94189322       5.06116791      -0.00193556       0.00273502      -0.00335303
S        4.69047520       1.44098662       8.12414091       0.00193919      -0.00273916       0.00335485
