9
Lattice="6.0304241538223815 4.816946310607964e-09 3.4816670582261646 2.010141404008966 5.685538412847867 3.4816670324877963 6.918309538741881e-08 1.7396902342615072e-08 6.9633339966236445" Properties=species:S:1:pos:R:3:forces:R:3 energy=-41.53169631958008 free_energy=-41.53169631958008 stress="-9.372558270115405e-05 -3.3516929232035864e-09 1.4946008874971994e-08 -3.3516929232035864e-09 -9.370718180434778e-05 -2.646209829038071e-08 1.4946008874971994e-08 -2.646209829038071e-08 -9.371258056489751e-05" pbc="T T T"
Y        2.01014124       1.42138524       3.48166669      -0.00000150       0.00000480      -0.00000154
Y        6.03042463       4.26415394      10.44500059       0.00000217       0.00000089      -0.00000378
Pb      -0.00000016      -0.00000001      -0.00000011       0.00000262       0.00000351      -0.00000226
Se       2.17809650       1.54014639       6.96333425      -0.00282003      -0.00199558       0.00000077
Se       5.86246948       4.14539183       6.96333439       0.00281639       0.00199118       0.00000129
Se       4.94137615       1.54014652       5.36795393       0.00141027      -0.00199142      -0.00243939
Se       3.09918935       4.14539140       8.55871454      -0.00141013       0.00199059       0.00244160
Se       3.09918911       4.14539160       5.36795383      -0.00141115       0.00199130      -0.00243953
Se       4.94137622       1.54014683       8.55871424       0.00141159      -0.00199524       0.00244290
