9
Lattice="4.598321206756333 -1.048023699087054e-07 2.654841947236981 1.5327737281434586 4.335338230678074 2.654841788985404 8.640026831084702e-08 -1.3272364780592544e-07 5.309683744824361" Properties=species:S:1:pos:R:3:forces:R:3 energy=-61.12261962890625 free_energy=-61.12261962890625 stress="8.839284419082105e-06 -5.701190630702513e-08 -3.2130348159853384e-08 -5.701190630702513e-08 8.862960385158658e-06 1.7422564724256517e-08 -3.2130348159853384e-08 1.7422564724256517e-08 8.851385246089194e-06" pbc="T T T"
Y        1.53277381       1.08383451       2.65484187      -0.00000096      -0.00000010      -0.00000065
Y        4.59832126       3.25150358       7.96452569      -0.00000090       0.00000043      -0.00000018
Pd       0.00000013      -0.00000007      -0.00000002      -0.00000618       0.00000730      -0.00001209
N        1.60353232       1.13386819       5.30968369      -0.00001812      -0.00001222      -0.00000071
N        4.52756272       3.20146983       5.30968370       0.00001842       0.00001103      -0.00000054
N        3.79655513       1.13386810       4.04354167       0.00001100      -0.00001240      -0.00001621
N        2.33453984       3.20146973       6.57582586      -0.00001028       0.00001359       0.00001937
N        2.33453981       3.20146983       4.04354156      -0.00000733       0.00000936      -0.00001246
N        3.79655499       1.13386836       6.57582586       0.00001457      -0.00001699       0.00002295
