9
Lattice="5.499913335890086 8.852625603938773e-08 3.1753764778982316 1.8333044735772785 5.185368119856325 3.1753765734776613 -4.320595628241249e-08 8.650917813342853e-08 6.3507530306313775" Properties=species:S:1:pos:R:3:forces:R:3 energy=-49.52995300292969 free_energy=-49.52995300292969 stress="-1.4020396520209033e-05 -2.7910007638354273e-09 -2.670855359099278e-08 -2.7910007638354273e-09 -1.3976092304801568e-05 7.970951898528256e-09 -2.670855359099278e-08 7.970951898528256e-09 -1.4038418157724664e-05" pbc="T T T"
Y        1.83330474       1.29634211       3.17537654       0.00000077       0.00000008       0.00000169
Y        5.49991340       3.88902639       9.52612939       0.00000008       0.00000009      -0.00000085
Pd      -0.00000007       0.00000004       0.00000007       0.00000290       0.00000050       0.00000283
S        1.89624184       1.34084548       6.35075307      -0.00013274      -0.00009483      -0.00000076
S        5.43697587       3.84452296       6.35075309       0.00012839       0.00009078      -0.00000012
S        4.55179235       1.34084556       4.81757024       0.00006738      -0.00009274      -0.00011456
S        2.78142530       3.84452259       7.88393595      -0.00006613       0.00009435       0.00011510
S        2.78142528       3.84452251       4.81757024      -0.00006580       0.00009382      -0.00011557
S        4.55179233       1.34084560       7.88393579       0.00006497      -0.00009149       0.00011235
