9
Lattice="4.5641320324774695 4.3194236821455754e-08 2.635102760130766 1.5213773634040135 4.303104989939073 2.6351027973335723 -5.786417401942428e-09 4.147234806242566e-08 5.270205530283891" Properties=species:S:1:pos:R:3:forces:R:3 energy=-63.27836990356445 free_energy=-63.27836990356445 stress="-5.551773210754618e-05 -5.613069120613545e-08 5.628488963793643e-08 -5.613069120613545e-08 -5.568867709371261e-05 -3.0495503011707115e-08 5.628488963793643e-08 -3.0495503011707115e-08 -5.548729677684605e-05" pbc="T T T"
Y        1.52137737       1.07577607       2.63510270       0.00000026      -0.00000203      -0.00000110
Y        4.56413208       3.22732887       7.90530813      -0.00000170      -0.00000013      -0.00000194
Pd      -0.00000010      -0.00000008      -0.00000003       0.00000150       0.00000466       0.00000596
O        1.59663608       1.12899177       5.27020556       0.00022551       0.00016020       0.00000040
O        4.48887335       3.17411312       5.27020569      -0.00022814      -0.00016163      -0.00000060
O        3.76581404       1.12899199       4.01783027      -0.00011018       0.00015752       0.00019285
O        2.31969545       3.17411306       6.52258093       0.00011335      -0.00016057      -0.00019675
O        2.31969541       3.17411310       4.01783027       0.00011088      -0.00015762       0.00019449
O        3.76581397       1.12899234       6.52258094      -0.00011186       0.00015970      -0.00019300
