9
Lattice="5.817718825191944 2.122649934676492e-08 3.358861453498524 1.9392396209301554 5.484998044495841 3.358861466453762 8.782025753393728e-09 2.207667910009675e-08 6.717722891786132" Properties=species:S:1:pos:R:3:forces:R:3 energy=-45.91982650756836 free_energy=-45.91982650756836 stress="-0.0002710880944505334 -8.5820257567093e-09 3.5844029966369817e-09 -8.5820257567093e-09 -0.0002710763073991984 -2.1973656227913807e-09 3.5844029966369817e-09 -2.1973656227913807e-09 -0.0002710805565584451" pbc="T T T"
Y        1.93923985       1.37124971       3.35886145       0.00000044      -0.00000128      -0.00000041
Y        5.81771895       4.11374909      10.07658384       0.00000087       0.00000230      -0.00000254
Pd      -0.00000014      -0.00000024      -0.00000016       0.00000067       0.00000118       0.00000264
Se       2.01264345       1.42315361       6.71772291      -0.00484946      -0.00342861       0.00000013
Se       5.74431520       4.06184421       6.71772308       0.00484887       0.00342864       0.00000050
Se       4.81139693       1.42315363       5.10186189       0.00242414      -0.00343007      -0.00420079
Se       2.94556122       4.06184435       8.33358408      -0.00242446       0.00342804       0.00419986
Se       2.94556130       4.06184417       5.10186195      -0.00242537       0.00342906      -0.00420073
Se       4.81139708       1.42315380       8.33358420       0.00242448      -0.00342909       0.00420076
