9
Lattice="4.418725694611245 -1.723414555496195e-07 2.551152513802976 1.4729082097075978 4.166015946095066 2.551152847530601 -8.002964948452138e-07 -1.571638896520528e-07 5.102306413760205" Properties=species:S:1:pos:R:3:forces:R:3 energy=-67.31871795654297 free_energy=-67.31871795654297 stress="0.00041157405939884484 2.9217151364946403e-08 -2.833019721037999e-07 2.9217151364946403e-08 0.0004116854688618332 -3.6666303770971354e-08 -2.833019721037999e-07 -3.6666303770971354e-08 0.00041203227010555565" pbc="T T T"
Y        1.47290795       1.04150402       2.55115237       0.00000422      -0.00000120       0.00000620
Y        4.41872535       3.12451157       7.65345901      -0.00000524       0.00000597      -0.00000441
P       -0.00000058      -0.00000016       0.00000010       0.00000510       0.00000254      -0.00000524
N        1.43181111       1.01244438       5.10230593       0.00087726       0.00061607      -0.00000134
N        4.45982206       3.15357176       5.10230549      -0.00088370      -0.00062084       0.00000048
N        3.70281982       1.01244394       3.79113807      -0.00044310       0.00062358       0.00076115
N        2.18881243       3.15357123       6.41347431       0.00044513      -0.00061917      -0.00076759
N        2.18881420       3.15357097       3.79113751       0.00043857      -0.00061679       0.00076652
N        3.70281931       1.01244555       6.41347326      -0.00043851       0.00060976      -0.00075567
