9
Lattice="4.417003762670403 -1.7763509508616418e-07 2.55015798637556 1.4723344707002366 4.164390806826015 2.5501578987001383 -1.1667459907859246e-07 -1.8988140291748836e-07 5.100316174837454" Properties=species:S:1:pos:R:3:forces:R:3 energy=-71.79220581054688 free_energy=-71.79220581054688 stress="-6.556294829351828e-05 1.4236232637188095e-08 -1.566070828573629e-08 1.4236232637188095e-08 -6.499068695120513e-05 -2.9778018273418638e-08 -1.566070828573629e-08 -2.9778018273418638e-08 -6.514229608001187e-05" pbc="T T T"
Y        1.47233458       1.04109773       2.55015804      -0.00000119      -0.00000042      -0.00000027
Y        4.41700362       3.12329283       7.65047382       0.00000182       0.00000027       0.00000154
P       -0.00000011      -0.00000003       0.00000010       0.00000104      -0.00001049      -0.00000155
O        1.41052706       0.99739310       5.10031629      -0.00626004      -0.00443172      -0.00000432
O        4.47881099       3.16699723       5.10031607       0.00626588       0.00443399       0.00000102
O        3.71174021       0.99739316       3.77171046       0.00312573      -0.00442922      -0.00542104
O        2.17759801       3.16699711       6.42892134      -0.00313127       0.00443411       0.00542891
O        2.17759809       3.16699707       3.77171040      -0.00313485       0.00443101      -0.00543094
O        3.71173997       0.99739317       6.42892160       0.00313234      -0.00442982       0.00542521
