9
Lattice="4.417361289300375 -1.1997838005059037e-08 2.550364644742146 1.4724538102604934 4.164727887445773 2.5503645434655984 7.438245178023652e-08 -7.144158801291449e-08 5.100729160650112" Properties=species:S:1:pos:R:3:forces:R:3 energy=-71.7922134399414 free_energy=-71.7922134399414 stress="-6.911659147590399e-05 1.1725394877259987e-08 4.770454609115404e-08 1.1725394877259987e-08 -6.91453242325224e-05 2.0369142816889507e-08 4.770454609115404e-08 2.0369142816889507e-08 -6.904617475811392e-05" pbc="T T T"
Y        1.47245380       1.04118177       2.55036491       0.00000116      -0.00000142       0.00000158
Y        4.41736122       3.12354586       7.65109374       0.00000011       0.00000091       0.00000084
P        0.00000012      -0.00000005       0.00000004      -0.00000910       0.00000620       0.00000096
O        1.41039259       0.99729787       5.10072912      -0.00030684      -0.00021434      -0.00000143
O        4.47942262       3.16742991       5.10072927       0.00030458       0.00021279       0.00000026
O        3.71216512       0.99729779       3.77180038       0.00015306      -0.00021160      -0.00026321
O        2.17764985       3.16743010       6.42965793      -0.00014818       0.00021017       0.00026011
O        2.17765000       3.16742986       3.77180024      -0.00015092       0.00021195      -0.00026488
O        3.71216500       0.99729806       6.42965803       0.00015497      -0.00021517       0.00026560
