9
Lattice="5.423373037361962 -2.1132734523347965e-08 3.13118574578543 1.807791062107525 5.113204691644311 3.1311856252733627 7.005249170470622e-08 -9.806195362581128e-08 6.262371370236377" Properties=species:S:1:pos:R:3:forces:R:3 energy=-51.54450225830078 free_energy=-51.54450225830078 stress="-6.705031410092488e-05 3.372548107449802e-08 1.7155358023046574e-08 3.372548107449802e-08 -6.706585554638878e-05 -6.7727139452244955e-09 1.7155358023046574e-08 -6.7727139452244955e-09 -6.713942275382578e-05" pbc="T T T"
Y        1.80779137       1.27830143       3.13118566       0.00000041       0.00000025      -0.00000170
Y        5.42337290       3.83490349       9.39355741      -0.00000119       0.00000081       0.00000073
P        0.00000013      -0.00000013       0.00000003      -0.00000626       0.00000556      -0.00000412
S        1.77489496       1.25503981       6.26237134      -0.00518930      -0.00366899      -0.00000159
S        5.45626912       3.85816457       6.26237115       0.00519210       0.00367066       0.00000045
S        4.53592593       1.25503982       4.66828936       0.00259250      -0.00366658      -0.00449157
S        2.69523847       3.85816465       7.85645345      -0.00259247       0.00366646       0.00449067
S        2.69523838       3.85816482       4.66828930      -0.00259256       0.00366381      -0.00448895
S        4.53592552       1.25503980       7.85645329       0.00259700      -0.00367171       0.00449663
