9
Lattice="5.68497054618262 1.944067630069504e-08 3.2822194494765835 1.8949901907597466 5.359841697369629 3.282219466156079 1.396287583953891e-09 2.1415472087426785e-08 6.564438896534779" Properties=species:S:1:pos:R:3:forces:R:3 energy=-46.57624435424805 free_energy=-46.57624435424805 stress="-5.188748036744073e-05 2.5685602977887356e-08 -2.3736728138601393e-09 2.5685602977887356e-08 -5.18760753038805e-05 6.042581546239489e-09 -2.3736728138601393e-09 6.042581546239489e-09 -5.187737406231463e-05" pbc="T T T"
Y        1.89499024       1.33996036       3.28221928      -0.00000158       0.00000083       0.00000046
Y        5.68497024       4.01988140       9.84665762      -0.00000040       0.00000004      -0.00000111
P        0.00000000      -0.00000011      -0.00000020       0.00000045       0.00000094       0.00000282
Se       1.87008587       1.32235077       6.56443907       0.00169313       0.00119661       0.00000018
Se       5.70987485       4.03749125       6.56443930      -0.00169221      -0.00119862      -0.00000003
Se       4.74992753       1.32235012       4.90176167      -0.00084609       0.00119743       0.00146684
Se       2.83003338       4.03749160       8.22711659       0.00084665      -0.00119898      -0.00146706
Se       2.83003351       4.03749125       4.90176148       0.00084598      -0.00119622       0.00146486
Se       4.74992730       1.32235035       8.22711649      -0.00084622       0.00119790      -0.00146666
