9
Lattice="4.600386510335747 -1.102287031423062e-07 2.6560343228354424 1.5334620909163414 4.337285763805812 2.65603428000347 3.4852321441599184e-08 -2.781391861464589e-08 5.312068585304887" Properties=species:S:1:pos:R:3:forces:R:3 energy=-64.96212768554688 free_energy=-64.96212768554688 stress="0.0004562289686873555 9.41071309767949e-09 4.9654222067374576e-08 9.41071309767949e-09 0.0004562902613542974 6.996596635389096e-09 4.9654222067374576e-08 6.996596635389096e-09 0.0004561495443340391" pbc="T T T"
Y        1.53346199       1.08432126       2.65603438      -0.00000065      -0.00000289      -0.00000041
Y        4.60038627       3.25296431       7.96810276       0.00000165       0.00000245      -0.00000016
Pt      -0.00000022      -0.00000015      -0.00000019       0.00000262       0.00000688       0.00000891
O        1.59484332       1.12772385       5.31206866      -0.00683607      -0.00483089       0.00000051
O        4.53900572       3.20956168       5.31206857       0.00683057       0.00482911       0.00000016
O        3.80296482       1.12772394       4.03720927       0.00341670      -0.00483156      -0.00592001
O        2.33088375       3.20956171       6.58692839      -0.00341497       0.00482626       0.00591025
O        2.33088381       3.20956190       4.03720889      -0.00341761       0.00483210      -0.00591677
O        3.80296504       1.12772405       6.58692805       0.00341768      -0.00483114       0.00591731
