9
Lattice="4.627105988564749 -6.15273219540576e-08 2.6714609596282095 1.5423686348123737 4.3624770878635575 2.671460907725637 2.4463020340452828e-08 -4.626945516210689e-08 5.342921876885186" Properties=species:S:1:pos:R:3:forces:R:3 energy=-63.09709167480469 free_energy=-63.09709167480469 stress="0.0002727040264289826 -9.632750597177164e-09 7.954835723467113e-08 -9.632750597177164e-09 0.00027276217588223517 -5.747942566358688e-08 7.954835723467113e-08 -5.747942566358688e-08 0.00027277020853944123" pbc="T T T"
Y        1.54236867       1.09061921       2.67146091      -0.00000079       0.00000081       0.00000023
Y        4.62710595       3.27185787       8.01438268       0.00000167      -0.00000128       0.00000138
Pt      -0.00000000      -0.00000012      -0.00000007       0.00000257       0.00000393       0.00000966
N        1.60873853       1.13754976       5.34292198      -0.00267518      -0.00189000      -0.00000188
N        4.56073610       3.22492733       5.34292199       0.00267255       0.00188690      -0.00000065
N        3.82273685       1.13754961       4.06466920       0.00133634      -0.00188905      -0.00231516
N        2.34673796       3.22492736       6.62117447      -0.00133455       0.00188613       0.00231135
N        2.34673787       3.22492726       4.06466944      -0.00133836       0.00189006      -0.00231719
N        3.82273664       1.13754969       6.62117443       0.00133544      -0.00188756       0.00231111
