9
Lattice="5.7900613668296845 -8.922511763486691e-08 3.3428934456081523 1.9300203743208755 5.458922052970838 3.3428934407008737 -8.338849350154361e-08 -6.497475285731732e-08 6.685787035649426" Properties=species:S:1:pos:R:3:forces:R:3 energy=-47.524879455566406 free_energy=-47.524879455566406 stress="-0.0003894237452186644 2.0300914727044983e-08 1.7114803796403066e-08 2.0300914727044983e-08 -0.0003893423709087074 2.036863477883344e-08 1.7114803796403066e-08 2.036863477883344e-08 -0.0003894094261340797" pbc="T T T"
Y        1.93002053       1.36473027       3.34289381       0.00000141      -0.00000012       0.00000258
Y        5.79006078       4.09419118      10.02868036      -0.00000162      -0.00000173       0.00000004
Pt       0.00000005      -0.00000007      -0.00000012       0.00000082       0.00000253      -0.00000032
Se       1.98601350       1.40432340       6.68578694      -0.00469676      -0.00332028       0.00000015
Se       5.73406818       4.05459865       6.68578703       0.00469452       0.00331891      -0.00000114
Se       4.79705469       1.40432353       5.06283148       0.00234853      -0.00332060      -0.00406811
Se       2.92302707       4.05459862       8.30874251      -0.00234830       0.00332054       0.00406620
Se       2.92302714       4.05459852       5.06283129      -0.00234640       0.00331995      -0.00406775
Se       4.79705470       1.40432351       8.30874238       0.00234772      -0.00331932       0.00406811
