9
Lattice="5.511708535079645 3.3586726325367676e-08 3.1821862773633405 1.8372361916887638 5.196488734382838 3.1821863091239053 -2.312786999653351e-08 2.254472230617121e-08 6.364372594785378" Properties=species:S:1:pos:R:3:forces:R:3 energy=-51.464263916015625 free_energy=-51.464263916015625 stress="-0.00018989034288097173 -2.8730312351399334e-08 -6.290112875007026e-09 -2.8730312351399334e-08 -0.00018990502576343715 -1.234654245507727e-08 -6.290112875007026e-09 -1.234654245507727e-08 -0.0001898459013318643" pbc="T T T"
Y        1.83723666       1.29912225       3.18218618       0.00000217      -0.00000046       0.00000001
Y        5.51170860       3.89736640       9.54655851      -0.00000022      -0.00000023      -0.00000153
Pt       0.00000008       0.00000004       0.00000017      -0.00000074       0.00000090      -0.00000256
S        1.88608357       1.33366275       6.36437254      -0.00156575      -0.00110716      -0.00000022
S        5.46286093       3.86282613       6.36437272       0.00156486       0.00110763      -0.00000029
S        4.56866656       1.33366260       4.81558256       0.00078246      -0.00110775      -0.00135732
S        2.78027812       3.86282597       7.91316269      -0.00078398       0.00110948       0.00135851
S        2.78027784       3.86282609       4.81558264      -0.00078297       0.00110751      -0.00135523
S        4.56866646       1.33366299       7.91316272       0.00078398      -0.00110942       0.00135881
