9
Lattice="5.560238756813368 -4.7124967052307844e-08 3.2102053147685767 1.853412901069281 5.242243315957856 3.2102052687630054 -3.462094559387519e-08 -8.08257920629171e-08 6.420410689502407" Properties=species:S:1:pos:R:3:forces:R:3 energy=-58.54569625854492 free_energy=-58.54569625854492 stress="-0.00016228677122853696 -2.6952983844807932e-08 6.3585523513154385e-09 -2.6952983844807932e-08 -0.00016230760957114398 1.8146113778261252e-10 6.3585523513154385e-09 1.8146113778261252e-10 -0.0001622299459995702" pbc="T T T"
Y        1.85341272       1.31056076       3.21020540      -0.00000022      -0.00000064      -0.00000100
Y        5.56023903       3.93168234       9.63061550       0.00000056       0.00000015      -0.00000262
Re      -0.00000011      -0.00000014       0.00000009       0.00000094       0.00000292      -0.00000201
S        1.90133296       1.34444535       6.42041064      -0.00265515      -0.00187677       0.00000024
S        5.51231870       3.89779774       6.42041056       0.00265241       0.00187516       0.00000114
S        4.60957235       1.34444548       4.85680810       0.00132763      -0.00187743      -0.00229853
S        2.80407950       3.89779782       7.98401329      -0.00132722       0.00187856       0.00229979
S        2.80407935       3.89779788       4.85680800      -0.00132778       0.00187713      -0.00229824
S        4.60957210       1.34444545       7.98401331       0.00132892      -0.00187904       0.00230175
