9
Lattice="6.264060280389028 -4.901958298307381e-08 3.616556944753437 2.0880200604894044 5.905812641351904 3.616556921816708 1.7655678059910977e-08 -1.5607174851050558e-08 7.233113858926348" Properties=species:S:1:pos:R:3:forces:R:3 energy=-49.0013542175293 free_energy=-49.0013542175293 stress="0.00014397884660866112 -2.8402580287689716e-09 7.787373412782017e-09 -2.8402580287689716e-09 0.00014397820632439107 -4.607787040811218e-09 7.787373412782017e-09 -4.607787040811218e-09 0.00014399155043065548" pbc="T T T"
Y        2.08801974       1.47645272       3.61655705      -0.00000118      -0.00000048       0.00000066
Y        6.26406042       4.42935908      10.84967060       0.00000058      -0.00000125      -0.00000032
Re       0.00000006       0.00000020       0.00000020       0.00000059      -0.00000070       0.00000107
Te       2.14464952       1.51649625       7.23311395       0.00725855       0.00513282       0.00000011
Te       6.20743075       4.38931663       7.23311389      -0.00725855      -0.00513191       0.00000053
Te       5.19173559       1.51649640       5.47387789      -0.00362866       0.00513230       0.00628552
Te       3.16034486       4.38931640       8.99234974       0.00362932      -0.00513238      -0.00628631
Te       3.16034473       4.38931624       5.47387801       0.00362779      -0.00513124       0.00628452
Te       5.19173576       1.51649635       8.99234960      -0.00362851       0.00513291      -0.00628580
