9
Lattice="4.654699709819938 -4.3641213677939395e-08 2.6873920304334553 1.551566544334785 4.388492827186331 2.6873920035171603 -4.545213919026591e-08 -6.510512350459944e-08 5.374784139592346" Properties=species:S:1:pos:R:3:forces:R:3 energy=-75.12976837158203 free_energy=-75.12976837158203 stress="0.00030578990117646754 -1.2561942597244524e-08 -3.1474531425601526e-08 -1.2561942597244524e-08 0.0003057858848478645 -9.236443609950129e-09 -3.1474531425601526e-08 -9.236443609950129e-09 0.0003057070716749877" pbc="T T T"
Y        1.55156615       1.09712264       2.68739208       0.00000010      -0.00000260       0.00000080
Y        4.65469964       3.29137065       8.06217613      -0.00000146       0.00000674      -0.00000201
Re       0.00000007      -0.00000037       0.00000008      -0.00000007       0.00000379       0.00001252
O        1.54569145       1.09296833       5.37478411      -0.00200032      -0.00141589       0.00000539
O        4.66057471       3.29552409       5.37478362       0.00200233       0.00141293      -0.00000201
O        3.88185358       1.09296835       4.02599987       0.00100249      -0.00142166      -0.00173469
O        2.32441306       3.29552453       6.72356829      -0.00099567       0.00140998       0.00172834
O        2.32441180       3.29552415       4.02600044      -0.00100505       0.00141867      -0.00173366
O        3.88185423       1.09296834       6.72356824       0.00099774      -0.00141183       0.00172490
