9
Lattice="5.853693039600886 -1.230316565625349e-07 3.3796312950636906 1.9512309150826266 5.5189144117073115 3.3796312640986494 -2.7197765379419797e-08 -5.715600511562383e-08 6.7592626372352935" Properties=species:S:1:pos:R:3:forces:R:3 energy=-53.78489303588867 free_energy=-53.78489303588867 stress="-0.00010953636228805408 -8.397606165999605e-09 -8.841428922323757e-09 -8.397606165999605e-09 -0.00010955801553791389 1.2894179057809652e-08 -8.841428922323757e-09 1.2894179057809652e-08 -0.000109484200947918" pbc="T T T"
Y        1.95123082       1.37972828       3.37963097       0.00000075      -0.00000164      -0.00000130
Y        5.85369259       4.13918578      10.13889399      -0.00000214       0.00000117       0.00000204
Re       0.00000012      -0.00000005      -0.00000021      -0.00000025       0.00000031       0.00000370
Se       1.99544662       1.41099385       6.75926272      -0.00084570      -0.00059897       0.00000189
Se       5.80947736       4.10792054       6.75926242       0.00084519       0.00059834       0.00000086
Se       4.85596962       1.41099392       5.10773901       0.00042601      -0.00060129      -0.00073645
Se       2.94895407       4.10792070       8.41078648      -0.00042020       0.00059780       0.00073260
Se       2.94895459       4.10792057       5.10773889      -0.00042462       0.00060117      -0.00073498
Se       4.85596992       1.41099333       8.41078656       0.00042096      -0.00059715       0.00073123
