9
Lattice="4.687220548490455 7.045245065803495e-08 2.7061680313845127 1.5624068759778742 4.4191542243888495 2.7061681005663782 4.299457569679697e-08 1.151318679126124e-07 5.412335988300269" Properties=species:S:1:pos:R:3:forces:R:3 energy=-74.96411895751953 free_energy=-74.96411895751953 stress="-0.00017845693218987435 9.626763386449966e-08 5.701481065045755e-09 9.626763386449966e-08 -0.0001786733919288963 -3.845153173642757e-08 5.701481065045755e-09 -3.845153173642757e-08 -0.00017875430057756603" pbc="T T T"
Y        1.56240680       1.10478869       2.70616806       0.00000024      -0.00000041       0.00000019
Y        4.68722070       3.31436572       8.11850408      -0.00000005       0.00000066      -0.00000144
Re      -0.00000004       0.00000004      -0.00000004      -0.00000478      -0.00000355       0.00001174
N        1.60348697       1.13383667       5.41233596      -0.00232148      -0.00164139      -0.00000031
N        4.64614017       3.28531780       5.41233595       0.00232673       0.00164306       0.00000022
N        3.88547698       1.13383644       4.09482835       0.00115949      -0.00163817      -0.00200438
N        2.36415036       3.28531794       6.72984399      -0.00115550       0.00163424       0.00200140
N        2.36415044       3.28531787       4.09482853      -0.00116116       0.00163937      -0.00200737
N        3.88547711       1.13383647       6.72984389       0.00115681      -0.00163364       0.00200057
