9
Lattice="4.597093330490791 -2.5768356092295123e-09 2.65413301670707 1.5323644546283133 4.334181184346465 2.6541329932189917 -5.0068311998117194e-08 -6.417055521794719e-08 5.308266120135016" Properties=species:S:1:pos:R:3:forces:R:3 energy=-66.55785369873047 free_energy=-66.55785369873047 stress="-8.265190444944892e-06 -5.630055865957218e-10 1.343341704540535e-08 -5.630055865957218e-10 -8.228837032220326e-06 1.6627085486220494e-08 1.343341704540535e-08 1.6627085486220494e-08 -8.339122359757312e-06" pbc="T T T"
Y        1.53236467       1.08354592       2.65413310      -0.00000120       0.00000095       0.00000044
Y        4.59709310       3.25063577       7.96239927       0.00000155       0.00000060       0.00000306
Rh       0.00000018      -0.00000006      -0.00000011      -0.00000080       0.00000046      -0.00000638
O        1.56739598       1.10831641       5.30826608      -0.00176108      -0.00124534      -0.00000011
O        4.56206185       3.22586467       5.30826605       0.00176157       0.00124385      -0.00000029
O        3.81339526       1.10831635       4.01153753       0.00087985      -0.00124369      -0.00152501
O        2.31606214       3.22586473       6.60499449      -0.00088266       0.00124679       0.00152798
O        2.31606248       3.22586471       4.01153741      -0.00087859       0.00124399      -0.00152612
O        3.81339522       1.10831599       6.60499446       0.00088117      -0.00124768       0.00152640
