9
Lattice="4.597389558386009 5.636509997879042e-09 2.6543040286753703 1.532463186980552 4.334460359235553 2.65430403640426 -2.1252066877177052e-08 -5.561557131533902e-09 5.308608094160373" Properties=species:S:1:pos:R:3:forces:R:3 energy=-66.55785369873047 free_energy=-66.55785369873047 stress="0.0001392850826960057 -1.1191328752602203e-08 -1.5577501955021944e-08 -1.1191328752602203e-08 0.00013916782336309552 -2.003894650215443e-08 -1.5577501955021944e-08 -2.003894650215443e-08 0.00013928402040619403" pbc="T T T"
Y        1.53246295       1.08361500       2.65430389       0.00000102       0.00000111       0.00000082
Y        4.59738988       3.25084547       7.96291206      -0.00000109      -0.00000162       0.00000020
Rh       0.00000003       0.00000003      -0.00000012       0.00000013       0.00000178       0.00000030
O        1.56742521       1.10833690       5.30860808      -0.00174429      -0.00123210      -0.00000010
O        4.56242751       3.22612349       5.30860822       0.00174247       0.00123042      -0.00000045
O        3.81367687       1.10833678       4.01173416       0.00087187      -0.00123045      -0.00150949
O        2.31617574       3.22612359       6.60548212      -0.00087081       0.00123022       0.00150821
O        2.31617571       3.22612347       4.01173416      -0.00087079       0.00123129      -0.00150849
O        3.81367699       1.10833678       6.60548199       0.00087122      -0.00123087       0.00150880
