9
Lattice="5.497588405891156 4.3904079924806384e-08 3.1740342272432223 1.8325294970016017 5.183176300148633 3.174034249797871 1.7524443592924047e-08 4.001533706625949e-08 6.348068424133256" Properties=species:S:1:pos:R:3:forces:R:3 energy=-52.95429611206055 free_energy=-52.95429611206055 stress="-0.00017457231297157705 -3.1876492556648373e-09 4.524771668457106e-09 -3.1876492556648373e-09 -0.00017459433001931757 -1.0703636199593802e-08 4.524771668457106e-09 -1.0703636199593802e-08 -0.00017448840662837029" pbc="T T T"
Y        1.83252934       1.29579392       3.17403437      -0.00000105       0.00000027       0.00000025
Y        5.49758832       3.88738249       9.52210288       0.00000017       0.00000010       0.00000105
Rh       0.00000002      -0.00000015      -0.00000018      -0.00000206       0.00000145       0.00000461
S        1.86630073       1.31967403       6.34806844      -0.00127822      -0.00090396       0.00000059
S        5.46381726       3.86350238       6.34806837       0.00128013       0.00090492      -0.00000042
S        4.56443787       1.31967420       4.79029817       0.00064060      -0.00090647      -0.00110978
S        2.76567986       3.86350260       7.90583873      -0.00063825       0.00090122       0.00110543
S        2.76568018       3.86350218       4.79029830      -0.00064102       0.00090593      -0.00110829
S        4.56443811       1.31967395       7.90583864       0.00063986      -0.00090355       0.00110608
