9
Lattice="5.783354056851286 1.1169505663861313e-07 3.339020962327902 1.9277847935481343 5.452598610618504 3.3390209577831134 -1.6895316134264124e-08 -1.751301968712801e-08 6.678041953919341" Properties=species:S:1:pos:R:3:forces:R:3 energy=-48.8676872253418 free_energy=-48.8676872253418 stress="-0.00015004321176093072 -7.342728647330432e-10 1.1564582180767502e-08 -7.342728647330432e-10 -0.0001500532525824383 -1.6537221370072075e-08 1.1564582180767502e-08 -1.6537221370072075e-08 -0.00015005070599727333" pbc="T T T"
Y        1.92778479       1.36314958       3.33902101       0.00000076      -0.00000059      -0.00000025
Y        5.78335426       4.08944935      10.01706344       0.00000126       0.00000086       0.00000092
Rh       0.00000017       0.00000011       0.00000001      -0.00000342      -0.00000149      -0.00000298
Se       1.97260264       1.39484071       6.67804186       0.00001791       0.00001192       0.00000086
Se       5.73853595       4.05775774       6.67804173      -0.00001559      -0.00001028      -0.00000001
Se       4.79705285       1.39484072       5.04734482      -0.00000946       0.00001317       0.00001529
Se       2.91408594       4.05775804       8.30873894       0.00000790      -0.00001189      -0.00001472
Se       2.91408607       4.05775789       5.04734481       0.00000945      -0.00001237       0.00001505
Se       4.79705265       1.39484066       8.30873889      -0.00000885       0.00001085      -0.00001433
