9
Lattice="5.49683683035733 -2.7382460139001827e-08 3.1736002356123683 1.8322788971152588 5.182467632759974 3.1736002711553293 -8.671007503354695e-08 -1.7782190273949504e-08 6.347200621410988" Properties=species:S:1:pos:R:3:forces:R:3 energy=-52.95426940917969 free_energy=-52.95426940917969 stress="-0.00031702854903414845 5.6377196244739025e-09 2.8333253965229233e-08 5.6377196244739025e-09 -0.0003170026757288724 3.165468775989666e-09 2.8333253965229233e-08 3.165468775989666e-09 -0.0003169960400555283" pbc="T T T"
Y        1.83227891       1.29561679       3.17360028       0.00000065      -0.00000003       0.00000023
Y        5.49683665       3.88685050       9.52080100      -0.00000045      -0.00000032       0.00000091
Rh      -0.00000001      -0.00000006       0.00000026       0.00000042       0.00000254      -0.00000285
S        1.86636269       1.31971779       6.34720052      -0.00467944      -0.00330770      -0.00000040
S        5.46275295       3.86275001       6.34720037       0.00467706       0.00330752       0.00000002
S        4.56365542       1.31971782       4.78991788       0.00233975      -0.00330859      -0.00405258
S        2.76546025       3.86274971       7.90448317      -0.00233942       0.00330812       0.00405186
S        2.76546044       3.86274980       4.78991799      -0.00234011       0.00330871      -0.00405222
S        4.56365526       1.31971793       7.90448305       0.00234133      -0.00331026       0.00405467
