9
Lattice="5.476054087113942 -1.6654282575922267e-08 3.1616012404553078 1.825351378910523 5.162873305811894 3.1616011846121865 4.7008124424477616e-09 -6.506955439065655e-08 6.32320247276853" Properties=species:S:1:pos:R:3:forces:R:3 energy=-54.5927734375 free_energy=-54.5927734375 stress="-0.0001487354893470183 4.4644979380059624e-10 -2.2802172594538206e-08 4.4644979380059624e-10 -0.00014871037274133414 -2.514420316401811e-08 -2.2802172594538206e-08 -2.514420316401811e-08 -0.00014871031453367323" pbc="T T T"
Y        1.82535148       1.29071779       3.16160119       0.00000023      -0.00000038      -0.00000075
Y        5.47605416       3.87215463       9.48480413      -0.00000006      -0.00000022       0.00000066
Ru       0.00000012      -0.00000003       0.00000017       0.00000030      -0.00000174       0.00000113
S        1.87043490       1.32259726       6.32320256      -0.00108153      -0.00076443      -0.00000029
S        5.43097028       3.84027622       6.32320231       0.00108308       0.00076589       0.00000142
S        4.54083670       1.32259758       4.78144500       0.00054058      -0.00076425      -0.00093716
S        2.76056874       3.84027644       7.86495949      -0.00054023       0.00076389       0.00093609
S        2.76056890       3.84027622       4.78144513      -0.00054213       0.00076476      -0.00093651
S        4.54083671       1.32259669       7.86495974       0.00054023      -0.00076365       0.00093549
