9
Lattice="5.476224951988902 -6.425454242317784e-08 3.161699880952697 1.825408260392932 5.163034417765371 3.1616998746427716 -7.107590928055108e-08 -5.7986334950086186e-08 6.323399885012463" Properties=species:S:1:pos:R:3:forces:R:3 energy=-54.592777252197266 free_energy=-54.592777252197266 stress="-0.00011359750351402909 -5.680090620074907e-09 -4.562392241780344e-09 -5.680090620074907e-09 -0.00011361241195118055 5.896865662435857e-09 -4.562392241780344e-09 5.896865662435857e-09 -0.00011358529445715249" pbc="T T T"
Y        1.82540850       1.29075857       3.16170002       0.00000054      -0.00000025      -0.00000025
Y        5.47622489       3.87227580       9.48509999      -0.00000019       0.00000050      -0.00000001
Ru       0.00000013       0.00000001       0.00000012       0.00000030      -0.00000005       0.00000114
S        1.87044605       1.32260492       6.32339974      -0.00053102      -0.00037450      -0.00000044
S        5.43118722       3.84042947       6.32339964       0.00052911       0.00037417       0.00000010
S        4.54100169       1.32260509       4.78155345       0.00026637      -0.00037459      -0.00045925
S        2.76063114       3.84042919       7.86524607      -0.00026315       0.00037402       0.00045806
S        2.76063124       3.84042928       4.78155340      -0.00026566       0.00037429      -0.00045764
S        4.54100176       1.32260486       7.86524608       0.00026414      -0.00037375       0.00045764
