9
Lattice="4.549630805483447 1.207351938292059e-07 2.6267304181173086 1.516543752615898 4.289432815114392 2.6267303541044402 2.0885472954367005e-07 6.92831524996628e-08 5.25346047448764" Properties=species:S:1:pos:R:3:forces:R:3 energy=-68.80270385742188 free_energy=-68.80270385742188 stress="-0.00024900826974771917 1.5713408174633514e-07 -1.5634814332088354e-08 1.5713408174633514e-07 -0.000248987547820434 2.2632914209452792e-08 -1.5634814332088354e-08 2.2632914209452792e-08 -0.00024918795679695904" pbc="T T T"
Y        1.51654390       1.07235824       2.62673006      -0.00000081       0.00000008       0.00000124
Y        4.54963107       3.21707483       7.88019114      -0.00000089      -0.00000031      -0.00000127
Ru       0.00000008      -0.00000000      -0.00000021       0.00000128      -0.00000276       0.00000496
N        1.55120365       1.09686640       5.25346050       0.00599587       0.00423914      -0.00000142
N        4.51497124       3.19256650       5.25346094      -0.00599515      -0.00423908       0.00000008
N        3.77402943       1.09686616       3.97011164      -0.00300050       0.00424504       0.00519848
N        2.29214518       3.19256676       6.53680984       0.00300139      -0.00424445      -0.00519943
N        2.29214502       3.19256664       3.97011152       0.00299978      -0.00424123       0.00519490
N        3.77402971       1.09686632       6.53680975      -0.00300092       0.00424343      -0.00519800
