9
Lattice="4.6266974318240495 -7.00679835854206e-08 2.6712251005787024 1.542232456917145 4.362092104219781 2.6712250214184836 4.0116643022086096e-08 -6.858432036779764e-08 5.3424501316733535" Properties=species:S:1:pos:R:3:forces:R:3 energy=-69.7173080444336 free_energy=-69.7173080444336 stress="9.77934105321765e-05 -6.535814378594296e-08 1.1721189352442707e-08 -6.535814378594296e-08 9.787457383936271e-05 -3.1507770614780384e-08 1.1721189352442707e-08 -3.1507770614780384e-08 9.787375893210992e-05" pbc="T T T"
Y        1.54223216       1.09052304       2.67122495       0.00000048       0.00000023      -0.00000151
Y        4.62669760       3.27156915       8.01367523      -0.00000173      -0.00000008       0.00000031
Ru       0.00000024      -0.00000022      -0.00000012      -0.00000505       0.00001185      -0.00001027
O        1.55343648       1.09844530       5.34245012      -0.00058264      -0.00040987      -0.00000064
O        4.61549362       3.26364673       5.34245014       0.00057486       0.00040632       0.00000034
O        3.84997945       1.09844514       4.01654063       0.00029476      -0.00041141      -0.00050247
O        2.31895049       3.26364670       6.66835993      -0.00029136       0.00041279       0.00050177
O        2.31895082       3.26364662       4.01654020      -0.00028713       0.00040746      -0.00049901
O        3.84997899       1.09844539       6.66835996       0.00029777      -0.00041699       0.00051109
