9
Lattice="5.792673702150286 1.5513013879812538e-07 3.344401779578519 1.9308913435970199 5.461385258931199 3.344401843164111 1.2841828188998994e-08 8.695669304504733e-08 6.688803536914335" Properties=species:S:1:pos:R:3:forces:R:3 energy=-50.70909881591797 free_energy=-50.70909881591797 stress="-0.0001701801229501143 4.878370418737177e-08 -1.0746851408782732e-08 4.878370418737177e-08 -0.00017025340639520437 5.726544127782063e-09 -1.0746851408782732e-08 5.726544127782063e-09 -0.00017024755652528256" pbc="T T T"
Y        1.93089038       1.36534594       3.34440101      -0.00000322      -0.00000162      -0.00000163
Y        5.79267329       4.09603927      10.03320535      -0.00000262       0.00000018      -0.00000128
Ru       0.00000028       0.00000015      -0.00000008      -0.00000407      -0.00000251       0.00000078
Se       1.97695897       1.39792138       6.68880371      -0.00159100      -0.00112641      -0.00000018
Se       5.74660607       4.06346392       6.68880380       0.00159857       0.00113043       0.00000108
Se       4.80419457       1.39792130       5.05649872       0.00079626      -0.00112757      -0.00137866
Se       2.91937113       4.06346428       8.32110882      -0.00079478       0.00112659       0.00137916
Se       2.91937107       4.06346449       5.05649856      -0.00079513       0.00112663      -0.00137749
Se       4.80419452       1.39792127       8.32110880       0.00079605      -0.00112560       0.00137812
