9
Lattice="5.97480626497579 -4.263282075738252e-08 3.4495560216238905 1.991602094561068 5.633101342705159 3.449555941204051 2.3981840733874376e-08 -8.15360559969711e-08 6.899112001709938" Properties=species:S:1:pos:R:3:forces:R:3 energy=-43.45466995239258 free_energy=-43.45466995239258 stress="-0.0001042325675371103 3.293380856916883e-08 -9.678556622816359e-09 3.293380856916883e-08 -0.00010422711056889966 4.457481139752417e-08 -9.678556622816359e-09 4.457481139752417e-08 -0.0001042465737555176" pbc="T T T"
Y        1.99160228       1.40827542       3.44955605       0.00000194      -0.00000035       0.00000089
Y        5.97480594       4.22482578      10.34866795      -0.00000133      -0.00000073       0.00000026
Sb       0.00000013       0.00000002       0.00000012       0.00000088      -0.00000319      -0.00000194
Se       2.09506384       1.48143358       6.89911195      -0.00064415      -0.00045742      -0.00000322
Se       5.87134446       4.15166757       6.89911184       0.00064579       0.00045648      -0.00000063
Se       4.92727465       1.48143363       5.26393419       0.00032244      -0.00045408      -0.00055812
Se       3.03913386       4.15166731       8.53428972      -0.00032514       0.00045675       0.00056057
Se       3.03913393       4.15166792       5.26393420      -0.00032069       0.00045731      -0.00055846
Se       4.92727442       1.48143364       8.53428984       0.00032006      -0.00045472       0.00056057
