9
Lattice="4.7819279281109495 -5.205143378415019e-08 2.7608474116141157 1.5939759338640287 4.508444750175726 2.760847399660208 1.129027870002009e-07 6.519383888048784e-08 5.5216946276748615" Properties=species:S:1:pos:R:3:forces:R:3 energy=-60.33326721191406 free_energy=-60.33326721191406 stress="-6.435513932956383e-05 -1.257000405985309e-07 -1.8055160921903735e-08 -1.257000405985309e-07 -6.435293471440673e-05 -5.4813586558566385e-08 -1.8055160921903735e-08 -5.4813586558566385e-08 -6.452890374930575e-05" pbc="T T T"
Y        1.59397617       1.12711127       2.76084749      -0.00000046       0.00000005      -0.00000057
Y        4.78192793       3.38133366       8.28254186      -0.00000011       0.00000051      -0.00000113
Sb       0.00000005       0.00000018       0.00000012       0.00000314      -0.00000629       0.00000041
N        1.70209743       1.20356452       5.52169467       0.00103390       0.00073230      -0.00000005
N        4.67380653       3.30488030       5.52169468      -0.00103319      -0.00073242       0.00000111
N        3.93087937       1.20356467       4.23490720      -0.00051540       0.00073123       0.00089252
N        2.44502468       3.30487992       6.80848198       0.00051391      -0.00072753      -0.00088906
N        2.44502474       3.30488003       4.23490719       0.00051421      -0.00072777       0.00089049
N        3.93087920       1.20356455       6.80848219      -0.00051498       0.00072992      -0.00089228
