9
Lattice="4.653897550979771 8.163674399157054e-08 2.686928945184099 1.551299226167137 4.387736745075506 2.686929004871684 3.965513673039085e-08 1.011425008249196e-07 5.373857821683483" Properties=species:S:1:pos:R:3:forces:R:3 energy=-65.81555938720703 free_energy=-65.81555938720703 stress="0.0001001964628812857 3.8447304007149796e-08 7.153855108299467e-08 3.8447304007149796e-08 0.00010008020763052627 -4.371505468725445e-08 7.153855108299467e-08 -4.371505468725445e-08 0.00010013460268964991" pbc="T T T"
Y        1.55129932       1.09693493       2.68692895       0.00000082       0.00000085       0.00000091
Y        4.65389742       3.29080257       8.06078682      -0.00000271       0.00000220       0.00000056
Sb       0.00000007      -0.00000009      -0.00000005      -0.00000958       0.00000090      -0.00000335
O        1.59105633       1.12504664       5.37385791      -0.00231528      -0.00163418       0.00000182
O        4.61414028       3.26268986       5.37385781       0.00232178       0.00163543      -0.00000071
O        3.85836922       1.12504676       4.06482409       0.00115806      -0.00163662      -0.00200909
O        2.34682757       3.26269027       6.68289171      -0.00115696       0.00163299       0.00200611
O        2.34682768       3.26269018       4.06482410      -0.00115740       0.00163937      -0.00200731
O        3.85836931       1.12504675       6.68289155       0.00116074      -0.00164104       0.00201148
