9
Lattice="5.7065332148900225 -3.243355796373434e-08 3.294668472311079 1.902177697707507 5.380170903130738 3.294668489649739 -4.129737612963476e-08 -7.9661941166098e-09 6.589337016151289" Properties=species:S:1:pos:R:3:forces:R:3 energy=-47.66559982299805 free_energy=-47.66559982299805 stress="1.3380276868701912e-05 -1.6721740436764776e-08 -4.0018090174953613e-08 -1.6721740436764776e-08 1.3412004591373261e-05 4.7675836611915656e-08 -4.0018090174953613e-08 4.7675836611915656e-08 1.3389778359851334e-05" pbc="T T T"
Y        1.90217721       1.34504260       3.29466831       0.00000016      -0.00000154      -0.00000159
Y        5.70653319       4.03512843       9.88400626      -0.00000153       0.00000141       0.00000533
Sb       0.00000017      -0.00000020      -0.00000011      -0.00000342       0.00000571       0.00000300
S        1.98558794       1.40402250       6.58933690      -0.00699675      -0.00494841       0.00000065
S        5.62312304       3.97614836       6.58933677       0.00699764       0.00494730      -0.00000101
S        4.71373955       1.40402289       5.01423843       0.00350411      -0.00495026      -0.00606376
S        2.89497136       3.97614832       8.16443570      -0.00350098       0.00494838       0.00605667
S        2.89497195       3.97614825       5.01423784      -0.00349583       0.00494677      -0.00605932
S        4.71373910       1.40402230       8.16443589       0.00349700      -0.00494939       0.00605991
