9
Lattice="6.427070638404393 8.239496606237915e-08 3.7106709335775228 2.1423569331682972 6.059500334482083 3.7106709751165363 5.617869012353493e-09 5.4847105171163566e-08 7.421341857424633" Properties=species:S:1:pos:R:3:forces:R:3 energy=-38.92298126220703 free_energy=-38.92298126220703 stress="-0.0002830184530466795 1.288903206386749e-08 -1.0796681770841587e-08 1.288903206386749e-08 -0.00028300975100137293 8.035009879669985e-10 -1.0796681770841587e-08 8.035009879669985e-10 -0.0002830001467373222" pbc="T T T"
Y        2.14235708       1.51487504       3.71067108       0.00000066      -0.00000073       0.00000092
Y        6.42707065       4.54462565      11.13201288      -0.00000073       0.00000149       0.00000070
Sb       0.00000011       0.00000010      -0.00000020      -0.00000103       0.00000137       0.00000060
Te       2.29204058       1.62071750       7.42134203      -0.00425878      -0.00301272      -0.00000066
Te       6.27738695       4.43878269       7.42134192       0.00425927       0.00301202      -0.00000003
Te       5.28105036       1.62071740       5.69563617       0.00212911      -0.00301210      -0.00368854
Te       3.28837696       4.43878307       9.14704753      -0.00212834       0.00301109       0.00368685
Te       3.28837718       4.43878316       5.69563613      -0.00212949       0.00301181      -0.00368737
Te       5.28105041       1.62071732       9.14704755       0.00212945      -0.00301234       0.00368749
