9
Lattice="6.427237627932925 2.0914994515273227e-08 3.7107673915715513 2.1424125612235616 6.059657665478992 3.710767393545407 -6.844258058759114e-09 -2.422173801580599e-09 7.4215347949977595" Properties=species:S:1:pos:R:3:forces:R:3 energy=-38.922996520996094 free_energy=-38.922996520996094 stress="-0.00025982974329963326 -7.737527063511607e-09 -1.2645877234263025e-08 -7.737527063511607e-09 -0.0002598334103822708 9.189195182557341e-09 -1.2645877234263025e-08 9.189195182557341e-09 -0.00025978454505093396" pbc="T T T"
Y        2.14241238       1.51491442       3.71076724      -0.00000079       0.00000034      -0.00000036
Y        6.42723767       4.54474341      11.13230230       0.00000026       0.00000044       0.00000029
Sb      -0.00000010      -0.00000006      -0.00000031      -0.00000241      -0.00000123       0.00000081
Te       2.29199148       1.62068279       7.42153488      -0.00308040      -0.00217893      -0.00000040
Te       6.27765863       4.43897477       7.42153467       0.00308347       0.00217941      -0.00000029
Te       5.28124183       1.62068282       5.69569047       0.00154091      -0.00218030      -0.00266883
Te       3.28840849       4.43897499       9.14737933      -0.00154105       0.00217984       0.00266951
Te       3.28840851       4.43897482       5.69569044      -0.00154164       0.00217941      -0.00266956
Te       5.28124185       1.62068277       9.14737930       0.00154153      -0.00217904       0.00266889
