9
Lattice="5.706801453926333 3.2482208453132246e-08 3.2948233893769636 1.9022671603076469 5.380424080635244 3.2948234268337124 -2.0676761585105456e-08 3.125429350995725e-08 6.589646814567116" Properties=species:S:1:pos:R:3:forces:R:3 energy=-47.66561508178711 free_energy=-47.66561508178711 stress="-4.059628918184899e-05 3.76980153760087e-08 4.508891315868624e-10 3.76980153760087e-08 -4.0636459743836895e-05 2.4422213140695703e-09 4.508891315868624e-10 2.4422213140695703e-09 -4.0626964619150385e-05" pbc="T T T"
Y        1.90226716       1.34510659       3.29482348      -0.00000073       0.00000254      -0.00000003
Y        5.70680120       4.03531745       9.88447019      -0.00000151      -0.00000409      -0.00000168
Sb       0.00000007       0.00000014       0.00000004      -0.00000231      -0.00000458       0.00000027
S        1.98531475       1.40383015       6.58964696      -0.00041005      -0.00028825      -0.00000048
S        5.62375363       3.97659415       6.58964694       0.00041354       0.00029126      -0.00000082
S        4.71414413       1.40382978       5.01415646       0.00020508      -0.00028729      -0.00035378
S        2.89492501       3.97659415       8.16513707      -0.00020365       0.00029051       0.00035757
S        2.89492449       3.97659441       5.01415634      -0.00020561       0.00028810      -0.00035560
S        4.71414392       1.40382979       8.16513705       0.00020537      -0.00028855       0.00035468
