9
Lattice="5.500987254072452 -2.757883336276225e-07 3.1759968232936195 1.8336622075762874 5.186380771733438 3.175996737439549 7.8239790688139e-09 -9.961699344303453e-08 6.351993633035729" Properties=species:S:1:pos:R:3:forces:R:3 energy=-46.381473541259766 free_energy=-46.381473541259766 stress="-8.289035758934915e-05 -1.9047405430683284e-07 5.056031682215689e-08 -1.9047405430683284e-07 -8.270969556178898e-05 2.4987658164832283e-08 5.056031682215689e-08 2.4987658164832283e-08 -8.260992763098329e-05" pbc="T T T"
Y        1.83366157       1.29659643       3.17599565      -0.00000399       0.00000818      -0.00000917
Y        5.50098766       3.88978441       9.52799323       0.00000258      -0.00000683       0.00001690
Se      -0.00000163       0.00000073       0.00000108       0.00002187      -0.00000637      -0.00001551
S        1.88526752       1.33308601       6.35199498       0.00440425       0.00311860       0.00000550
S        5.44938286       3.85329437       6.35199196      -0.00441164      -0.00312352      -0.00000604
S        4.55835382       1.33308692       4.80868690      -0.00219956       0.00311798       0.00381294
S        2.77629644       3.85329294       7.89529849       0.00218949      -0.00310794      -0.00380331
S        2.77629748       3.85329385       4.80868706       0.00219786      -0.00310907       0.00380740
S        4.55835224       1.33308586       7.89529918      -0.00220074       0.00310871      -0.00380906
