9
Lattice="4.545889689692477 1.271686233311694e-08 2.624570638706732 1.5152965724165586 4.285905928831154 2.62457064356313 -1.7935147488430818e-10 5.821023950379141e-09 5.249141277724111" Properties=species:S:1:pos:R:3:forces:R:3 energy=-64.98247528076172 free_energy=-64.98247528076172 stress="-0.0002113387599820271 -5.082482346097095e-08 5.455438767398846e-08 -5.082482346097095e-08 -0.00021137535804882646 -6.679658071107042e-08 5.455438767398846e-08 -6.679658071107042e-08 -0.00021130789536982775" pbc="T T T"
Y        1.51529662       1.07147649       2.62457062       0.00000084      -0.00000007       0.00000037
Y        4.54588965       3.21442945       7.87371195      -0.00000012       0.00000007       0.00000078
Se       0.00000004       0.00000013       0.00000012      -0.00000228      -0.00000668      -0.00000330
O        1.47407082       1.04232551       5.24914125       0.00792262       0.00560109      -0.00000057
O        4.58711546       3.24358040       5.24914129      -0.00791755      -0.00559868       0.00000098
O        3.80885428       1.04232551       3.90115342      -0.00396236       0.00560459       0.00686225
O        2.25233199       3.24358038       6.59712910       0.00396036      -0.00560056      -0.00685951
O        2.25233197       3.24358035       3.90115346       0.00395940      -0.00560047       0.00685705
O        3.80885422       1.04232557       6.59712904      -0.00396103       0.00560118      -0.00685826
