9
Lattice="4.683443905706535 -5.0456894272733544e-08 2.7039874620452884 1.5611480131597606 4.415593160429293 2.7039873024157455 1.0309360361810089e-08 -1.8821563372932394e-07 5.407974906234195" Properties=species:S:1:pos:R:3:forces:R:3 energy=-62.2143669128418 free_energy=-62.2143669128418 stress="-0.00013805716298520565 5.166576944048984e-09 3.781183721685011e-08 5.166576944048984e-09 -0.00013794588448945433 6.154758835918983e-08 3.781183721685011e-08 6.154758835918983e-08 -0.00013807197683490813" pbc="T T T"
Y        1.56114789       1.10389829       2.70398752       0.00000050      -0.00000048      -0.00000049
Y        4.68344402       3.31169457       8.11196217      -0.00000079       0.00000059      -0.00000067
Se       0.00000003       0.00000021      -0.00000006       0.00000005      -0.00000737      -0.00000121
N        1.53006312       1.08191822       5.40797516      -0.00514615      -0.00364077      -0.00000108
N        4.71452855       3.33367476       5.40797503       0.00514913       0.00364369       0.00000045
N        3.91841249       1.08191833       4.02906093       0.00257164      -0.00364047      -0.00445545
N        2.32617992       3.33367465       6.78688854      -0.00257427       0.00364363       0.00445819
N        2.32617961       3.33367463       4.02906095      -0.00257301       0.00364083      -0.00445485
N        3.91841190       1.08191781       6.78688855       0.00257331      -0.00363922       0.00445426
