9
Lattice="5.427746226133865 7.74266625829425e-08 3.133710712364236 1.8092487494867284 5.117328426560837 3.1337108259113293 -6.204177969804654e-08 9.519603207409615e-08 6.267421532188087" Properties=species:S:1:pos:R:3:forces:R:3 energy=-51.90034484863281 free_energy=-51.90034484863281 stress="-0.0002466287405695766 4.7760398302898466e-08 -1.4769917233703467e-10 4.7760398302898466e-08 -0.00024666692479513586 2.8036746257953382e-09 -1.4769917233703467e-10 2.8036746257953382e-09 -0.00024672941071912646" pbc="T T T"
Y        1.80924864       1.27933230       3.13371079      -0.00000054       0.00000009       0.00000265
Y        5.42774625       3.83799606       9.40113227      -0.00000012      -0.00000131      -0.00000084
Si       0.00000005       0.00000010      -0.00000014      -0.00000118      -0.00000092      -0.00000281
S        1.81641732       1.28440126       6.26742135      -0.00189370      -0.00133699      -0.00000067
S        5.42057746       3.83292703       6.26742170       0.00189775       0.00134012      -0.00000188
S        4.51953752       1.28440118       4.70677441       0.00094554      -0.00133747      -0.00163859
S        2.71745743       3.83292777       7.82806856      -0.00094852       0.00133914       0.00163919
S        2.71745749       3.83292744       4.70677439      -0.00094548       0.00133690      -0.00163919
S        4.51953756       1.28440125       7.82806890       0.00094610      -0.00133973       0.00164181
