9
Lattice="4.442898710249066 6.821016592347728e-08 2.565108847452583 1.480966229783469 4.1888053926538475 2.5651089709051678 -7.79020495382025e-08 9.611284396074547e-08 5.130217829835469" Properties=species:S:1:pos:R:3:forces:R:3 energy=-71.11292266845703 free_energy=-71.11292266845703 stress="-4.860100307269022e-05 -7.544003466364302e-08 -2.1173727660084296e-08 -7.544003466364302e-08 -4.868680116487667e-05 -6.728561174895731e-08 -2.1173727660084296e-08 -6.728561174895731e-08 -4.8572914238320664e-05" pbc="T T T"
Y        1.48096649       1.04720136       2.56510888      -0.00000243       0.00000034       0.00000118
Y        4.44289856       3.14160416       7.69532683       0.00000071       0.00000125      -0.00000094
Si      -0.00000006      -0.00000005       0.00000003       0.00000239       0.00000018      -0.00000034
O        1.44237801       1.01991565       5.13021784      -0.00003374      -0.00002629       0.00000032
O        4.48148684       3.16889014       5.13021774       0.00003195       0.00002348      -0.00000031
O        3.72170946       1.01991547       3.81424537       0.00002015      -0.00002539      -0.00003409
O        2.20215521       3.16888992       6.44619046      -0.00001639       0.00002724       0.00003278
O        2.20215520       3.16889003       3.81424538      -0.00001770       0.00002635      -0.00003445
O        3.72170970       1.01991577       6.44619029       0.00001615      -0.00002658       0.00003338
