9
Lattice="6.244189962282077 -2.5880576272401418e-08 3.6050847235093193 2.081396626836372 5.887078754758621 3.6050847284581944 -1.749410222386267e-08 -6.3090935540438565e-09 7.210169477319328" Properties=species:S:1:pos:R:3:forces:R:3 energy=-41.38817596435547 free_energy=-41.38817596435547 stress="1.2346371477178764e-05 2.4769426509863024e-09 1.2998373488670723e-09 2.4769426509863024e-09 1.235005765920505e-05 3.796016834201055e-09 1.2998373488670723e-09 3.796016834201055e-09 1.2346979019639548e-05" pbc="T T T"
Y        2.08139661       1.47176899       3.60508497      -0.00000001      -0.00000089      -0.00000001
Y        6.24419021       4.41530881      10.81525463       0.00000071      -0.00000041       0.00000054
Si      -0.00000003       0.00000004      -0.00000014       0.00000038       0.00000030      -0.00000009
Te       2.10631273       1.48938835       7.21016945       0.00200711       0.00141982       0.00000002
Te       6.21927372       4.39769084       7.21016928      -0.00200825      -0.00141963      -0.00000048
Te       5.19103350       1.48938811       5.42920507      -0.00100424       0.00142008       0.00173916
Te       3.13455298       4.39769089       8.99113365       0.00100420      -0.00141958      -0.00173935
Te       3.13455307       4.39769084       5.42920512       0.00100425      -0.00141945       0.00173944
Te       5.19103353       1.48938800       8.99113370      -0.00100419       0.00141975      -0.00173936
