9
Lattice="4.464334960079467 4.698142974472094e-08 2.577485282548021 1.4881116414672582 4.209016117061464 2.577485379866911 -7.557364095949878e-08 6.575216892422492e-08 5.154970695993413" Properties=species:S:1:pos:R:3:forces:R:3 energy=-67.56704711914062 free_energy=-67.56704711914062 stress="0.0003723389527294785 -1.1291783863498495e-07 3.335015463790114e-08 -1.1291783863498495e-07 0.00037219192017801106 -7.126896406361993e-08 3.335015463790114e-08 -7.126896406361993e-08 0.00037238304503262043" pbc="T T T"
Y        1.48811146       1.05225404       2.57748551       0.00000210       0.00000023      -0.00000218
Y        4.46433502       3.15676216       7.73245598      -0.00000136      -0.00000050      -0.00000043
Si      -0.00000008       0.00000024       0.00000015       0.00000227      -0.00000550      -0.00000777
N        1.46779910       1.03789079       5.15497066       0.00468034       0.00330991      -0.00000027
N        4.48464787       3.17112539       5.15497085      -0.00468403      -0.00330961       0.00000089
N        3.73043560       1.03789103       3.84863664      -0.00234082       0.00330985       0.00405353
N        2.22201130       3.17112524       6.46130431       0.00233829      -0.00330496      -0.00404668
N        2.22201094       3.17112535       3.84863678       0.00234079      -0.00330776       0.00405264
N        3.73043534       1.03789101       6.46130433      -0.00233760       0.00330770      -0.00404882
