9
Lattice="5.6605409311223545 7.200050757485628e-08 3.2681147226882516 1.886846994258126 5.336809114005487 3.2681148104432403 1.040787691944028e-08 1.1483694933505083e-07 6.536229427349528" Properties=species:S:1:pos:R:3:forces:R:3 energy=-48.214195251464844 free_energy=-48.214195251464844 stress="-8.680496830493212e-05 1.1918534603694297e-08 2.5795758418212245e-08 1.1918534603694297e-08 -8.68227580212988e-05 4.334725023369401e-09 2.5795758418212245e-08 4.334725023369401e-09 -8.67777707753703e-05" pbc="T T T"
Y        1.88684712       1.33420218       3.26811489      -0.00000025      -0.00000188      -0.00000002
Y        5.66054142       4.00260753       9.80434463       0.00000090       0.00000218       0.00000037
Sn      -0.00000002      -0.00000022      -0.00000009      -0.00000018       0.00000115      -0.00000059
S        1.98031313       1.40029301       6.53622938      -0.00303578      -0.00214669       0.00000038
S        5.56707460       3.93651623       6.53622946       0.00303710       0.00214675       0.00000109
S        4.67038396       1.40029306       4.98311611       0.00151624      -0.00214672      -0.00262970
S        2.87700360       3.93651635       8.08934255      -0.00151786       0.00214684       0.00262964
S        2.87700366       3.93651653       4.98311645      -0.00151798       0.00214669      -0.00262803
S        4.67038430       1.40029249       8.08934251       0.00151750      -0.00214833       0.00262678
