9
Lattice="4.705178272004891 -1.4691932594795968e-07 2.7165357663094865 1.5683926685409468 4.4360842298513585 2.7165356801869396 1.2917219224061204e-07 -1.4139558943569202e-08 5.433071308886143" Properties=species:S:1:pos:R:3:forces:R:3 energy=-58.137298583984375 free_energy=-58.137298583984375 stress="0.00024884872254915535 -3.3425255452357305e-08 4.853323520848107e-09 -3.3425255452357305e-08 0.00024897223920561373 3.422651051465664e-10 4.853323520848107e-09 3.422651051465664e-10 0.00024897398543544114" pbc="T T T"
Y        1.56839256       1.10902104       2.71653556       0.00000350      -0.00000217       0.00000288
Y        4.70517853       3.32706303       8.14960695      -0.00000343      -0.00000175       0.00000189
Sn       0.00000005      -0.00000086       0.00000101      -0.00000442       0.00002244      -0.00002497
N        1.71088815       1.20978019       5.43307139      -0.00445521      -0.00315106      -0.00000129
N        4.56268369       3.22630392       5.43307143       0.00444949       0.00314695      -0.00000143
N        3.84973427       1.20978022       4.19820832       0.00222588      -0.00314784      -0.00385547
N        2.42383675       3.22630321       6.66793461      -0.00222772       0.00315028       0.00385761
N        2.42383635       3.22630462       4.19820772      -0.00222123       0.00314152      -0.00384688
N        3.84973390       1.20978085       6.66793394       0.00223243      -0.00315827       0.00386715
