9
Lattice="4.437900775787527 -5.6915867051112673e-08 2.5622232721795157 1.479300157808025 4.184093125153645 2.562223353805888 -8.694622501532366e-08 3.849124410685039e-08 5.124446694954265" Properties=species:S:1:pos:R:3:forces:R:3 energy=-65.79627990722656 free_energy=-65.79627990722656 stress="0.00012477226846385747 -2.132219520945e-07 -5.1236316522818015e-08 -2.132219520945e-07 0.00012466574844438583 -8.513621452266307e-08 -5.1236316522818015e-08 -8.513621452266307e-08 0.00012538890587165952" pbc="T T T"
Y        1.47930016       1.04602319       2.56222331       0.00000138       0.00000105      -0.00000065
Y        4.43790062       3.13806986       7.68667004       0.00000076      -0.00000086       0.00000123
S       -0.00000006       0.00000024       0.00000000       0.00001171       0.00000043      -0.00000590
N        1.39149884       0.98393834       5.12444659      -0.00338030      -0.00239098       0.00000122
N        4.52570239       3.20015476       5.12444666       0.00336289       0.00238156      -0.00000135
N        3.74215116       0.98393844       3.76729676       0.00169075      -0.00238967      -0.00293076
N        2.17504962       3.20015463       6.48159661      -0.00169146       0.00239599       0.00293541
N        2.17504950       3.20015486       3.76729668      -0.00168508       0.00239062      -0.00292838
N        3.74215116       0.98393822       6.48159663       0.00168842      -0.00238764       0.00292742
