9
Lattice="4.631204234209999 2.484351772417623e-09 2.67382684603928 1.543734726216194 4.366341283904849 2.6738268821745903 -7.002949101053e-08 -5.261784861312603e-09 5.347653813373158" Properties=species:S:1:pos:R:3:forces:R:3 energy=-63.35407638549805 free_energy=-63.35407638549805 stress="-0.00011455365893198177 -5.471576969284797e-08 1.2209015132214063e-08 -5.471576969284797e-08 -0.00011452709441073239 7.659239997792611e-08 1.2209015132214063e-08 7.659239997792611e-08 -0.00011426191485952586" pbc="T T T"
Y        1.54373451       1.09158524       2.67382720       0.00000092       0.00000171      -0.00000166
Y        4.63120441       3.27475605       8.02148079      -0.00000306      -0.00000364      -0.00000330
Sn      -0.00000056      -0.00000039      -0.00000102       0.00001928       0.00001626       0.00002272
O        1.64038367       1.15992670       5.34765385       0.00177026       0.00125033       0.00000084
O        4.53455539       3.20641478       5.34765374      -0.00178432      -0.00125962      -0.00000280
O        3.81101225       1.15992677       4.09444081      -0.00088495       0.00124937       0.00153279
O        2.36392677       3.20641465       6.60086703       0.00088835      -0.00125641      -0.00154328
O        2.36392647       3.20641431       4.09444085       0.00088310      -0.00125122       0.00153303
O        3.81101255       1.15992710       6.60086683      -0.00088948       0.00125408      -0.00154018
