9
Lattice="5.974583951677083 -7.297495500299774e-08 3.4494275949243063 1.9915279332238558 5.632891629794545 3.4494275635171103 -4.8484984330182226e-08 -7.274983624144149e-08 6.898855273827036" Properties=species:S:1:pos:R:3:forces:R:3 energy=-43.7393798828125 free_energy=-43.7393798828125 stress="-4.331602394813672e-05 1.476194455563018e-08 1.550983874665235e-08 1.476194455563018e-08 -4.3302130507072434e-05 -1.724445830575405e-08 1.550983874665235e-08 -1.724445830575405e-08 -4.334782715886831e-05" pbc="T T T"
Y        1.99152800       1.40822253       3.44942751       0.00000048      -0.00000043      -0.00000127
Y        5.97458372       4.22466894      10.34828299      -0.00000120       0.00000176       0.00000013
Sn      -0.00000014       0.00000011       0.00000011       0.00000123      -0.00000154      -0.00000252
Se       2.10853375       1.49095814       6.89885520      -0.00030969      -0.00022157      -0.00000141
Se       5.85757827       4.14193328       6.89885518       0.00030929       0.00022011       0.00000086
Se       4.92031742       1.49095820       5.27547096       0.00015315      -0.00021648      -0.00026667
Se       3.04579460       4.14193301       8.52223922      -0.00015501       0.00021850       0.00026929
Se       3.04579474       4.14193354       5.27547133      -0.00015489       0.00022016      -0.00026773
Se       4.92031697       1.49095821       8.52223920       0.00015652      -0.00022042       0.00026897
