9
Lattice="4.446967595617333 -7.41268402570961e-08 2.5674579116668714 1.4823224694649868 4.192641180416819 2.5674578987111647 -6.194308701420809e-08 -5.966783795954515e-08 5.134915930622313" Properties=species:S:1:pos:R:3:forces:R:3 energy=-67.9643783569336 free_energy=-67.9643783569336 stress="-0.0005433590267784894 -1.9886924107481718e-08 -3.265543568886642e-08 -1.9886924107481718e-08 -0.0005434115300886333 1.794075821237584e-08 -3.265543568886642e-08 1.794075821237584e-08 -0.0005434138001874089" pbc="T T T"
Y        1.48232252       1.04816037       2.56745792      -0.00000027      -0.00000119      -0.00000013
Y        4.44696765       3.14448083       7.70237391      -0.00000006      -0.00000044      -0.00000151
S       -0.00000027       0.00000011      -0.00000005       0.00001513      -0.00000539       0.00000181
O        1.37464163       0.97201820       5.13491584       0.00728911       0.00515661      -0.00000012
O        4.55464838       3.22062261       5.13491581      -0.00729656      -0.00515503      -0.00000032
O        3.75964686       0.97201807       3.75793213      -0.00365022       0.00516191       0.00632018
O        2.16964315       3.22062280       6.51189952       0.00364560      -0.00515652      -0.00631887
O        2.16964315       3.22062304       3.75793212       0.00364801      -0.00515953       0.00632060
O        3.75964694       0.97201810       6.51189962      -0.00365141       0.00515988      -0.00632209
