9
Lattice="5.857651227660479 1.5549006263612287e-07 3.3819165444786887 1.9525505158129175 5.522646707905311 3.381916613768827 -2.492721216581025e-08 6.72365593520198e-08 6.763833132132549" Properties=species:S:1:pos:R:3:forces:R:3 energy=-54.285335540771484 free_energy=-54.285335540771484 stress="-0.00023563549621030688 3.960957783988306e-08 -7.879968344504107e-10 3.960957783988306e-08 -0.00023566647723782808 -8.999308853674393e-09 -7.879968344504107e-10 -8.999308853674393e-09 -0.0002357152698095888" pbc="T T T"
Y        1.95255075       1.38066183       3.38191648       0.00000159       0.00000081      -0.00000011
Y        5.85765087       4.14198520      10.14574968      -0.00000171       0.00000121       0.00000052
Ta       0.00000021      -0.00000003      -0.00000022      -0.00000236      -0.00000207      -0.00000028
Se       2.02941787       1.43501541       6.76383307      -0.00657899      -0.00465244      -0.00000029
Se       5.78078387       4.08763138       6.76383331       0.00658306       0.00465433       0.00000072
Se       4.84294206       1.43501524       5.13944391       0.00328848      -0.00465260      -0.00569690
Se       2.96725949       4.08763185       8.38822257      -0.00328844       0.00465176       0.00569736
Se       2.96725960       4.08763182       5.13944383      -0.00328853       0.00465260      -0.00569700
Se       4.84294220       1.43501502       8.38822257       0.00328685      -0.00465351       0.00569618
