9
Lattice="4.653289580418616 2.865029467241476e-08 2.6865780288687517 1.5510965538431196 4.387163569458903 2.686578028825162 -5.086077847544213e-09 -3.6497819224310115e-09 5.3731560665468825" Properties=species:S:1:pos:R:3:forces:R:3 energy=-77.62476348876953 free_energy=-77.62476348876953 stress="0.00020923397096339613 -4.59264493102296e-09 9.062008388127651e-08 -4.59264493102296e-09 0.00020921326358802617 2.6615593284873285e-08 9.062008388127651e-08 2.6615593284873285e-08 0.00020939689420629293" pbc="T T T"
Y        1.55109696       1.09679025       2.68657799       0.00000009      -0.00000126      -0.00000187
Y        4.65328947       3.29037250       8.05973402      -0.00000021      -0.00000374      -0.00000096
Ta      -0.00000005      -0.00000001      -0.00000005      -0.00000068      -0.00000257      -0.00000196
O        1.59126338       1.12519333       5.37315641      -0.00201470      -0.00142482      -0.00000086
O        4.61312243       3.26197055       5.37315613       0.00201750       0.00142691      -0.00000067
O        3.85765790       1.12519336       4.06465243       0.00100389      -0.00142348      -0.00174701
O        2.34672838       3.26197054       6.68165909      -0.00100768       0.00142941       0.00175118
O        2.34672839       3.26197077       4.06465300      -0.00100684       0.00142449      -0.00174654
O        3.85765781       1.12519318       6.68165945       0.00100800      -0.00142539       0.00174844
