9
Lattice="4.7073544620897385 6.107018370513022e-08 2.717792251621987 1.5691182123116583 4.438136474351643 2.7177922504022254 -3.704982282571555e-08 -2.769207072663833e-08 5.435584567416187" Properties=species:S:1:pos:R:3:forces:R:3 energy=-71.15616607666016 free_energy=-71.15616607666016 stress="0.0003746500879060477 8.620339997378323e-09 2.167944757047735e-08 8.620339997378323e-09 0.0003746266884263605 -4.989551882772503e-08 2.167944757047735e-08 -4.989551882772503e-08 0.0003745831490959972" pbc="T T T"
Y        1.56911848       1.10953431       2.71779244      -0.00000135       0.00000120      -0.00000123
Y        4.70735438       3.32860267       8.15337690      -0.00000023      -0.00000136       0.00000069
Ta       0.00000008       0.00000002       0.00000004      -0.00000009       0.00000041       0.00000186
N        1.70159284       1.20320754       5.43558490       0.00193155       0.00136483       0.00000204
N        4.57487973       3.23492900       5.43558498      -0.00193214      -0.00136483       0.00000185
N        3.85655794       1.20320760       4.19141440      -0.00096577       0.00136673       0.00167334
N        2.41991486       3.23492851       6.67975404       0.00096756      -0.00136709      -0.00167513
N        2.41991447       3.23492838       4.19141439       0.00096637      -0.00136638       0.00167263
N        3.85655797       1.20320792       6.67975373      -0.00096565       0.00136673      -0.00167656
