9
Lattice="5.857496570737807 4.1105592908781715e-08 3.3818272613023095 1.952498911572645 5.522500793650158 3.3818272337535205 -8.076859924444413e-09 -3.94514695319829e-08 6.763654536594162" Properties=species:S:1:pos:R:3:forces:R:3 energy=-54.28532409667969 free_energy=-54.28532409667969 stress="-0.0002509085170459002 3.0770568315574565e-08 2.6269036723647332e-08 3.0770568315574565e-08 -0.000250976940151304 -2.0266167410909475e-08 2.6269036723647332e-08 -2.0266167410909475e-08 -0.00025097973411902785" pbc="T T T"
Y        1.95249900       1.38062498       3.38182741       0.00000016      -0.00000040       0.00000055
Y        5.85749635       4.14187583      10.14548097      -0.00000095       0.00000118      -0.00000384
Ta       0.00000005       0.00000029      -0.00000022      -0.00000077      -0.00000715       0.00000139
Se       2.02945531       1.43504152       6.76365457      -0.00807898      -0.00571200       0.00000117
Se       5.78054002       4.08745891       6.76365488       0.00808356       0.00571531       0.00000083
Se       4.84276881       1.43504130       5.13938705       0.00403824      -0.00571259      -0.00699472
Se       2.96722679       4.08745963       8.38792216      -0.00403842       0.00571244       0.00699866
Se       2.96722653       4.08745925       5.13938716      -0.00404218       0.00571535      -0.00699912
Se       4.84276904       1.43504147       8.38792213       0.00403932      -0.00571223       0.00699490
