9
Lattice="4.653251369655421 -2.3674104685343553e-08 2.6865559206804863 1.5510837741431278 4.387127493587838 2.686555909286807 -3.552431961397013e-08 -3.907382662573259e-08 5.373111902890886" Properties=species:S:1:pos:R:3:forces:R:3 energy=-77.62476348876953 free_energy=-77.62476348876953 stress="0.0001645868323976174 7.714120187074514e-08 -7.76683961589697e-09 7.714120187074514e-08 0.0001645896554691717 1.5618370596826026e-08 -7.76683961589697e-09 1.5618370596826026e-08 0.00016466555825900286" pbc="T T T"
Y        1.55108395       1.09678181       2.68655575      -0.00000263       0.00000055      -0.00000157
Y        4.65325115       3.29034598       8.05966773       0.00000106       0.00000142      -0.00000031
Ta       0.00000001       0.00000011       0.00000005      -0.00000208       0.00000133       0.00000055
O        1.59123942       1.12517558       5.37311183      -0.00118500      -0.00083619      -0.00000119
O        4.61309593       3.26195137       5.37311220       0.00118488       0.00083953       0.00000012
O        3.85763176       1.12517622       4.06460942       0.00059220      -0.00083482      -0.00102991
O        2.34670331       3.26195114       6.68161434      -0.00059232       0.00083312       0.00102443
O        2.34670327       3.26195183       4.06460946      -0.00058794       0.00083309      -0.00101966
O        3.85763167       1.12517581       6.68161402       0.00059074      -0.00083786       0.00102705
