9
Lattice="6.331286903461111 -2.580181458000363e-08 3.6553701914083137 2.1104289574887316 5.9691943115101225 3.655370167169024 2.3192281855691755e-08 -1.328752557588218e-08 7.310740342646377" Properties=species:S:1:pos:R:3:forces:R:3 energy=-49.105098724365234 free_energy=-49.105098724365234 stress="-0.00019494396110530943 1.9161248587806767e-08 -1.7205123992170002e-09 1.9161248587806767e-08 -0.0001949599536601454 3.5820406640851843e-09 -1.7205123992170002e-09 3.5820406640851843e-09 -0.00019499065820127726" pbc="T T T"
Y        2.11042886       1.49229885       3.65537014      -0.00000085       0.00000134      -0.00000027
Y        6.33128688       4.47689516      10.96611043      -0.00000039      -0.00000125      -0.00000097
Ta       0.00000004       0.00000008       0.00000016      -0.00000013      -0.00000091       0.00000415
Te       2.20527893       1.55936781       7.31074041      -0.00494376      -0.00349650      -0.00000020
Te       6.23643675       4.40982639       7.31074043       0.00494777       0.00349836      -0.00000016
Te       5.22864756       1.55936774       5.56519793       0.00247087      -0.00349568      -0.00428237
Te       3.21306857       4.40982666       9.05628270      -0.00247112       0.00349392       0.00428137
Te       3.21306845       4.40982664       5.56519787      -0.00247248       0.00349495      -0.00428258
Te       5.22864750       1.55936781       9.05628273       0.00247003      -0.00349423       0.00428091
