9
Lattice="4.799151595675667 6.941782431674218e-10 2.7707915124113844 1.5997171784989257 4.524683574130045 2.7707915482892393 -4.985934917871625e-08 8.685350465978373e-09 5.54158311118171" Properties=species:S:1:pos:R:3:forces:R:3 energy=-59.71437454223633 free_energy=-59.71437454223633 stress="-0.00015034609532449394 2.821760602955692e-08 5.069966846349416e-08 2.821760602955692e-08 -0.00015036250988487154 -4.720198987229196e-08 5.069966846349416e-08 -4.720198987229196e-08 -0.00015032573719508946" pbc="T T T"
Y        1.59971725       1.13117090       2.77079158      -0.00000018       0.00000067       0.00000015
Y        4.79915169       3.39351270       8.31237451      -0.00000182      -0.00000044       0.00000148
Te       0.00000007      -0.00000008      -0.00000007       0.00000283       0.00000084       0.00000438
N        1.67356813       1.18339148       5.54158312      -0.00183702      -0.00129801      -0.00000052
N        4.72530056       3.34129218       5.54158311       0.00183308       0.00129575      -0.00000001
N        3.96236740       1.18339129       4.22014399       0.00091624      -0.00129527      -0.00158870
N        2.43650113       3.34129227       6.86302221      -0.00091308       0.00129318       0.00158477
N        2.43650121       3.34129233       4.22014404      -0.00091720       0.00129920      -0.00159001
N        3.96236744       1.18339126       6.86302208       0.00091678      -0.00129616       0.00158787
