9
Lattice="5.994677257044374 1.7893732533030388e-08 3.4610285241845276 1.998225725012729 5.651835947366691 3.4610286007511806 -9.584094879216342e-08 2.600481206256759e-08 6.9220572143704455" Properties=species:S:1:pos:R:3:forces:R:3 energy=-41.38616180419922 free_energy=-41.38616180419922 stress="-3.72885879187379e-05 3.281730087678625e-08 1.2337586952071433e-08 3.281730087678625e-08 -3.7313715438358486e-05 2.626927564364223e-09 1.2337586952071433e-08 2.626927564364223e-09 -3.73050534108188e-05" pbc="T T T"
Y        1.99822582       1.41295903       3.46102883       0.00000124       0.00000060       0.00000252
Y        5.99467654       4.23887680      10.38308596      -0.00000546      -0.00000179       0.00000290
Te       0.00000032       0.00000015      -0.00000083      -0.00000299      -0.00000197       0.00001485
Se       2.12652257       1.50367834       6.92205721      -0.00018714      -0.00013459      -0.00000044
Se       5.86638014       4.14815743       6.92205698       0.00019151       0.00013531      -0.00000227
Se       4.93141577       1.50367882       5.30265105       0.00009657      -0.00013497      -0.00016840
Se       3.06148672       4.14815753       8.54146368      -0.00009389       0.00013184       0.00015919
Se       3.06148747       4.14815717       5.30265093      -0.00009555       0.00013469      -0.00016855
Se       4.93141614       1.50367867       8.54146356       0.00009573      -0.00012918       0.00016034
