9
Lattice="5.688679560159049 1.1174899441509235e-08 3.2843607489325137 1.8962265294947775 5.363338669064083 3.284360750827394 7.43919127720306e-08 5.492377524135308e-08 6.56872136901443" Properties=species:S:1:pos:R:3:forces:R:3 energy=-46.071929931640625 free_energy=-46.071929931640625 stress="-5.9713922382798046e-05 -2.2540287858419106e-08 2.4738464055040765e-10 -2.2540287858419106e-08 -5.967544348095544e-05 4.310746248847863e-08 2.4738464055040765e-10 4.310746248847863e-08 -5.969898484181613e-05" pbc="T T T"
Y        1.89622672       1.34083583       3.28436095       0.00000121       0.00000476      -0.00000018
Y        5.68867929       4.02250420       9.85308252      -0.00000230       0.00000251       0.00000347
Te      -0.00000007      -0.00000009      -0.00000026      -0.00000022       0.00000064       0.00000989
S        1.95107931       1.37962095       6.56872166      -0.00161996      -0.00114748       0.00000059
S        5.63382701       3.98371713       6.56872147       0.00162134       0.00114506      -0.00000107
S        4.71314031       1.37962135       4.97404477       0.00081311      -0.00114819      -0.00140971
S        2.87176614       3.98371753       8.16339814      -0.00081044       0.00114506       0.00140268
S        2.87176587       3.98371693       4.97404417      -0.00081111       0.00114423      -0.00140759
S        4.71314014       1.37962107       8.16339818       0.00080863      -0.00114670       0.00140202
