9
Lattice="4.669541871389884 -5.9528095853662925e-09 2.69596126895086 1.556513958089752 4.402486359677243 2.6959612575675687 -3.121721454487694e-08 -3.601552694843684e-08 5.3919225919715235" Properties=species:S:1:pos:R:3:forces:R:3 energy=-65.0511245727539 free_energy=-65.0511245727539 stress="7.117357017705217e-05 -3.3711753388843135e-08 -5.819822845865019e-08 -3.3711753388843135e-08 7.122580427676439e-05 2.1968114438664088e-08 -5.819822845865019e-08 2.1968114438664088e-08 7.116704364307225e-05" pbc="T T T"
Y        1.55651392       1.10062174       2.69596095       0.00000002       0.00000082       0.00000068
Y        4.66954187       3.30186501       8.08788363      -0.00000041      -0.00000074      -0.00000042
Te       0.00000010       0.00000008       0.00000000       0.00000286      -0.00001389      -0.00000024
O        1.54929166       1.09551480       5.39192271       0.00006908       0.00004771       0.00000114
O        4.67676403       3.30697135       5.39192261      -0.00006242      -0.00004469      -0.00000013
O        3.89489596       1.09551459       4.03768739      -0.00003394       0.00004698       0.00005955
O        2.33115993       3.30697157       6.74615784       0.00003060      -0.00004262      -0.00005136
O        2.33115975       3.30697163       4.03768740       0.00003222      -0.00004369       0.00005399
O        3.89489592       1.09551443       6.74615800      -0.00003824       0.00005016      -0.00006315
