9
Lattice="6.276456347781395 -2.1100953986363494e-08 3.623713660127516 2.0921521079064296 5.917499774240031 3.6237136395620793 9.597082405584324e-09 -1.8401255438775632e-08 7.24742730363239" Properties=species:S:1:pos:R:3:forces:R:3 energy=-46.01667022705078 free_energy=-46.01667022705078 stress="0.00014927815936971456 1.0991694665563045e-08 1.9290366637392253e-08 1.0991694665563045e-08 0.00014926379662938416 -2.0202131523205935e-08 1.9290366637392253e-08 -2.0202131523205935e-08 0.0001492566370870918" pbc="T T T"
Y        2.09215192       1.47937555       3.62371356      -0.00000058       0.00000080      -0.00000118
Y        6.27645667       4.43812438      10.87114132       0.00000043      -0.00000098       0.00000122
Ti       0.00000000       0.00000014       0.00000018       0.00000122      -0.00000158      -0.00000217
Te       2.17613483       1.53875967       7.24742725      -0.00453553      -0.00320725      -0.00000027
Te       6.19247330       4.37873985       7.24742704       0.00453582       0.00320693      -0.00000001
Te       5.18838917       1.53875964       5.50830142       0.00226639      -0.00320544      -0.00392429
Te       3.18021950       4.37873997       8.98655295      -0.00226740       0.00320663       0.00392696
Te       3.18021965       4.37874005       5.50830157      -0.00226878       0.00320758      -0.00392810
Te       5.18838879       1.53875965       8.98655309       0.00226846      -0.00320687       0.00392783
