9
Lattice="4.565880300396166 -3.683823893084277e-08 2.636111994551859 1.5219600977086127 4.304753123246432 2.636111938592785 8.48834955599185e-08 -8.513830944916612e-09 5.272223842081106" Properties=species:S:1:pos:R:3:forces:R:3 energy=-67.5492935180664 free_energy=-67.5492935180664 stress="1.0831218787643593e-05 2.045720464138867e-07 6.514263617418692e-08 2.045720464138867e-07 1.0629347343638074e-05 -1.7917398054123623e-07 6.514263617418692e-08 -1.7917398054123623e-07 1.057910867530154e-05" pbc="T T T"
Y        1.52196022       1.07618825       2.63611189      -0.00000060       0.00000014      -0.00000090
Y        4.56588043       3.22856507       7.90833546      -0.00000045      -0.00000183       0.00000230
Ti      -0.00000053      -0.00000040      -0.00000063       0.00000359       0.00000266       0.00000715
N        1.66495991       1.17730427       5.27222343       0.00030005       0.00021219      -0.00000119
N        4.42288144       3.12744953       5.27222382      -0.00030017      -0.00021142       0.00000099
N        3.73340069       1.17730420       4.07800868      -0.00015104       0.00021273       0.00026178
N        2.35443911       3.12744999       6.46643951       0.00015169      -0.00021392      -0.00026703
N        2.35443942       3.12744835       4.07800917       0.00014794      -0.00021344       0.00026035
N        3.73340159       1.17730289       6.46643944      -0.00015092       0.00021291      -0.00026500
