9
Lattice="5.7849128627034885 -6.266158690175162e-08 3.339921141996879 1.9283042660573486 5.454068225890789 3.33992107692817 3.600485506737667e-08 -5.423328275940406e-08 6.67984222163151" Properties=species:S:1:pos:R:3:forces:R:3 energy=-50.82700729370117 free_energy=-50.82700729370117 stress="-0.00010153154289582744 -4.414135190700108e-08 4.378017059991635e-09 -4.414135190700108e-08 -0.00010148814908461645 -5.3805409017115835e-09 4.378017059991635e-09 -5.3805409017115835e-09 -0.00010144430416403338" pbc="T T T"
Y        1.92830444       1.36351684       3.33992094       0.00000120       0.00000018      -0.00000120
Y        5.78491238       4.09055098      10.01976281      -0.00000159      -0.00000027      -0.00000093
Ti      -0.00000013      -0.00000010      -0.00000002       0.00000286       0.00000119       0.00000297
Se       1.98896937       1.40641385       6.67984224      -0.00179343      -0.00126637       0.00000075
Se       5.72424782       4.04765469       6.67984238       0.00179167       0.00126684      -0.00000086
Se       4.79042790       1.40641366       5.06241931       0.00089670      -0.00126999      -0.00155431
Se       2.92278932       4.04765435       8.29726523      -0.00089731       0.00126870       0.00155519
Se       2.92278935       4.04765422       5.06241953      -0.00089810       0.00126958      -0.00155595
Se       4.79042814       1.40641388       8.29726532       0.00089806      -0.00126988       0.00155417
