9
Lattice="5.4907733879893605 3.303907029168189e-08 3.1700994249876615 1.8302578069564308 5.176750837587202 3.1700994599569956 -4.773151363559442e-08 9.077224025921231e-09 6.340198932648692" Properties=species:S:1:pos:R:3:forces:R:3 energy=-56.15442657470703 free_energy=-56.15442657470703 stress="-0.0001225001469720155 2.505957752418908e-08 -1.651366154931111e-08 2.505957752418908e-08 -0.0001225304149556905 7.986410643923136e-09 -1.651366154931111e-08 7.986410643923136e-09 -0.00012252236774656922" pbc="T T T"
Y        1.83025760       1.29418766       3.17009950      -0.00000172      -0.00000078       0.00000010
Y        5.49077356       3.88256323       9.51029843       0.00000087       0.00000096       0.00000062
Ti       0.00000004      -0.00000007       0.00000013       0.00000184       0.00000275      -0.00000510
S        1.87975268       1.32918591       6.34019890      -0.00148204      -0.00104804       0.00000081
S        5.44127846       3.84756494       6.34019901       0.00148076       0.00104611       0.00000014
S        4.55089727       1.32918571       4.79801276       0.00073895      -0.00104503      -0.00128140
S        2.77013402       3.84756523       7.88238481      -0.00074105       0.00104783       0.00128283
S        2.77013388       3.84756524       4.79801282      -0.00073834       0.00104450      -0.00128096
S        4.55089708       1.32918566       7.88238491       0.00074078      -0.00104861       0.00128305
