9
Lattice="4.599171397983239 3.8705015679166214e-08 2.6553327981698915 1.533057200640721 4.33614031625945 2.655332743630701 1.539641994698832e-09 -6.570786629422865e-08 5.310665593673017" Properties=species:S:1:pos:R:3:forces:R:3 energy=-70.97711181640625 free_energy=-70.97711181640625 stress="-0.00010629496682668105 1.3719709102133493e-07 -8.060138867449496e-08 1.3719709102133493e-07 -0.00010672981443349272 4.111989682087369e-08 -8.060138867449496e-08 4.111989682087369e-08 -0.0001064213429344818" pbc="T T T"
Y        1.53305718       1.08403490       2.65533267      -0.00000066       0.00000199       0.00000171
Y        4.59917149       3.25210539       7.96599857      -0.00000259      -0.00000179      -0.00000075
V       -0.00000002       0.00000000      -0.00000008       0.00000340       0.00000107       0.00000331
N        1.59478135       1.12768068       5.31066552       0.00265312       0.00187540       0.00000055
N        4.53744717       3.20845976       5.31066551      -0.00265372      -0.00187802      -0.00000060
N        3.80178076       1.12768049       4.03645379      -0.00132853       0.00188029       0.00230241
N        2.33044754       3.20845990       6.58487737       0.00133055      -0.00188076      -0.00230253
N        2.33044768       3.20845974       4.03645350       0.00133121      -0.00188220       0.00230455
N        3.80178103       1.12768034       6.58487775      -0.00133246       0.00188625      -0.00230956
