9
Lattice="4.506390976900003 -3.953032481703917e-08 2.6017659310686683 1.5021302318655585 4.248666245053348 2.601766028926416 -2.0598740800800682e-08 1.0528529394005879e-07 5.203531897815382" Properties=species:S:1:pos:R:3:forces:R:3 energy=-71.23377990722656 free_energy=-71.23377990722656 stress="-6.927115464350209e-05 -2.4994575298364907e-08 -1.9119372751674746e-08 -2.4994575298364907e-08 -6.912405660841614e-05 7.866187701210947e-08 -1.9119372751674746e-08 7.866187701210947e-08 -6.951437535462901e-05" pbc="T T T"
Y        1.50213001       1.06216731       2.60176614      -0.00000076       0.00000102       0.00000011
Y        4.50639086       3.18649999       7.80529820      -0.00000064       0.00000174       0.00000130
V        0.00000013       0.00000006       0.00000012      -0.00000241       0.00000067       0.00000057
O        1.52330661       1.07714028       5.20353194      -0.00014237      -0.00010115      -0.00000132
O        4.48521484       3.17152577       5.20353171       0.00014251       0.00010088       0.00000062
O        3.74473763       1.07714022       3.92098852       0.00007488      -0.00010511      -0.00012764
O        2.26378333       3.17152574       6.48607559      -0.00007246       0.00010252       0.00012398
O        2.26378376       3.17152556       3.92098793      -0.00007157       0.00010088      -0.00012416
O        3.74473765       1.07714038       6.48607549       0.00007287      -0.00010145       0.00012630
