9
Lattice="5.4486454667596 -2.9973118213727996e-08 3.1457768163411606 1.8162151268524258 5.137032056325077 3.145776817164192 -2.6433706388592395e-08 -1.7683422400785933e-08 6.291553678466848" Properties=species:S:1:pos:R:3:forces:R:3 energy=-56.36400604248047 free_energy=-56.36400604248047 stress="0.00016927527030929923 1.3041142388203752e-08 -1.1503559882442005e-08 1.3041142388203752e-08 0.00016925923409871757 -1.318210429701594e-08 -1.1503559882442005e-08 -1.318210429701594e-08 0.00016923468501772732" pbc="T T T"
Y        1.81621473       1.28425763       3.14577708      -0.00000098      -0.00000059       0.00000058
Y        5.44864537       3.85277405       9.43733015       0.00000030       0.00000006      -0.00000015
V       -0.00000021       0.00000007       0.00000039       0.00000393       0.00000033      -0.00000921
S        1.84318678       1.30332976       6.29155368      -0.00305989      -0.00216395      -0.00000070
S        5.42167403       3.83370258       6.29155383       0.00305623       0.00216091      -0.00000180
S        4.52705233       1.30332913       4.74202308       0.00152646      -0.00215775      -0.00264364
S        2.73780871       3.83370202       7.84108392      -0.00153120       0.00216588       0.00265038
S        2.73780831       3.83370264       4.74202320      -0.00152634       0.00215942      -0.00264537
S        4.52705224       1.30333014       7.84108387       0.00153127      -0.00216416       0.00264978
