9
Lattice="5.730165161639559 -2.872418992931424e-09 3.3083123642437924 1.9100550656764357 5.40245144130699 3.3083123391209095 4.147357009754179e-08 -1.4429013113603518e-09 6.616624656653264" Properties=species:S:1:pos:R:3:forces:R:3 energy=-51.04874038696289 free_energy=-51.04874038696289 stress="-5.498073005583137e-05 -5.289803595154297e-10 2.5512185697351697e-09 -5.289803595154297e-10 -5.500930274138227e-05 -4.979119783143915e-09 2.5512185697351697e-09 -4.979119783143915e-09 -5.503656211658381e-05" pbc="T T T"
Y        1.91005556       1.35061274       3.30831242       0.00000252      -0.00000033       0.00000165
Y        5.73016568       4.05183879       9.92493637       0.00000177       0.00000046      -0.00000347
V       -0.00000015      -0.00000018       0.00000024      -0.00000146       0.00000001      -0.00000415
Se       1.94691464       1.37667642       6.61662484      -0.00019461      -0.00013754       0.00000033
Se       5.69330571       4.02577514       6.61662504       0.00019237       0.00013755       0.00000131
Se       4.75670773       1.37667622       4.99438970       0.00009468      -0.00013617      -0.00016727
Se       2.88351237       4.02577510       8.23885952      -0.00009741       0.00013906       0.00016956
Se       2.88351207       4.02577504       4.99438976      -0.00009610       0.00013468      -0.00016688
Se       4.75670752       1.37667648       8.23885948       0.00009836      -0.00013779       0.00016899
