9
Lattice="6.18486327531337 8.602433372454431e-08 3.570832468620552 2.061621160574234 5.831145109794505 3.570832489927266 3.567723640145455e-08 5.132290147096269e-08 7.141664875446338" Properties=species:S:1:pos:R:3:forces:R:3 energy=-46.4315299987793 free_energy=-46.4315299987793 stress="0.00011361821088939905 -8.453131528085578e-09 -3.764874190181899e-09 -8.453131528085578e-09 0.00011361621727701277 -4.612949133786515e-09 -3.764874190181899e-09 -4.612949133786515e-09 0.0001136235223384574" pbc="T T T"
Y        2.06162075       1.45778608       3.57083252      -0.00000078      -0.00000073      -0.00000017
Y        6.18486361       4.37335903      10.71249664       0.00000053       0.00000037      -0.00000123
V        0.00000017       0.00000001      -0.00000021      -0.00000126      -0.00000208      -0.00000014
Te       2.12818919       1.50485708       7.14166486       0.00275052       0.00194502       0.00000012
Te       6.11829519       4.32628817       7.14166554      -0.00274882      -0.00194304       0.00000126
Te       5.12076888       1.50485702       5.41389835      -0.00137453       0.00194400       0.00238165
Te       3.12571556       4.32628844       8.86943166       0.00137440      -0.00194439      -0.00238106
Te       3.12571564       4.32628817       5.41389847       0.00137478      -0.00194345       0.00238098
Te       5.12076888       1.50485702       8.86943155      -0.00137481       0.00194427      -0.00238138
