9
Lattice="4.676697610002961 -1.5219931645034566e-08 2.7000927226764486 1.5588991674115305 4.409232736648892 2.700092760042529 4.043443274472168e-10 4.604982956561482e-08 5.400185444652548" Properties=species:S:1:pos:R:3:forces:R:3 energy=-71.93254852294922 free_energy=-71.93254852294922 stress="9.036629489855841e-05 -1.17440642100064e-07 3.7269565211772715e-08 -1.17440642100064e-07 9.037434938363731e-05 -2.4153797184567338e-08 3.7269565211772715e-08 -2.4153797184567338e-08 9.065686026588082e-05" pbc="T T T"
Y        1.55889915       1.10230769       2.70009243      -0.00000114      -0.00000248      -0.00000239
Y        4.67669739       3.30692427       8.10027768       0.00000070      -0.00000031      -0.00000274
W        0.00000009       0.00000017       0.00000019      -0.00000116       0.00000086      -0.00000775
O        1.56999608       1.11015495       5.40018579       0.00016952       0.00011919       0.00000092
O        4.66560065       3.29907809       5.40018557      -0.00017138      -0.00011897       0.00000102
O        3.89169974       1.11015498       4.05974953      -0.00008082       0.00011546       0.00013822
O        2.34389740       3.29907802       6.74062145       0.00008066      -0.00011227      -0.00013547
O        2.34389706       3.29907794       4.05974943       0.00008256      -0.00011443       0.00014059
O        3.89169956       1.11015501       6.74062171      -0.00007940       0.00011326      -0.00013295
