9
Lattice="5.559382248658862 1.9724130964066898e-08 3.2097107637798192 1.8531274409379255 5.241436016736108 3.2097107531757296 -4.314493385620327e-08 -4.349535730141723e-08 6.419421602288844" Properties=species:S:1:pos:R:3:forces:R:3 energy=-58.907806396484375 free_energy=-58.907806396484375 stress="-0.00019314399105496705 9.458442917775756e-08 2.903548335098094e-08 9.458442917775756e-08 -0.00019316095858812332 -3.132269554839695e-08 2.903548335098094e-08 -3.132269554839695e-08 -0.0001931889564730227" pbc="T T T"
Y        1.85312689       1.31035891       3.20971061      -0.00000127      -0.00000070      -0.00000100
Y        5.55938234       3.93107749       9.62913257      -0.00000099       0.00000141       0.00000136
W        0.00000014      -0.00000014      -0.00000059       0.00000226      -0.00000204       0.00000494
S        1.90296252       1.34559722       6.41942174      -0.00825670      -0.00584053       0.00000059
S        5.50954727       3.89583871       6.41942173       0.00825687       0.00583915       0.00000254
S        4.60790135       1.34559747       4.85772434       0.00412702      -0.00583445      -0.00714745
S        2.80460816       3.89583853       7.98111877      -0.00412412       0.00583177       0.00714388
S        2.80460843       3.89583862       4.85772451      -0.00412942       0.00583825      -0.00715023
S        4.60790145       1.34559719       7.98111879       0.00412633      -0.00583293       0.00714543
