9
Lattice="5.585046856425079 3.804456003858073e-08 3.224528339210251 1.8616823013406287 5.265632703747006 3.2245283738567503 -3.21590484302909e-08 1.969319878474283e-08 6.4490567341215685" Properties=species:S:1:pos:R:3:forces:R:3 energy=-56.36374282836914 free_energy=-56.36374282836914 stress="-0.00026121188420802355 -3.355281563699464e-08 -2.7937632207652996e-09 -3.355281563699464e-08 -0.0002611605741549283 -1.0280591489220114e-08 -2.7937632207652996e-09 -1.0280591489220114e-08 -0.00026119296671822667" pbc="T T T"
Y        1.86168223       1.31640808       3.22452829      -0.00000003      -0.00000113       0.00000050
Y        5.58504715       3.94922455       9.67358479       0.00000091       0.00000003       0.00000021
Zr       0.00000007      -0.00000011       0.00000023      -0.00000374       0.00000221      -0.00000196
S        1.97115062       1.39381388       6.44905668      -0.00736448      -0.00520693      -0.00000001
S        5.47557823       3.87181880       6.44905688       0.00736663       0.00520922      -0.00000152
S        4.59947161       1.39381392       4.93159497       0.00368340      -0.00520757      -0.00638038
S        2.84725772       3.87181877       7.96651861      -0.00368460       0.00520827       0.00637898
S        2.84725740       3.87181893       4.93159494      -0.00368261       0.00520709      -0.00637838
S        4.59947146       1.39381420       7.96651841       0.00368443      -0.00521132       0.00638291
