9
Lattice="5.897309112950109 -2.1940190174541364e-08 3.4048130011685913 1.9657696680434251 5.560036427561427 3.4048130281675464 -2.3217946297151244e-08 1.6649282905534326e-08 6.809626042551865" Properties=species:S:1:pos:R:3:forces:R:3 energy=-51.1885986328125 free_energy=-51.1885986328125 stress="-5.4556196118937805e-05 -3.00828446597734e-08 -1.5753096604953498e-08 -3.00828446597734e-08 -5.4489686590386555e-05 -9.335269446353323e-09 -1.5753096604953498e-08 -9.335269446353323e-09 -5.45052535017021e-05" pbc="T T T"
Y        1.96576982       1.39000966       3.40481306       0.00000156       0.00000335       0.00000045
Y        5.89730918       4.17002722      10.21443833       0.00000127      -0.00000005      -0.00000372
Zr      -0.00000016       0.00000020       0.00000009       0.00000161      -0.00000631       0.00000066
Se       2.07138779       1.46469215       6.80962596      -0.00081971      -0.00057873       0.00000056
Se       5.79169128       4.09534384       6.80962625       0.00081970       0.00057698       0.00000159
Se       4.86161475       1.46469233       5.19868735       0.00040855      -0.00057998      -0.00071175
Se       3.00146373       4.09534406       8.42056485      -0.00041106       0.00057962       0.00071469
Se       3.00146333       4.09534396       5.19868801      -0.00041259       0.00058235      -0.00071198
Se       4.86161528       1.46469226       8.42056440       0.00041068      -0.00057700       0.00070935
