9
Lattice="6.374813359398923 -7.941417230333871e-08 3.6805002832652294 2.124937727771585 6.01023162159838 3.680500255244642 2.1715469711360643e-08 -1.896291081073408e-08 7.3610005289181695" Properties=species:S:1:pos:R:3:forces:R:3 energy=-46.814353942871094 free_energy=-46.814353942871094 stress="-3.630005085142329e-05 -6.339796243537421e-09 5.1575623771782375e-09 -6.339796243537421e-09 -3.6274232115829363e-05 -1.63138267339491e-08 5.1575623771782375e-09 -1.63138267339491e-08 -3.630270293797366e-05" pbc="T T T"
Y        2.12493760       1.50255857       3.68050056      -0.00000148       0.00000068       0.00000010
Y        6.37481344       4.50767311      11.04150035       0.00000019      -0.00000040      -0.00000114
Zr       0.00000011      -0.00000007       0.00000026       0.00000071       0.00000071      -0.00000346
Te       2.25389206       1.59374237       7.36100047      -0.00060430      -0.00042836      -0.00000076
Te       6.24585897       4.41648928       7.36100046       0.00060502       0.00042786      -0.00000023
Te       5.24786746       1.59374225       5.63242799       0.00030131      -0.00042640      -0.00052354
Te       3.25188383       4.41648918       9.08957305      -0.00030304       0.00042889       0.00052607
Te       3.25188366       4.41648908       5.63242804      -0.00030219       0.00042593      -0.00052388
Te       5.24786736       1.59374234       9.08957310       0.00030372      -0.00042889       0.00052688
