9
Lattice="5.7030174302836345 -3.6640732165061864e-08 3.2926384993331674 1.9010059106731096 5.376855945689974 3.2926382652918456 1.350145182110451e-07 -1.911711817617076e-07 6.585276764814326" Properties=species:S:1:pos:R:3:forces:R:3 energy=-26.81914710998535 free_energy=-26.81914710998535 stress="0.00042642015614546835 6.37916031109853e-08 -3.732777642539986e-08 6.37916031109853e-08 0.00042634602868929505 -1.3587983183072083e-08 -3.732777642539986e-08 -1.3587983183072083e-08 0.00042641483014449477" pbc="T T T"
Zn       1.90100522       1.34421289       3.29263768      -0.00000262      -0.00000569      -0.00000359
Zn       5.70301770       4.03264292       9.87791350       0.00000132       0.00000698      -0.00000771
As       0.00000013       0.00000012      -0.00000063       0.00000099       0.00000406       0.00001965
S        1.91728162       1.35572188       6.58527754      -0.00621176      -0.00439554       0.00000513
S        5.68674189       4.02113433       6.58527737       0.00620800       0.00439435       0.00000496
S        4.74437677       1.35572165       4.95305302       0.00310645      -0.00439924      -0.00537866
S        2.85964654       4.02113424       8.21750179      -0.00309813       0.00438690       0.00536972
S        2.85964637       4.02113369       4.95305244      -0.00310716       0.00439531      -0.00537997
S        4.74437785       1.35572098       8.21750144       0.00310293      -0.00438744       0.00537002
