9
Lattice="5.854265535840312 7.215005090065472e-08 3.3799616442266993 1.9514218933947236 5.5194543864814145 3.379961678710222 -3.6401419212307035e-08 1.6493804284069882e-08 6.759923351502503" Properties=species:S:1:pos:R:3:forces:R:3 energy=-25.60527801513672 free_energy=-25.60527801513672 stress="0.00012397793761920184 1.6930293611494562e-08 -4.70590544310312e-09 1.6930293611494562e-08 0.00012395874364301562 7.668719548270531e-10 -4.70590544310312e-09 7.668719548270531e-10 0.00012397218961268663" pbc="T T T"
Zn       1.95142211       1.37986387       3.37996172       0.00000077       0.00000015       0.00000039
Zn       5.85426566       4.13959122      10.13988506      -0.00000016       0.00000096       0.00000021
As      -0.00000014      -0.00000075      -0.00000130       0.00000093       0.00000739       0.00001431
Se       2.06967342       1.46348000       6.75992340      -0.00585043      -0.00413756       0.00000018
Se       5.73601428       4.05597455       6.75992335       0.00584644       0.00413403       0.00000041
Se       4.81942883       1.46348053       5.17235153       0.00292690      -0.00413920      -0.00507005
Se       2.98625793       4.05597504       8.34749593      -0.00292128       0.00413148       0.00505906
Se       2.98625851       4.05597391       5.17235103      -0.00292513       0.00413623      -0.00506675
Se       4.81942898       1.46347945       8.34749594       0.00292189      -0.00413340       0.00506216
