9
Lattice="4.982489205912023 -5.176142338181053e-06 2.8766453213919285 1.6608253343101098 4.697534877145501 2.8766444915336864 -5.646178704612556e-06 -5.00881693245211e-06 5.753300422252653" Properties=species:S:1:pos:R:3:forces:R:3 energy=-29.307634353637695 free_energy=-29.307634353637695 stress="-8.500529656885192e-05 -2.5130850644927705e-06 8.927312364903628e-07 -2.5130850644927705e-06 -8.34709862829186e-05 1.0163371655380615e-07 8.927312364903628e-07 1.0163371655380615e-07 -8.236742723966017e-05" pbc="T T T"
Zn       1.66088706       1.17437584       2.87669855       0.00022582      -0.00006022       0.00023660
Zn       4.98255262       3.52306154       8.63007658       0.00025556      -0.00025387       0.00045575
B       -0.00001142       0.00001215      -0.00000044      -0.00005414      -0.00001956      -0.00013390
S        1.59842334       1.13031050       5.75341809       0.00189358       0.00163585       0.00070234
S        5.04482560       3.56726043       5.75338831      -0.00205922      -0.00135660       0.00055893
S        4.18318178       1.13032085       4.26090860      -0.00119549       0.00146618       0.00130367
S        2.45999037       3.56733072       7.24549734       0.00061467      -0.00099325      -0.00214911
S        2.46012154       3.56716755       4.26084148       0.00116023      -0.00162548       0.00098330
S        4.18326404       1.13025912       7.24553284      -0.00084075       0.00120670      -0.00195724
