9
Lattice="6.2846234547015465 1.231804071326161e-07 3.6284293024675884 2.0948744918331133 5.925201850181527 3.62842949161253 -3.0264095523409544e-10 2.314403198172916e-07 7.2568586054591435" Properties=species:S:1:pos:R:3:forces:R:3 energy=-24.521459579467773 free_energy=-24.521459579467773 stress="-5.43159076187294e-05 -5.365800959111766e-08 6.703044341804798e-09 -5.365800959111766e-08 -5.4431442549685016e-05 -2.2494194951150348e-08 6.703044341804798e-09 -2.2494194951150348e-08 -5.425552444648929e-05" pbc="T T T"
Zn       2.09487461       1.48130068       3.62842873      -0.00000003       0.00000052      -0.00000032
Zn       6.28462317       4.44390118      10.88528766       0.00000003      -0.00000115      -0.00000041
B       -0.00000074      -0.00000145       0.00000308       0.00001261       0.00002064      -0.00004149
Te       1.86687573       1.32008212       7.25685808       0.00370354       0.00262308      -0.00000373
Te       6.51262370       4.60512125       7.25685806      -0.00372625      -0.00263769      -0.00000413
Te       5.35118666       1.32008099       5.24519125      -0.00186009       0.00263651       0.00322292
Te       3.02831264       4.60511868       9.26852636       0.00184986      -0.00261822      -0.00320475
Te       3.02831144       4.60512134       5.24519092       0.00186402      -0.00263696       0.00322715
Te       5.35118460       1.32008392       9.26852553      -0.00184369       0.00261325      -0.00319526
