9
Lattice="4.146401033279514 -1.5639916299407562e-07 2.3939257861938286 1.3821335439789821 3.9092641980004954 2.3939257625102983 -8.454297021884104e-08 -8.878716567384339e-08 4.787851718820375" Properties=species:S:1:pos:R:3:forces:R:3 energy=-41.18377685546875 free_energy=-41.18377685546875 stress="-1.2219253221701365e-05 -1.9969055742308228e-08 -2.5315637586231787e-08 -1.9969055742308228e-08 -1.192054696730338e-05 6.748211944795912e-08 -2.5315637586231787e-08 6.748211944795912e-08 -1.220102421939373e-05" pbc="T T T"
Zn       1.38213339       0.97731582       2.39392587       0.00000085       0.00000107       0.00000012
Zn       4.14640099       2.93194820       7.18177729      -0.00000065      -0.00000051       0.00000064
B        0.00000000      -0.00000012      -0.00000021       0.00000080      -0.00000142      -0.00000390
O        1.27752374       0.90334567       4.78785158       0.00024629       0.00017518      -0.00000211
O        4.25101045       3.00591850       4.78785141      -0.00024581      -0.00017393      -0.00000118
O        3.50763914       0.90334518       3.50029388      -0.00012481       0.00017607       0.00021374
O        2.02089533       3.00591832       6.07540953       0.00012130      -0.00017160      -0.00020939
O        2.02089543       3.00591849       3.50029381       0.00012183      -0.00017643       0.00021046
O        3.50763922       0.90334552       6.07540949      -0.00011981       0.00017178      -0.00020826
