9
Lattice="5.541486638439876 -1.2842950223120456e-07 3.199378812470514 1.8471620951934766 5.22456381284481 3.199378806469563 -3.0722146232394986e-09 -9.52196984560607e-09 6.398757630262092" Properties=species:S:1:pos:R:3:forces:R:3 energy=-27.367406845092773 free_energy=-27.367406845092773 stress="2.7486357794259675e-05 -2.7832554039264323e-08 9.778284848493968e-09 -2.7832554039264323e-08 2.7516869522514753e-05 -8.481249480496444e-09 9.778284848493968e-09 -8.481249480496444e-09 2.7533855245565064e-05" pbc="T T T"
Zn       1.84716224       1.30614060       3.19937900       0.00000121      -0.00000109       0.00000111
Zn       5.54148695       3.91842293       9.59813608       0.00000018       0.00000059      -0.00000081
B        0.00000006       0.00000024       0.00000014       0.00000090      -0.00000051       0.00000082
Se       1.72403519       1.21907679       6.39875792       0.00253410       0.00179248       0.00000139
Se       5.66461358       4.00548682       6.39875799      -0.00253401      -0.00179178       0.00000106
Se       4.67946839       1.21907737       4.69243684      -0.00126754       0.00179159       0.00219280
Se       2.70917968       4.00548699       8.10507778       0.00126584      -0.00179065      -0.00219359
Se       2.70917985       4.00548610       4.69243708       0.00126528      -0.00179048       0.00219093
Se       4.67946896       1.21907679       8.10507820      -0.00126585       0.00178975      -0.00219385
