9
Lattice="5.698419498589468 3.6208169146424305e-07 3.2899838470237595 1.8994734977238708 5.372521888856677 3.289983864078203 -4.1674656412651776e-07 -2.737969119497417e-07 6.579968415873653" Properties=species:S:1:pos:R:3:forces:R:3 energy=-23.891324996948242 free_energy=-23.891324996948242 stress="-6.525154458358884e-05 -2.4575090407097377e-08 5.443838801966194e-08 -2.4575090407097377e-08 -6.528395169880241e-05 3.171502171994689e-08 5.443838801966194e-08 3.171502171994689e-08 -6.531624239869416e-05" pbc="T T T"
Zn       1.89947327       1.34313065       3.28998275       0.00000010       0.00000034      -0.00000230
Zn       5.69841960       4.02939042       9.86995204       0.00000075      -0.00000007      -0.00000137
Ga       0.00000068       0.00000070      -0.00000172      -0.00000167      -0.00000207       0.00000562
Se       2.20845374       1.56161278       6.57996786      -0.00689642      -0.00487551       0.00000018
Se       5.38943827       3.81091003       6.57996756       0.00689283       0.00487670      -0.00000054
Se       4.59419144       1.56161426       5.20256224       0.00344749      -0.00487563      -0.00597209
Se       3.00369804       3.81090813       7.95737647      -0.00344788       0.00487262       0.00596948
Se       3.00370260       3.81090880       5.20256182      -0.00344315       0.00487681      -0.00597028
Se       4.59419272       1.56161211       7.95737543       0.00344804      -0.00487316       0.00597118
