9
Lattice="6.301075059828442 -7.639623834209827e-08 3.637927413792553 2.100358298885081 5.940710421379207 3.637927383246017 2.4719310814125182e-08 -1.99325096482918e-08 7.275854784769998" Properties=species:S:1:pos:R:3:forces:R:3 energy=-22.200162887573242 free_energy=-22.200162887573242 stress="-0.0002710231638047844 -1.0208353273810644e-08 -1.1879082606469638e-08 -1.0208353273810644e-08 -0.0002710158296395093 9.759383301499724e-10 -1.1879082606469638e-08 9.759383301499724e-10 -0.0002710003755055368" pbc="T T T"
Zn       2.10035824       1.48517732       3.63792746      -0.00000016      -0.00000032       0.00000023
Zn       6.30107508       4.45553266      10.91378201      -0.00000004      -0.00000060      -0.00000002
Ga       0.00000010       0.00000003      -0.00000023       0.00000041      -0.00000007       0.00000011
Te       2.29589304       1.62344141       7.27585472      -0.00465414      -0.00329127      -0.00000031
Te       6.10554030       4.31726879       7.27585490       0.00465420       0.00329044       0.00000022
Te       5.15312838       1.62344149       5.62622940       0.00232697      -0.00329123      -0.00403033
Te       3.24830478       4.31726921       8.92548029      -0.00232704       0.00329199       0.00403082
Te       3.24830488       4.31726887       5.62622935      -0.00232760       0.00329196      -0.00403152
Te       5.15312875       1.62344146       8.92548045       0.00232737      -0.00329091       0.00403070
