9
Lattice="4.42138355868095 4.240990919224623e-09 2.55268717389457 1.4737945192409363 4.168520666843348 2.552687181373258 5.5033168319024214e-08 4.807380942163911e-08 5.10537425246891" Properties=species:S:1:pos:R:3:forces:R:3 energy=-35.22052764892578 free_energy=-35.22052764892578 stress="-6.69348519295454e-05 -2.7581327444181625e-08 2.6713184553273095e-08 -2.7581327444181625e-08 -6.70523222652264e-05 -3.48193438526323e-08 2.6713184553273095e-08 -3.48193438526323e-08 -6.6908381995745e-05" pbc="T T T"
Zn       1.47379436       1.04213022       2.55268715      -0.00000165      -0.00000025      -0.00000025
Zn       4.42138355       3.12639015       7.65806172      -0.00000014      -0.00000191      -0.00000025
Ga       0.00000007       0.00000009       0.00000007       0.00000035       0.00000058      -0.00000215
O        1.53229964       1.08349940       5.10537432      -0.00054696      -0.00038888      -0.00000142
O        4.36287835       3.08502143       5.10537423       0.00054467       0.00038865       0.00000042
O        3.65523424       1.08349975       3.87969722       0.00027402      -0.00038432      -0.00047341
O        2.23994423       3.08502113       6.33105124      -0.00027318       0.00038615       0.00047587
O        2.23994407       3.08502120       3.87969763      -0.00027414       0.00038709      -0.00047259
O        3.65523402       1.08349953       6.33105096       0.00027686      -0.00038740       0.00047365
