9
Lattice="5.506136153211862 -1.8611798098479182e-07 3.1789693757529753 1.8353785443802257 5.191234550352054 3.1789693720867973 4.886746193389557e-08 3.006441184854887e-08 6.357938666864979" Properties=species:S:1:pos:R:3:forces:R:3 energy=-24.64031410217285 free_energy=-24.64031410217285 stress="-2.3270908059203066e-05 -2.2099104768358302e-08 8.508514781624399e-09 -2.2099104768358302e-08 -2.326395951968152e-05 -3.8501212884511915e-08 8.508514781624399e-09 -3.8501212884511915e-08 -2.3236900233314373e-05" pbc="T T T"
Zn       1.83537818       1.29780875       3.17896932      -0.00000618       0.00000072       0.00000067
Zn       5.50613696       3.89342603       9.53690499       0.00000557      -0.00000014      -0.00002075
Ga      -0.00000039       0.00000040       0.00000057       0.00000082      -0.00000679      -0.00000851
S        1.90562647       1.34748214       6.35793839      -0.00605105      -0.00427648      -0.00000359
S        5.43588670       3.84375258       6.35794037       0.00605588       0.00428271       0.00000704
S        4.55332333       1.34748045       4.82929194       0.00302491      -0.00428227      -0.00523067
S        2.78819302       3.84375214       7.88658617      -0.00302982       0.00428505       0.00525089
S        2.78819179       3.84375259       4.82929157      -0.00303131       0.00427837      -0.00524066
S        4.55332299       1.34748251       7.88658634       0.00303118      -0.00428110       0.00524549
