9
Lattice="5.490343785627381 2.792245760358396e-09 3.169851359105456 1.830114585564959 5.176345695110311 3.169851380369394 -7.882034125728776e-08 -2.969149204387097e-08 6.339702854731787" Properties=species:S:1:pos:R:3:forces:R:3 energy=-32.50642395019531 free_energy=-32.50642395019531 stress="-5.8803881984204054e-05 4.530611974473686e-08 -3.3816511813000716e-09 4.530611974473686e-08 -5.8860270655713975e-05 2.037943858113067e-08 -3.3816511813000716e-09 2.037943858113067e-08 -5.888431041967124e-05" pbc="T T T"
Zn       1.83011497       1.29408698       3.16985073       0.00000097       0.00000406      -0.00000321
Zn       5.49034357       3.88225938       9.50955475      -0.00000046       0.00000024       0.00000442
Ir      -0.00000023       0.00000019       0.00000027      -0.00000115       0.00000305       0.00000199
S        1.87672134       1.32704209       6.33970331      -0.00193906      -0.00137258       0.00000088
S        5.44373737       3.84930335       6.33970199       0.00193763       0.00136822      -0.00000355
S        4.55198339       1.32704179       4.79513929       0.00096911      -0.00137025      -0.00167644
S        2.76847461       3.84930320       7.88426633      -0.00096869       0.00136691       0.00167650
S        2.76847500       3.84930364       4.79513883      -0.00096545       0.00136721      -0.00167674
S        4.55198318       1.32704195       7.88426675       0.00096697      -0.00136721       0.00167650
