9
Lattice="5.820314430358206 8.927318078697253e-08 3.3603600228319332 1.9401049005614361 5.487444829351617 3.3603600119641874 9.615726320922045e-08 5.468326147906461e-08 6.720719879114593" Properties=species:S:1:pos:R:3:forces:R:3 energy=-30.77083969116211 free_energy=-30.77083969116211 stress="-5.213879558141343e-05 3.162403316991913e-08 -2.6805651032191236e-09 3.162403316991913e-08 -5.217801663093269e-05 8.378539639863902e-09 -2.6805651032191236e-09 8.378539639863902e-09 -5.219104059506208e-05" pbc="T T T"
Zn       1.94010482       1.37186164       3.36035995       0.00000024       0.00000117      -0.00000043
Zn       5.82031479       4.11558410      10.08108035       0.00000053       0.00000036       0.00000115
Ir       0.00000008      -0.00000014      -0.00000020       0.00000014       0.00000070       0.00000344
Se       2.01350860       1.42376558       6.72072011      -0.00032304      -0.00022879       0.00000071
Se       5.74691083       4.06367936       6.72071991       0.00032227       0.00022725      -0.00000039
Se       4.81356009       1.42376536       5.10410934       0.00016060      -0.00022791      -0.00027815
Se       2.94685905       4.06367935       8.33733067      -0.00015938       0.00022621       0.00027670
Se       2.94685909       4.06367939       5.10410918      -0.00016067       0.00022699      -0.00027841
Se       4.81356034       1.42376527       8.33733040       0.00015943      -0.00022590       0.00027549
