9
Lattice="4.564644246856142 5.523850713212454e-08 2.635398674599298 1.5215480902664016 4.303588112067297 2.6353987509798897 -2.9776333598325067e-08 7.249167143743284e-08 5.270797400772746" Properties=species:S:1:pos:R:3:forces:R:3 energy=-43.21782684326172 free_energy=-43.21782684326172 stress="0.0002820656809490174 -7.303694360416557e-08 2.0035582082300607e-08 -7.303694360416557e-08 0.0002819551154971123 2.3970507356807502e-08 2.0035582082300607e-08 2.3970507356807502e-08 0.0002822981041390449" pbc="T T T"
Zn       1.52154759       1.07589685       2.63539825      -0.00000346      -0.00000341      -0.00000513
Zn       4.56464377       3.22769078       7.90619483      -0.00000397      -0.00000220      -0.00001020
Mo      -0.00000007      -0.00000021      -0.00000019       0.00000001       0.00000426       0.00000128
O        1.56229157       1.10470753       5.27079786      -0.00244397      -0.00172496       0.00000410
O        4.52390059       3.19888104       5.27079826       0.00244391       0.00172704       0.00000568
O        3.78349831       1.10470734       3.98838323       0.00122574      -0.00173193      -0.00211799
O        2.30269436       3.19888109       6.55321214      -0.00121933       0.00172776       0.00211895
O        2.30269425       3.19888127       3.98838328      -0.00122103       0.00172985      -0.00211501
O        3.78349868       1.10470735       6.55321159       0.00122327      -0.00172520       0.00211608
