9
Lattice="5.716863337795443 8.167284632939736e-09 3.300632648787207 1.9056211390355975 5.389910351778104 3.3006326163339343 -9.652463818067309e-08 -1.0800021283434642e-07 6.601265464760025" Properties=species:S:1:pos:R:3:forces:R:3 energy=-36.032039642333984 free_energy=-36.032039642333984 stress="0.00021701234800275415 -5.5646570018552666e-08 -5.438731243145867e-09 -5.5646570018552666e-08 0.0002170650550397113 1.7773428950818015e-08 -5.438731243145867e-09 1.7773428950818015e-08 0.0002170609513996169" pbc="T T T"
Zn       1.90562262       1.34747797       3.30063203       0.00000542       0.00000133      -0.00000258
Zn       5.71686262       4.04243172       9.90189859      -0.00000263      -0.00000359       0.00000030
Mo      -0.00000013      -0.00000017      -0.00000045       0.00000125      -0.00000029      -0.00000019
S        1.88773924       1.33483360       6.60126529      -0.00206617      -0.00145961       0.00000111
S        5.73474473       4.05507732       6.60126534       0.00206234       0.00146060      -0.00000008
S        4.77299342       1.33483361       4.93546337       0.00103461      -0.00146138      -0.00179189
S        2.84949108       4.05507675       8.26706777      -0.00103399       0.00146228       0.00179267
S        2.84949107       4.05507663       4.93546316      -0.00103364       0.00146226      -0.00179159
S        4.77299297       1.33483352       8.26706783       0.00103268      -0.00146165       0.00179216
