9
Lattice="5.987117319918004 3.4640028563971537e-08 3.4566637310052957 1.9957057692820146 5.644708410359495 3.4566637945419396 -3.139556316607286e-08 5.561622653507819e-08 6.913327516389326" Properties=species:S:1:pos:R:3:forces:R:3 energy=-33.56619644165039 free_energy=-33.56619644165039 stress="6.569104152731597e-05 -2.7178545636274976e-08 -1.7559937504074696e-08 -2.7178545636274976e-08 6.572870188392699e-05 2.904694618166559e-08 -1.7559937504074696e-08 2.904694618166559e-08 6.572848360519856e-05" pbc="T T T"
Zn       1.99570572       1.41117726       3.45666396      -0.00000127       0.00000047       0.00000082
Zn       5.98711727       4.23353154      10.36999096       0.00000057       0.00000009       0.00000041
Mo       0.00000017      -0.00000014       0.00000013      -0.00000128       0.00000107      -0.00000190
Se       1.98834338       1.40597128       6.91332741      -0.00028801      -0.00020550      -0.00000011
Se       5.99447965       4.23873707       6.91332747       0.00028950       0.00020614      -0.00000129
Se       4.99294550       1.40597137       5.17862005       0.00014602      -0.00020736      -0.00025171
Se       2.98987757       4.23873714       8.64803545      -0.00014570       0.00020730       0.00025207
Se       2.98987734       4.23873714       5.17861955      -0.00014487       0.00020535      -0.00025052
Se       4.99294565       1.40597130       8.64803522       0.00014493      -0.00020751       0.00025228
