9
Lattice="4.0652627335009495 -1.506961561690254e-07 2.3470808803288494 1.355087470663114 3.832767117320963 2.3470808198678603 -2.0816120724145997e-07 -2.2124145951409787e-07 4.694162121203442" Properties=species:S:1:pos:R:3:forces:R:3 energy=-36.280189514160156 free_energy=-36.280189514160156 stress="-0.00020708308147732168 -7.65748886522033e-09 4.8883144643241394e-08 -7.65748886522033e-09 -0.0002070740156341344 9.690042546139921e-09 4.8883144643241394e-08 9.690042546139921e-09 -0.00020692250109277666" pbc="T T T"
Zn       1.35508315       0.95818944       2.34707120      -0.00011067      -0.00005909      -0.00026227
Zn       4.06525848       2.87457277       7.04123317      -0.00011282      -0.00006046      -0.00026198
N       -0.00007764      -0.00004128      -0.00018106      -0.00208037      -0.00110901      -0.00486093
O        1.31511378       0.92992567       4.69415875       0.00364375       0.00258452      -0.00012617
O        4.10532015       2.90290064       4.69415806      -0.00134581      -0.00093460      -0.00011954
O        3.40769582       0.92993759       3.48601535      -0.00213128       0.00290632       0.00346804
O        2.01259109       2.90291224       5.90240532       0.00037003      -0.00062060      -0.00084424
O        2.01265551       2.90282224       3.48602126       0.00212905      -0.00311965       0.00365746
O        3.40775961       0.92984724       5.90241261      -0.00036183       0.00041348      -0.00065035
