9
Lattice="4.16693554850799 -4.2151906443545045e-07 2.4057817713305525 1.3889781554139793 3.928624250508087 2.4057817078395707 -3.493146705898755e-07 -3.247631520290204e-07 4.8115641476918904" Properties=species:S:1:pos:R:3:forces:R:3 energy=-44.02294921875 free_energy=-44.02294921875 stress="0.00011258666927460581 2.7292969662084943e-07 4.99489161143174e-09 2.7292969662084943e-07 0.00011252106924075633 -1.1899151886041182e-08 4.99489161143174e-09 -1.1899151886041182e-08 0.00011243638437008485" pbc="T T T"
Zn       1.38897790       0.98215611       2.40578189       0.00000147      -0.00000043      -0.00000030
Zn       4.16693502       2.94646773       7.21734539      -0.00000059      -0.00000120      -0.00000183
P        0.00000010      -0.00000017       0.00000021       0.00000120       0.00000472       0.00001191
O        1.37308058       0.97091424       4.81156401      -0.00599718      -0.00423324       0.00000439
O        4.18283221       2.95770957       4.81156171       0.00599515       0.00422943       0.00000474
O        3.48039506       0.97091284       3.59490519       0.00299144      -0.00422895      -0.00518250
O        2.07551849       2.95771033       6.02822353      -0.00298023       0.00421464       0.00517261
O        2.07551832       2.95770937       3.59490493      -0.00300169       0.00422800      -0.00518882
O        3.48039528       0.97091341       6.02822324       0.00299066      -0.00421298       0.00518227
