9
Lattice="5.633772292249845 -8.912301273324683e-08 3.252660080565299 1.877923954957476 5.311571717347855 3.252660181774492 -1.2506777558810522e-07 3.551920099010559e-08 6.505320377754431" Properties=species:S:1:pos:R:3:forces:R:3 energy=-27.24399185180664 free_energy=-27.24399185180664 stress="-2.942090020496835e-07 1.2751007194555797e-10 -2.0000749945126017e-09 1.2751007194555797e-10 -2.827484593126428e-07 3.905529055714396e-08 -2.0000749945126017e-09 3.905529055714396e-08 -2.971273715957068e-07" pbc="T T T"
Zn       1.87792422       1.32789327       3.25265999       0.00000190       0.00000078      -0.00000028
Zn       5.63377214       3.98367887       9.75798045       0.00000110       0.00000065      -0.00000050
P       -0.00000051      -0.00000041      -0.00000104       0.00001300       0.00001559       0.00002941
Se       1.87360372       1.32483779       6.50532059       0.00100839       0.00071254       0.00000144
Se       5.63809282       3.98673391       6.50532062      -0.00102586      -0.00072622       0.00000137
Se       4.69697015       1.32483814       4.87524867      -0.00050369       0.00071114       0.00087033
Se       2.81472534       3.98673387       8.13539231       0.00051261      -0.00072570      -0.00088865
Se       2.81472591       3.98673374       4.87524858       0.00050513      -0.00071453       0.00087510
Se       4.69697067       1.32483742       8.13539229      -0.00051266       0.00072570      -0.00088836
