9
Lattice="5.788417762662169 -1.539927218867368e-09 3.341944548751934 1.9294725682755691 5.4573724525207545 3.341944579628574 1.7116409487619613e-08 4.991913655371038e-08 6.683889067857351" Properties=species:S:1:pos:R:3:forces:R:3 energy=-29.68745994567871 free_energy=-29.68745994567871 stress="-7.179015665315092e-05 2.62098298620117e-09 -3.3624150130862063e-09 2.62098298620117e-09 -7.18020528438501e-05 -1.5701248079480479e-09 -3.3624150130862063e-09 -1.5701248079480479e-09 -7.180160901043564e-05" pbc="T T T"
Zn       1.92947276       1.36434310       3.34194452       0.00000055       0.00000021      -0.00000044
Zn       5.78841793       4.09302937      10.02583357      -0.00000009      -0.00000067      -0.00000048
Rh      -0.00000004      -0.00000015       0.00000017       0.00000049      -0.00000026      -0.00000099
Se       2.00075674       1.41474888       6.68388956      -0.00002149      -0.00001555       0.00000040
Se       5.71713368       4.04262372       6.68388946       0.00002195       0.00001547       0.00000110
Se       4.78803924       1.41474887       5.07465044       0.00000967      -0.00001480      -0.00001879
Se       2.92985107       4.04262371       8.29312718      -0.00001097       0.00001595       0.00001901
Se       2.92985104       4.04262388       5.07465069      -0.00001068       0.00001520      -0.00001806
Se       4.78803899       1.41474865       8.29312712       0.00001055      -0.00001551       0.00001825
