9
Lattice="4.572093404956275 -8.466523324052817e-08 2.639699399443421 1.5240310698327628 4.310610617068417 2.639699374033418 2.7727865303697666e-08 -1.1514218678872442e-08 5.2793987508607945" Properties=species:S:1:pos:R:3:forces:R:3 energy=-39.153011322021484 free_energy=-39.153011322021484 stress="0.0003691699239425361 -6.709192490461646e-08 8.744921231595981e-09 -6.709192490461646e-08 0.00036913910298608243 -3.856279562342024e-08 8.744921231595981e-09 -3.856279562342024e-08 0.0003692114551085979" pbc="T T T"
Zn       1.52403224       1.07765349       2.63969931       0.00000933       0.00000569      -0.00000059
Zn       4.57209402       3.23295691       7.91909897       0.00000467      -0.00000567       0.00000540
Rh       0.00000018       0.00000014       0.00000006       0.00000069      -0.00000380      -0.00000266
O        1.54573136       1.09299737       5.27939871      -0.00346969      -0.00244914      -0.00000118
O        4.55039291       3.21761363       5.27939851       0.00346960       0.00245385      -0.00000104
O        3.79922745       1.09299752       3.97834194       0.00173330      -0.00245093      -0.00300732
O        2.29689652       3.21761295       6.58045490      -0.00174136       0.00245480       0.00300784
O        2.29689668       3.21761297       3.97834210      -0.00173818       0.00244969      -0.00300847
O        3.79922677       1.09299717       6.58045580       0.00173205      -0.00245395       0.00300866
