9
Lattice="5.431882685517852 -4.535199399464584e-08 3.1360988585945866 1.810627448729405 5.121228261948319 3.136098980447051 -2.1034235637295942e-07 5.037558100679611e-10 6.272198081512805" Properties=species:S:1:pos:R:3:forces:R:3 energy=-32.767696380615234 free_energy=-32.767696380615234 stress="-8.146685286192223e-05 1.624056111815264e-09 1.2554187023283703e-08 1.624056111815264e-09 -8.148593042278662e-05 1.5450291712681974e-08 1.2554187023283703e-08 1.5450291712681974e-08 -8.146645268425345e-05" pbc="T T T"
Zn       1.81062724       1.28030734       3.13609949      -0.00000142      -0.00000132       0.00000590
Zn       5.43188301       3.84092107       9.40829747       0.00000276      -0.00000138       0.00000634
Ru       0.00000017      -0.00000217       0.00000163       0.00000238      -0.00001690       0.00001258
S        1.88728050       1.33450955       6.27219795      -0.00202793      -0.00142837      -0.00000408
S        5.35522957       3.78671961       6.27219718       0.00202703       0.00143707      -0.00000537
S        4.48824218       1.33450900       4.77053162       0.00101188      -0.00143009      -0.00175798
S        2.75426752       3.78671950       7.77386387      -0.00101373       0.00143617       0.00175148
S        2.75426717       3.78671974       4.77053126      -0.00101465       0.00143576      -0.00175905
S        4.48824224       1.33450932       7.77386306       0.00101402      -0.00143075       0.00175005
