9
Lattice="5.810679481290965 -5.4105907355756374e-08 3.354797307687011 1.9368931481166964 5.4783611030529356 3.354797240660272 5.613581471542376e-08 -4.2396638466354486e-08 6.709594518143934" Properties=species:S:1:pos:R:3:forces:R:3 energy=-31.523929595947266 free_energy=-31.523929595947266 stress="-6.332696648314595e-05 -4.262314501346509e-09 9.649680166035068e-09 -4.262314501346509e-09 -6.332812336040661e-05 -1.2818709649309312e-08 9.649680166035068e-09 -1.2818709649309312e-08 -6.329619645839557e-05" pbc="T T T"
Zn       1.93689302       1.36959040       3.35479699      -0.00000079       0.00000084      -0.00000075
Zn       5.81067957       4.10877096      10.06439118      -0.00000011       0.00000015      -0.00000146
Ru       0.00000010       0.00000011      -0.00000021       0.00000011       0.00000075       0.00000005
Se       2.00236040       1.41588258       6.70959473      -0.00061796      -0.00043591      -0.00000020
Se       5.74521239       4.06247828       6.70959491       0.00061750       0.00043764       0.00000116
Se       4.80949924       1.41588242       5.08889228       0.00030937      -0.00043799      -0.00053613
Se       2.93807346       4.06247839       8.33029717      -0.00030866       0.00043607       0.00053453
Se       2.93807331       4.06247849       5.08889221      -0.00030943       0.00043742      -0.00053494
Se       4.80949924       1.41588242       8.33029699       0.00030996      -0.00043897       0.00053763
