9
Lattice="5.444542804304364 1.492883697286575e-07 3.143408364533707 1.8148476871915773 5.133164731912069 3.1434084597855003 -5.5886762985894516e-08 7.714123352806e-08 6.286816825866182" Properties=species:S:1:pos:R:3:forces:R:3 energy=-31.293102264404297 free_energy=-31.293102264404297 stress="-0.00010031733108917251 1.7435747068361707e-08 -1.2015807904219855e-08 1.7435747068361707e-08 -0.00010034739534603432 2.0607341610912044e-08 -1.2015807904219855e-08 2.0607341610912044e-08 -0.0001003152210614644" pbc="T T T"
Zn       1.81484691       1.28329148       3.14340910      -0.00000231      -0.00000012       0.00000305
Zn       5.44454264       3.84987393       9.43022535      -0.00000118       0.00000096       0.00000027
Rh      -0.00000021      -0.00000006      -0.00000008      -0.00000030      -0.00000092      -0.00000066
S        1.87745016       1.32755769       6.28681672      -0.00545222      -0.00385743       0.00000001
S        5.38194038       3.80560721       6.28681687       0.00545514       0.00385684       0.00000069
S        4.50581783       1.32755782       4.76932786       0.00272685      -0.00385493      -0.00472230
S        2.75357278       3.80560739       7.80430571      -0.00272685       0.00385815       0.00472283
S        2.75357258       3.80560680       4.76932756      -0.00272647       0.00385332      -0.00472361
S        4.50581860       1.32755761       7.80430559       0.00272730      -0.00385612       0.00471979
