9
Lattice="5.908446609965973 9.164175255650931e-08 3.4112434288286972 1.9694822912096004 5.570536850285349 3.4112434262532987 -5.2586348686382755e-09 -6.872657389511151e-09 6.822486866765671" Properties=species:S:1:pos:R:3:forces:R:3 energy=-26.0372257232666 free_energy=-26.0372257232666 stress="0.0001573886547703296 1.2933867310493952e-08 -1.4511118529014766e-08 1.2933867310493952e-08 0.0001573879853822291 1.8465048157167985e-08 -1.4511118529014766e-08 1.8465048157167985e-08 0.00015737088688183576" pbc="T T T"
Zn       1.96948300       1.39263405       3.41124259       0.00000346      -0.00000233      -0.00000216
Zn       5.90844682       4.17790218      10.23373085       0.00000161      -0.00000300       0.00000134
Sb       0.00000005       0.00000012      -0.00000018      -0.00000210      -0.00000135       0.00000275
S        2.00456963       1.41744534       6.82248694       0.00307316       0.00217414       0.00000055
S        5.87335894       4.15309187       6.82248672      -0.00307256      -0.00217131      -0.00000182
S        4.90616159       1.41744511       5.14725211      -0.00153676       0.00217438       0.00266105
S        2.97176686       4.15309196       8.49772177       0.00153553      -0.00217366      -0.00266162
S        2.97176719       4.15309219       5.14725212       0.00153783      -0.00217170       0.00266153
S        4.90616147       1.41744502       8.49772218      -0.00153986       0.00217500      -0.00266171
