9
Lattice="4.592302657392045 6.11602423863717e-08 2.6513672066968703 1.5307675667963077 4.329664829572254 2.651367281746834 -2.640726367656649e-08 7.324433910730272e-08 5.302734459132465" Properties=species:S:1:pos:R:3:forces:R:3 energy=-38.453704833984375 free_energy=-38.453704833984375 stress="0.00021030557400081307 1.473854549516318e-08 -4.526828245587922e-09 1.473854549516318e-08 0.0002104126469930634 -5.694165139402685e-09 -4.526828245587922e-09 -5.694165139402685e-09 0.00021030321659054607" pbc="T T T"
Zn       1.53076747       1.08241634       2.65136725       0.00000002       0.00000092       0.00000012
Zn       4.59230297       3.24724937       7.95410160       0.00000086       0.00000550      -0.00000097
Sb      -0.00000005       0.00000014       0.00000007      -0.00000800      -0.00000248      -0.00000255
O        1.60829319       1.13723462       5.30273456      -0.00510472      -0.00361073       0.00000090
O        4.51477730       3.19242960       5.30273471       0.00511074       0.00361454       0.00000095
O        3.78815619       1.13723501       4.04418986       0.00255677      -0.00361353      -0.00442493
O        2.33491409       3.19243036       6.56127899      -0.00255531       0.00361264       0.00441921
O        2.33491383       3.19242943       4.04418960      -0.00255299       0.00360870      -0.00442064
O        3.78815583       1.13723499       6.56127905       0.00255215      -0.00361609       0.00442708
