9
Lattice="6.492821142023487 -1.2384961530632194e-07 3.7486321115636 2.164273609176586 6.121490449124558 3.7486320908909616 1.06884980745285e-08 -1.7760758006515968e-08 7.4972642046141456" Properties=species:S:1:pos:R:3:forces:R:3 energy=-23.057443618774414 free_energy=-23.057443618774414 stress="-5.006175706512295e-05 -3.1035651826272215e-09 -5.786161327847594e-09 -3.1035651826272215e-09 -5.0059759814757854e-05 8.191459954787206e-09 -5.786161327847594e-09 8.191459954787206e-09 -5.005437196814455e-05" pbc="T T T"
Zn       2.16427364       1.53037270       3.74863209      -0.00000005      -0.00000005      -0.00000002
Zn       6.49282097       4.59111775      11.24589649      -0.00000030       0.00000007      -0.00000002
Sb       0.00000000      -0.00000015       0.00000014      -0.00000001      -0.00000001      -0.00000062
Te       2.41165811       1.70529971       7.49726410      -0.00137980      -0.00097539       0.00000010
Te       6.24543693       4.41619041       7.49726400       0.00137907       0.00097537       0.00000026
Te       5.28699197       1.70529991       5.83718969       0.00069030      -0.00097609      -0.00119548
Te       3.37010265       4.41619053       9.15733907      -0.00068945       0.00097568       0.00119516
Te       3.37010274       4.41619070       5.83718917      -0.00068955       0.00097561      -0.00119458
Te       5.28699206       1.70529967       9.15733884       0.00068982      -0.00097522       0.00119507
