9
Lattice="5.868620290648185 6.444422089793359e-07 3.3882494108429735 1.956207377530364 5.532988268658148 3.3882493997665577 -4.513080182680066e-08 -4.547813001927824e-08 6.776498899854775" Properties=species:S:1:pos:R:3:forces:R:3 energy=-25.556673049926758 free_energy=-25.556673049926758 stress="-0.00010836478759301826 5.72550433730612e-08 2.2214257100472423e-08 5.72550433730612e-08 -0.00010838664456969127 -2.884781835632566e-08 2.2214257100472423e-08 -2.884781835632566e-08 -0.00010849980026250705" pbc="T T T"
Zn       1.95620665       1.38324707       3.38824995      -0.00000221      -0.00000167       0.00000015
Zn       5.86862069       4.14974063      10.16474815       0.00000153       0.00000076      -0.00000010
Sb      -0.00000203      -0.00000027      -0.00000271       0.00000798       0.00000285       0.00001087
Se       2.34675208       1.65940316       6.77649921      -0.00674456      -0.00476792      -0.00000063
Se       5.47807783       3.87358720       6.77649898       0.00673389       0.00476189      -0.00000072
Se       4.69524440       1.65940290       5.42059292       0.00336985      -0.00476228      -0.00583468
Se       3.12958153       3.87358539       8.13240597      -0.00336690       0.00476199       0.00582759
Se       3.12958290       3.87358588       5.42059358      -0.00336792       0.00476445      -0.00583279
Se       4.69524637       1.65940348       8.13240495       0.00336839      -0.00476013       0.00583024
