9
Lattice="4.599003757269828 1.0860602840264582e-07 2.655236040213187 1.5330013444889596 4.335982458645946 2.6552360581036876 6.404942866981502e-08 6.720105757530935e-08 5.310471969489504" Properties=species:S:1:pos:R:3:forces:R:3 energy=-50.34502410888672 free_energy=-50.34502410888672 stress="5.915197834838182e-05 -2.4945467913539687e-09 -1.9193620914847997e-08 -2.4945467913539687e-09 5.892022090847604e-05 -2.6778671724514425e-08 -1.9193620914847997e-08 -2.6778671724514425e-08 5.913133645663038e-05" pbc="T T T"
Zn       1.53300081       1.08399589       2.65523568      -0.00000213      -0.00000131      -0.00000050
Zn       4.59900375       3.25198656       7.96570745      -0.00000226      -0.00000093      -0.00000391
Ta      -0.00000022      -0.00000030      -0.00000006      -0.00000156       0.00000091      -0.00000059
O        1.59807857       1.13001266       5.31047212      -0.00082302      -0.00057828       0.00000255
O        4.53392666       3.20597028       5.31047234       0.00082457       0.00058067       0.00000073
O        3.79996426       1.13001230       4.03921286       0.00041136      -0.00058103      -0.00070804
O        2.33204099       3.20597055       6.58173151      -0.00040916       0.00057787       0.00070989
O        2.33204104       3.20597023       4.03921291      -0.00040871       0.00058055      -0.00070888
O        3.79996480       1.13001247       6.58173125       0.00041068      -0.00057864       0.00070912
