9
Lattice="5.549258965243054 4.301535178220949e-08 3.203866058961222 1.849752969881718 5.231891959079972 3.203866161304575 -6.187996099347402e-08 8.158870783564803e-08 6.40773222510166" Properties=species:S:1:pos:R:3:forces:R:3 energy=-37.84029769897461 free_energy=-37.84029769897461 stress="-2.145981852663681e-05 1.3035293955354632e-09 -5.814462866737813e-08 1.3035293955354632e-09 -2.1488840502570383e-05 8.421914543532694e-08 -5.814462866737813e-08 8.421914543532694e-08 -2.145096550520975e-05" pbc="T T T"
Zn       1.84975310       1.30797274       3.20386558       0.00000129      -0.00000122      -0.00000284
Zn       5.54925909       3.92391974       9.61159964       0.00000035       0.00000179       0.00000857
Ta      -0.00000034      -0.00000064       0.00000087       0.00000226       0.00000728      -0.00001170
S        1.94471883       1.37512403       6.40773215      -0.00084949      -0.00060162      -0.00000058
S        5.45429312       3.85676841       6.40773196       0.00084341       0.00059763      -0.00000356
S        4.57689995       1.37512414       4.88804198       0.00042450      -0.00059807      -0.00073400
S        2.82211257       3.85676748       7.92742188      -0.00042874       0.00060301       0.00073636
S        2.82211206       3.85676865       4.88804172      -0.00041772       0.00059402      -0.00072655
S        4.57689905       1.37512391       7.92742194       0.00042364      -0.00060283       0.00073457
