9
Lattice="6.33319289429693 2.937541233468918e-08 3.6564706872222845 2.111064296186662 5.970991737872286 3.656470738504435 -7.671273525342897e-08 8.563402135812357e-09 7.312941507314942" Properties=species:S:1:pos:R:3:forces:R:3 energy=-32.206581115722656 free_energy=-32.206581115722656 stress="-7.864445797167718e-05 -1.4931247349636578e-08 -7.562526604942832e-09 -1.4931247349636578e-08 -7.863193604862317e-05 1.1997677518138516e-08 -7.562526604942832e-09 1.1997677518138516e-08 -7.861517951823771e-05" pbc="T T T"
Zn       2.11106423       1.49274789       3.65647065      -0.00000005      -0.00000011      -0.00000072
Zn       6.33319283       4.47824387      10.96941206       0.00000029       0.00000002      -0.00000065
Ta      -0.00000001       0.00000001       0.00000001       0.00000058       0.00000027       0.00000097
Te       2.24209924       1.58540377       7.31294144      -0.00257979      -0.00182418      -0.00000056
Te       6.20215803       4.38558818       7.31294155       0.00257902       0.00182395      -0.00000026
Te       5.21214324       1.58540353       5.59818586       0.00129037      -0.00182537      -0.00223470
Te       3.23211404       4.38558790       9.02769713      -0.00129097       0.00182609       0.00223557
Te       3.23211369       4.38558813       5.59818597      -0.00128993       0.00182448      -0.00223398
Te       5.21214318       1.58540382       9.02769709       0.00129056      -0.00182517       0.00223427
