9
Lattice="5.91038118063939 -2.5403948113854107e-07 3.4123600511444465 1.9701268199927486 5.572361007592793 3.4123600523733897 -1.1545334586698812e-07 -8.013258979498108e-08 6.824720302259937" Properties=species:S:1:pos:R:3:forces:R:3 energy=-35.006591796875 free_energy=-35.006591796875 stress="8.885773422662169e-05 -7.324676687403553e-08 3.006038440389602e-08 -7.324676687403553e-08 8.893090853234753e-05 -4.211819160104824e-08 3.006038440389602e-08 -4.211819160104824e-08 8.899826934793964e-05" pbc="T T T"
Zn       1.97012741       1.39309004       3.41235981       0.00000059       0.00000039      -0.00000098
Zn       5.91038046       4.17927075      10.23708079      -0.00000056      -0.00000000       0.00000031
Ta       0.00000012       0.00000003      -0.00000042       0.00000066      -0.00000135      -0.00000036
Se       2.05839298       1.45550368       6.82472073      -0.00470681      -0.00332870      -0.00000041
Se       5.82211512       4.11685718       6.82472031       0.00470669       0.00332818      -0.00000016
Se       4.88118463       1.45550369       5.19498080       0.00235512      -0.00333047      -0.00407951
Se       2.99932349       4.11685659       8.45445900      -0.00235641       0.00333275       0.00408076
Se       2.99932360       4.11685674       5.19498125      -0.00235669       0.00333329      -0.00408312
Se       4.88118368       1.45550403       8.45445924       0.00235736      -0.00333412       0.00408346
