9
Lattice="4.212509916680114 -3.062693424738525e-08 2.432093651056838 1.4041698800608182 3.9715928854940237 2.4320937606792308 -1.517332667290799e-07 2.6967861106181015e-08 4.864187564923412" Properties=species:S:1:pos:R:3:forces:R:3 energy=-64.96855163574219 free_energy=-64.96855163574219 stress="6.876498082419857e-05 1.2286817785422954e-08 -3.534184145337349e-08 1.2286817785422954e-08 6.872409721836448e-05 1.0636669145469568e-07 -3.534184145337349e-08 1.0636669145469568e-07 6.866663898108527e-05" pbc="T T T"
Zr       1.40417024       0.99289858       2.43209338      -0.00000088      -0.00000207       0.00000257
Zr       4.21250964       2.97869436       7.29628090       0.00000027       0.00000286       0.00000179
Ga       0.00000003       0.00000010      -0.00000012      -0.00000014      -0.00000241      -0.00000653
N        1.52998325       1.08186177       4.86418757       0.00016010       0.00011212      -0.00000092
N        4.08669643       2.88973129       4.86418725      -0.00015956      -0.00011206      -0.00000021
N        3.44751824       1.08186133       3.75709804      -0.00008014       0.00011367       0.00013900
N        2.16916136       2.88973080       5.97127731       0.00007790      -0.00010985      -0.00013494
N        2.16916145       2.88973116       3.75709801       0.00008136      -0.00011390       0.00013882
N        3.44751808       1.08186219       5.97127717      -0.00007901       0.00011170      -0.00013858
