9
Lattice="4.481495001620973 3.609951061161936e-07 2.587392542397366 1.4938318288435477 4.225195716934516 2.587392851937187 9.744903728434055e-08 4.4801413313198537e-07 5.174784916008112" Properties=species:S:1:pos:R:3:forces:R:3 energy=-63.372589111328125 free_energy=-63.372589111328125 stress="1.1037798941515575e-07 -4.744533441680687e-07 -3.583805963103259e-08 -4.744533441680687e-07 -2.643825212089723e-07 -1.5978119449755468e-07 -3.583805963103259e-08 -1.5978119449755468e-07 2.4384289076806454e-07" pbc="T T T"
Zr       1.49382924       1.05630042       2.58739248      -0.00001144       0.00001096       0.00000006
Zr       4.48149739       3.16889514       7.76217760       0.00001239      -0.00001348       0.00000152
Sb      -0.00000005      -0.00000005       0.00000016       0.00000568       0.00000401       0.00000448
N        1.62461541       1.14877757       5.17478527      -0.00196254      -0.00138354       0.00000010
N        4.35071263       3.07641825       5.17478592       0.00195909       0.00136602       0.00000821
N        3.66918874       1.14877841       3.99435134       0.00099581      -0.00138259      -0.00170028
N        2.30613763       3.07641975       6.35521772      -0.00099552       0.00139230       0.00168180
N        2.30613881       3.07641782       3.99435134      -0.00099283       0.00138491      -0.00169659
N        3.66918785       1.14877919       6.35521914       0.00098914      -0.00137913       0.00170255
