9
Lattice="4.481163415856606 -4.171923263876375e-08 2.587201020104741 1.4937210662758287 4.224881483574674 2.587201077279342 -6.058284035925272e-08 2.7185768320856065e-08 5.174402145142035" Properties=species:S:1:pos:R:3:forces:R:3 energy=-65.92633819580078 free_energy=-65.92633819580078 stress="-0.00037979139597155154 -6.306863298277676e-08 -1.6586571405241557e-07 -6.306863298277676e-08 -0.00037981217610649765 -4.091612737511241e-08 -1.6586571405241557e-07 -4.091612737511241e-08 -0.000380053767003119" pbc="T T T"
Zr       1.49371990       1.05621960       2.58720083      -0.00001591      -0.00000649      -0.00000670
Zr       4.48116342       3.16866072       7.76160504       0.00000355      -0.00000717       0.00003002
Y       -0.00000034      -0.00000033       0.00000069      -0.00000710       0.00000160       0.00000622
N        1.72524190       1.21993100       5.17440281      -0.00361902      -0.00254893       0.00001106
N        4.24964169       3.00495054       5.17440032       0.00361785       0.00255626      -0.00002143
N        3.61854357       1.21993197       4.08130500       0.00182858      -0.00254717      -0.00313152
N        2.35634163       3.00495142       6.26749882      -0.00181817       0.00255777       0.00312231
N        2.35634330       3.00495127       4.08130492      -0.00179949       0.00256328      -0.00313212
N        3.61854257       1.21992975       6.26749855       0.00180899      -0.00257009       0.00312281
