9
Lattice="7.16620742458117 4.136464696802881e-07 4.137411529128525 2.38873587248493 6.756365457043221 4.137412093254718 -1.611059730948952e-07 5.769914224190049e-07 8.274823337300854" Properties=species:S:1:pos:R:3:forces:R:3 energy=-21.553482055664062 free_energy=-21.553482055664062 stress="-1.0689907867345028e-05 2.1091956625696184e-08 1.4207978793479015e-08 2.1091956625696184e-08 -1.0711970389820635e-05 -1.54522901141263e-08 1.4207978793479015e-08 -1.54522901141263e-08 -1.0715468306443654e-05" pbc="T T T"
Tl       2.38873604       1.68909169       4.13741130      -0.00000008      -0.00000070      -0.00000088
Tl       7.16620728       5.06727451      12.41223605      -0.00000006       0.00000051       0.00000144
Pb      -0.00000038       0.00000009      -0.00000021       0.00000172      -0.00000006      -0.00000001
I        2.57209624       1.81874776       8.27482339      -0.00063778      -0.00044981      -0.00000029
I        6.98284682       4.93761865       8.27482338       0.00063650       0.00044952       0.00000025
I        5.88015924       1.81874751       6.36491280       0.00031814      -0.00044936      -0.00055332
I        3.67478414       4.93761907      10.18473416      -0.00031785       0.00044934       0.00055344
I        3.67478570       4.93761987       6.36491396      -0.00031856       0.00045171      -0.00055307
I        5.88015746       1.81874664      10.18473314       0.00031800      -0.00045122       0.00055249
