9
Lattice="6.7075572700951165 8.936597450645511e-09 3.8726098469376065 2.235852392208447 6.323945450346762 3.8726099154959757 -5.185708913209759e-08 4.729793523335264e-08 7.745219783694394" Properties=species:S:1:pos:R:3:forces:R:3 energy=-18.4838809967041 free_energy=-18.4838809967041 stress="-3.7359750422183424e-05 7.1376562438274505e-09 1.4025104411174993e-09 7.1376562438274505e-09 -3.736439975909889e-05 -3.5236438211683208e-09 1.4025104411174993e-09 -3.5236438211683208e-09 -3.736492362804711e-05" pbc="T T T"
Ag       2.23585218       1.58098625       3.87261009      -0.00000048      -0.00000037       0.00000047
Ag       6.70755737       4.74295947      11.61782905       0.00000022       0.00000066      -0.00000062
As      -0.00000040       0.00000017      -0.00000019       0.00000268      -0.00000119       0.00000112
I        2.29911251       1.62571816       7.74521983       0.00064093       0.00045292      -0.00000022
I        6.64429696       4.69822751       7.74522010      -0.00064117      -0.00045405       0.00000008
I        5.55800123       1.62571742       5.86369947      -0.00032141       0.00045410       0.00055674
I        3.38540861       4.69822773       9.62673991       0.00032053      -0.00045301      -0.00055510
I        3.38540877       4.69822756       5.86369970       0.00032035      -0.00045353       0.00055392
I        5.55800126       1.62571773       9.62674017      -0.00032160       0.00045443      -0.00055629
