9
Lattice="6.709275916433627 3.1108657852560205e-08 3.873602142627954 2.2364252948429275 6.325565942573183 3.8736022118484588 -5.111892467586006e-08 4.863091373255996e-08 7.747204373796489" Properties=species:S:1:pos:R:3:forces:R:3 energy=-18.483875274658203 free_energy=-18.483875274658203 stress="8.503284334437922e-05 9.965153147106776e-09 -4.083786642183895e-09 9.965153147106776e-09 8.502280252287164e-05 4.327466385234402e-09 -4.083786642183895e-09 4.327466385234402e-09 8.501492266077548e-05" pbc="T T T"
Ag       2.23642523       1.58139147       3.87360212      -0.00000035       0.00000014       0.00000004
Ag       6.70927596       4.74417469      11.62080643       0.00000046       0.00000035       0.00000022
As       0.00000030       0.00000017      -0.00000009      -0.00000146      -0.00000062       0.00000021
I        2.29964205       1.62609271       7.74720428      -0.00141039      -0.00099754      -0.00000012
I        6.64605892       4.69947314       7.74720438       0.00141215       0.00099872      -0.00000007
I        5.55945472       1.62609250       5.86515076       0.00070518      -0.00099798      -0.00122234
I        3.38624641       4.69947343       9.62925817      -0.00070522       0.00099717       0.00122172
I        3.38624634       4.69947351       5.86515058      -0.00070505       0.00099710      -0.00122112
I        5.55945471       1.62609250       9.62925827       0.00070464      -0.00099733       0.00122146
