9
Lattice="6.193545073411209 8.670729294779265e-08 3.5758448882575076 2.0645150955667635 5.839330603216142 3.57584490670753 8.574779692689975e-09 2.865967545674398e-08 7.151689761663227" Properties=species:S:1:pos:R:3:forces:R:3 energy=-21.255321502685547 free_energy=-21.255321502685547 stress="-4.489386628847569e-05 9.33788157908566e-09 -4.32448121756579e-09 9.33788157908566e-09 -4.490401261136867e-05 4.083008375843633e-10 -4.32448121756579e-09 4.083008375843633e-10 -4.4917680497746915e-05" pbc="T T T"
Ag       2.06451490       1.45983250       3.57584489      -0.00000016       0.00000036      -0.00000011
Ag       6.19354530       4.37949830      10.72753427       0.00000038       0.00000020      -0.00000060
As      -0.00000013      -0.00000017       0.00000028       0.00000156       0.00000092      -0.00000106
Br       2.10626723       1.48935627       7.15168981      -0.00532776      -0.00376787      -0.00000075
Br       6.15179304       4.34997465       7.15169007       0.00532635       0.00376660       0.00000021
Br       5.14041145       1.48935617       5.39992594       0.00266227      -0.00376672      -0.00461088
Br       3.11764892       4.34997426       8.90345361      -0.00266364       0.00376760       0.00461262
Br       3.11764874       4.34997451       5.39992578      -0.00266282       0.00376630      -0.00461167
Br       5.14041133       1.48935641       8.90345356       0.00266369      -0.00376747       0.00461219
