9
Lattice="5.795584987897398 -9.113446478112121e-08 3.3460826102645442 1.9318616452625914 5.464129679887361 3.3460824915280845 1.2250674699797875e-07 -5.8796530492525395e-08 6.6921650083411945" Properties=species:S:1:pos:R:3:forces:R:3 energy=-24.56131935119629 free_energy=-24.56131935119629 stress="9.478803985984996e-05 -3.0023382890931316e-08 5.428498539572502e-09 -3.0023382890931316e-08 9.477526327827945e-05 -2.8512740612995913e-08 5.428498539572502e-09 -2.8512740612995913e-08 9.483192843617871e-05" pbc="T T T"
Ag       1.93186147       1.36603233       3.34608243       0.00000019      -0.00000022      -0.00000002
Ag       5.79558511       4.09809733      10.03824739       0.00000009       0.00000045      -0.00000060
As      -0.00000023       0.00000013       0.00000051       0.00000211       0.00000086      -0.00000670
Cl       1.93809062       1.37043658       6.69216507       0.00096330       0.00068145       0.00000006
Cl       5.78935648       4.09369295       6.69216509      -0.00096503      -0.00068372       0.00000096
Cl       4.82653982       1.37043666       5.02451804      -0.00048226       0.00068185       0.00083575
Cl       2.90090704       4.09369257       8.35981185       0.00048088      -0.00067998      -0.00083217
Cl       2.90090701       4.09369261       5.02451828       0.00048055      -0.00067963       0.00083289
Cl       4.82653974       1.37043700       8.35981182      -0.00047967       0.00067902      -0.00083011
