9
Lattice="5.067095182176905 -7.527188523450899e-08 2.925488849956487 1.6890316905116738 4.777303148490148 2.9254887909169613 4.741663853260203e-08 -3.877969690710036e-08 5.850977617784949" Properties=species:S:1:pos:R:3:forces:R:3 energy=-35.449615478515625 free_energy=-35.449615478515625 stress="0.000345760490745306 -5.364027444443309e-08 6.9389289869548065e-09 -5.364027444443309e-08 0.0003457570855971426 2.5679110393639348e-08 6.9389289869548065e-09 2.5679110393639348e-08 0.00034585079993121326" pbc="T T T"
Ag       1.68903176       1.19432594       2.92548902       0.00000013      -0.00000033      -0.00000034
Ag       5.06709530       3.58297731       8.77646658      -0.00000016       0.00000019       0.00000019
As       0.00000006       0.00000005      -0.00000000      -0.00000235      -0.00000216      -0.00000010
F        1.54638325       1.09345798       5.85097778      -0.00685519      -0.00484732      -0.00000058
F        5.20974355       3.68384509       5.85097765       0.00685659       0.00484791       0.00000042
F        4.29390312       1.09345825       4.26469646       0.00343022      -0.00485084      -0.00594094
F        2.46222354       3.68384466       7.43725865      -0.00343001       0.00485197       0.00594120
F        2.46222364       3.68384462       4.26469632      -0.00342973       0.00485015      -0.00593968
F        4.29390347       1.09345822       7.43725864       0.00343054      -0.00484949       0.00593973
