9
Lattice="6.195872174824533 5.2954380327839094e-08 3.577188486030055 2.065290770219678 5.8415246200657664 3.577188494080071 9.4692503020911e-08 7.681689277027148e-08 7.154376808047876" Properties=species:S:1:pos:R:3:forces:R:3 energy=-21.255348205566406 free_energy=-21.255348205566406 stress="3.75206109310966e-05 -3.1898432784061015e-09 -5.454587448383563e-09 -3.1898432784061015e-09 3.75169183826074e-05 6.6984786606383295e-09 -5.454587448383563e-09 6.6984786606383295e-09 3.751251279027201e-05" pbc="T T T"
Ag       2.06529103       1.46038136       3.57718834       0.00000033      -0.00000003       0.00000012
Ag       6.19587223       4.38114307      10.73156557       0.00000020      -0.00000070       0.00000023
As      -0.00000001      -0.00000017      -0.00000003       0.00000132      -0.00000019       0.00000008
Br       2.10596853       1.48914543       7.15437673      -0.00018294      -0.00012869       0.00000006
Br       6.15519407       4.35237995       7.15437685       0.00018311       0.00012735      -0.00000000
Br       5.14288737       1.48914484       5.40101046       0.00009084      -0.00012877      -0.00015734
Br       3.11827561       4.35238002       8.90774272      -0.00009182       0.00012936       0.00015989
Br       3.11827530       4.35238013       5.40101116      -0.00009121       0.00012961      -0.00015859
Br       5.14288802       1.48914436       8.90774318       0.00009011      -0.00012796       0.00015558
