9
Lattice="5.068296525435906 -3.377373569219982e-07 2.9261825392861187 1.689431962318329 4.778435443990638 2.9261823563904823 -7.467151126604167e-08 -2.7680124541903583e-07 5.85236520790711" Properties=species:S:1:pos:R:3:forces:R:3 energy=-35.44963455200195 free_energy=-35.44963455200195 stress="0.0002292062563356012 -8.991167810279421e-09 -2.140364507852155e-08 -8.991167810279421e-09 0.00022908060054760426 -3.676452564604915e-08 -2.140364507852155e-08 -3.676452564604915e-08 0.0002291349519509822" pbc="T T T"
Ag       1.68943213       1.19460847       2.92618244       0.00000007       0.00000015       0.00000008
Ag       5.06829596       3.58382646       8.77854772       0.00000015      -0.00000018      -0.00000022
As       0.00000008       0.00000030      -0.00000016       0.00000088      -0.00000312       0.00000473
F        1.54566703       1.09295141       5.85236524      -0.00291017      -0.00205676      -0.00000021
F        5.21206195       3.68548371       5.85236528       0.00290912       0.00205670      -0.00000088
F        4.29546300       1.09295084       4.26476943       0.00145491      -0.00205587      -0.00251975
F        2.46226547       3.68548339       7.43996073      -0.00145482       0.00205685       0.00251814
F        2.46226521       3.68548403       4.26476905      -0.00145440       0.00205803      -0.00252008
F        4.29546285       1.09295070       7.43996103       0.00145422      -0.00205582       0.00251825
