9
Lattice="5.794425411353155 8.535763408762312e-08 3.3454133673548907 1.9314752234024277 5.463036797300093 3.3454133572936877 3.780171103578514e-09 -9.649428747297357e-09 6.6908267281623575" Properties=species:S:1:pos:R:3:forces:R:3 energy=-24.561325073242188 free_energy=-24.561325073242188 stress="-2.828158176271245e-05 -1.072870237095458e-09 -5.668908009681672e-09 -1.072870237095458e-09 -2.825664523697924e-05 -1.1100845576095253e-08 -5.668908009681672e-09 -1.1100845576095253e-08 -2.823880458890926e-05" pbc="T T T"
Ag       1.93147498       1.36575968       3.34541328      -0.00000050       0.00000131       0.00000026
Ag       5.79442562       4.09727794      10.03623976       0.00000033       0.00000072      -0.00000084
As       0.00000003      -0.00000003      -0.00000045       0.00000004      -0.00000159      -0.00000013
Cl       1.93790394       1.37030532       6.69082685       0.00055814       0.00039357       0.00000194
Cl       5.78799697       4.09273114       6.69082703      -0.00055662      -0.00039349       0.00000003
Cl       4.82547294       1.37030515       5.02368769      -0.00027896       0.00039233       0.00048023
Cl       2.90042715       4.09273183       8.35796590       0.00027892      -0.00039406      -0.00048104
Cl       2.90042736       4.09273162       5.02368799       0.00027862      -0.00039235       0.00048068
Cl       4.82547364       1.37030477       8.35796579      -0.00027975       0.00039360      -0.00048137
