9
Lattice="6.013702518443119 -5.572207482309535e-08 3.4720127705694868 2.0045674884139895 5.6697731846353925 3.4720127102914256 1.5160976531763894e-08 -6.310483667015644e-08 6.94402551487946" Properties=species:S:1:pos:R:3:forces:R:3 energy=-24.219669342041016 free_energy=-24.219669342041016 stress="-4.188851380604319e-05 4.233159156541433e-09 1.8317628303066158e-08 4.233159156541433e-09 -4.1895091271726415e-05 -1.9487327307388114e-08 1.8317628303066158e-08 -1.9487327307388114e-08 -4.187988452031277e-05" pbc="T T T"
Ag       2.00456767       1.41744334       3.47201286       0.00000058       0.00000006       0.00000007
Ag       6.01370250       4.25232969      10.41603796      -0.00000023       0.00000001      -0.00000110
Bi      -0.00000017      -0.00000039      -0.00000006       0.00000379       0.00000689      -0.00000014
Cl       2.08933471       1.47738270       6.94402537      -0.00117406      -0.00082971       0.00000050
Cl       5.92893565       4.19239064       6.94402590       0.00116786       0.00082576       0.00000018
Cl       4.96903524       1.47738240       5.28142909       0.00058552      -0.00082768      -0.00101253
Cl       3.04923469       4.19239074       8.60662205      -0.00058403       0.00082590       0.00101106
Cl       3.04923484       4.19239042       5.28142942      -0.00058547       0.00082814      -0.00101395
Cl       4.96903499       1.47738272       8.60662138       0.00058596      -0.00082943       0.00101601
