9
Lattice="6.970569888015072 -2.885578299367266e-08 4.024460519601523 2.3235233380815887 6.571916242650421 4.024460399601445 1.1372151859695247e-07 -6.655621956104547e-08 8.04892084223162" Properties=species:S:1:pos:R:3:forces:R:3 energy=-18.196138381958008 free_energy=-18.196138381958008 stress="-2.502415736671537e-05 -9.604600670343189e-09 8.234762205461266e-09 -9.604600670343189e-09 -2.5018931410158984e-05 -5.0764317194307296e-09 8.234762205461266e-09 -5.0764317194307296e-09 -2.5018965970957652e-05" pbc="T T T"
Ag       2.32352330       1.64297909       4.02446051       0.00000057      -0.00000040      -0.00000052
Ag       6.97057001       4.92893717      12.07338124      -0.00000011       0.00000014       0.00000105
Bi       0.00000023       0.00000083       0.00000152      -0.00000047      -0.00000567      -0.00001105
I        2.48114496       1.75443358       8.04892101      -0.00144939      -0.00102547       0.00000010
I        6.81294815       4.81748212       8.04892106       0.00145189       0.00102763       0.00000024
I        5.72999794       1.75443405       6.17319416       0.00072416      -0.00102310      -0.00125396
I        3.56409574       4.81748117       9.92464648      -0.00072845       0.00102845       0.00126050
I        3.56409601       4.81748212       6.17319428      -0.00072491       0.00102600      -0.00125584
I        5.72999705       1.75443443       9.92464675       0.00072668      -0.00102763       0.00125949
