9
Lattice="4.705514905612063 -7.185262996747021e-09 2.7167300567724086 1.5685049725539761 4.436402057324324 2.716730038081893 -1.156481407827217e-07 -1.0466668331279693e-07 5.433460313853245" Properties=species:S:1:pos:R:3:forces:R:3 energy=-37.99169158935547 free_energy=-37.99169158935547 stress="-1.462030354559829e-06 -8.556732211673079e-08 -3.676787230233458e-08 -8.556732211673079e-08 -1.5348393844760722e-06 5.272299485881149e-09 -3.676787230233458e-08 5.272299485881149e-09 -1.45126580264332e-06" pbc="T T T"
Ag       1.56850516       1.10910032       2.71673007      -0.00000023       0.00000042       0.00000012
Ag       4.70551469       3.32730154       8.15019071       0.00000038      -0.00000025      -0.00000004
B        0.00000006       0.00000035      -0.00000021       0.00000004      -0.00000004      -0.00000257
F        1.30318821       0.92149333       5.43345994       0.00004506       0.00003755       0.00000300
F        4.97083147       3.51490865       5.43345985      -0.00004554      -0.00003755       0.00000234
F        4.05392045       0.92149336       3.84532406      -0.00001961       0.00003314       0.00004375
F        2.22009940       3.51490870       7.02159647       0.00002170      -0.00003499      -0.00004530
F        2.22009938       3.51490881       3.84532425       0.00001943      -0.00003290       0.00004351
F        4.05392043       0.92149326       7.02159627      -0.00002182       0.00003546      -0.00004554
