9
Lattice="5.976351172075512 2.1113289580175412e-07 3.4504480958038903 1.9921172237884568 5.634558213698468 3.4504481523172372 -3.5374330549977653e-09 6.671317840534189e-08 6.900896197734738" Properties=species:S:1:pos:R:3:forces:R:3 energy=-21.853389739990234 free_energy=-21.853389739990234 stress="9.081212192540988e-05 6.948999597966576e-09 -5.303075312212968e-09 6.948999597966576e-09 9.078990842681378e-05 -1.1036060953983906e-09 -5.303075312212968e-09 -1.1036060953983906e-09 9.084249177249148e-05" pbc="T T T"
Ag       1.99211709       1.40863988       3.45044829      -0.00000044      -0.00000015       0.00000011
Ag       5.97635166       4.22591862      10.35134410       0.00000086      -0.00000013      -0.00000048
B        0.00000038       0.00000016      -0.00000040       0.00000018      -0.00000054      -0.00000155
Br       1.84365901       1.30366391       6.90089634      -0.00105206      -0.00074386       0.00000072
Br       6.12480908       4.33089427       6.90089621       0.00105275       0.00074466       0.00000046
Br       5.05452176       1.30366405       5.04710383       0.00052479      -0.00074402      -0.00091274
Br       2.91394641       4.33089480       8.75468865      -0.00052557       0.00074360       0.00091285
Br       2.91394642       4.33089450       5.04710403      -0.00052703       0.00074409      -0.00091291
Br       5.05452186       1.30366393       8.75468864       0.00052639      -0.00074358       0.00091363
