9
Lattice="5.120024766749548 7.878753409093787e-08 2.9560477930224462 1.7066749747255279 4.827206004489085 2.9560478307913987 -3.884171611956861e-09 4.3510788225436506e-08 5.912095592772451" Properties=species:S:1:pos:R:3:forces:R:3 energy=-34.649837493896484 free_energy=-34.649837493896484 stress="0.00043621083023026586 -8.642282445237015e-09 -3.3115060915633876e-08 -8.642282445237015e-09 0.0004362139734439552 1.3190198266954667e-08 -3.3115060915633876e-08 1.3190198266954667e-08 0.000436256465036422" pbc="T T T"
Ag       1.70667493       1.20680160       2.95604770       0.00000015       0.00000016      -0.00000002
Ag       5.12002476       3.62040446       8.86814362       0.00000015      -0.00000013       0.00000008
Bi       0.00000017       0.00000010      -0.00000026       0.00000058      -0.00000275       0.00002467
F        1.71879837       1.21537415       5.91209563      -0.00255004      -0.00180319      -0.00000021
F        5.10790134       3.61183205       5.91209548       0.00255010       0.00180364      -0.00000006
F        4.26062551       1.21537430       4.44457101       0.00127889      -0.00180894      -0.00221512
F        2.56607421       3.61183192       7.37962036      -0.00127251       0.00180033       0.00220388
F        2.56607429       3.61183194       4.44457096      -0.00127870       0.00180894      -0.00221482
F        4.26062554       1.21537402       7.37962046       0.00127137      -0.00179809       0.00220168
