9
Lattice="6.972173926876143 -1.3799711650677149e-07 4.025386672665389 2.324057829300596 6.573428699213875 4.025386700758949 2.3551672838078806e-08 5.106104758991297e-08 8.050773304537975" Properties=species:S:1:pos:R:3:forces:R:3 energy=-18.19614028930664 free_energy=-18.19614028930664 stress="3.744633431779221e-05 -2.4040661017465936e-08 4.043352042071291e-10 -2.4040661017465936e-08 3.746091533685103e-05 3.3700919832568843e-09 4.043352042071291e-10 3.3700919832568843e-09 3.747441587620415e-05" pbc="T T T"
Ag       2.32405811       1.64335714       4.02538672       0.00000009       0.00000025      -0.00000010
Ag       6.97217367       4.93007145      12.07615990      -0.00000024      -0.00000008      -0.00000103
Bi      -0.00000015      -0.00000035       0.00000037       0.00000198       0.00000303      -0.00000404
I        2.48124441       1.75450482       8.05077333      -0.00008924      -0.00006317      -0.00000030
I        6.81498759       4.81892397       8.05077356       0.00008726       0.00006138       0.00000057
I        5.73155150       1.75450491       6.17420773       0.00004458      -0.00006387      -0.00007834
I        3.56468038       4.81892349       9.92733875      -0.00004547       0.00006476       0.00008044
I        3.56468023       4.81892374       6.17420781      -0.00004487       0.00006239      -0.00007746
I        5.73155138       1.75450523       9.92733859       0.00004594      -0.00006464       0.00008030
