9
Lattice="6.410042484799722 -5.102771838525556e-08 3.700839789225038 2.1366808194925913 6.043445921071404 3.700839721094083 -2.7167915932380283e-08 -1.0265353437311235e-07 7.401679625506288" Properties=species:S:1:pos:R:3:forces:R:3 energy=-20.985719680786133 free_energy=-20.985719680786133 stress="-2.6167685973632615e-07 4.09774649767769e-08 -4.506796713599215e-09 4.09774649767769e-08 -2.8694677212115494e-07 1.0304554542983624e-08 -4.506796713599215e-09 1.0304554542983624e-08 -3.150490215375612e-07" pbc="T T T"
Ag       2.13668135       1.51086156       3.70083961       0.00000075      -0.00000019      -0.00000061
Ag       6.41004240       4.53258443      11.10251947       0.00000021       0.00000107      -0.00000015
Bi       0.00000038       0.00000030       0.00000033      -0.00000178      -0.00000334      -0.00000252
Br       2.26686490       1.60291532       7.40167941      -0.00603476      -0.00426810      -0.00000032
Br       6.27985824       4.44053060       7.40167959       0.00603679       0.00426908      -0.00000045
Br       5.27661035       1.60291483       5.66400201       0.00301574      -0.00426406      -0.00522384
Br       3.27011288       4.44053031       9.13935706      -0.00301755       0.00426712       0.00522695
Br       3.27011267       4.44053071       5.66400212      -0.00301563       0.00426445      -0.00522371
Br       5.27660993       1.60291503       9.13935685       0.00301637      -0.00426599       0.00522467
