9
Lattice="6.411947864940661 8.089466960490797e-08 3.7019398542876463 2.137316058312411 6.045242415494354 3.7019398074114553 7.079832982258837e-08 -7.349381199508182e-09 7.403879585949003" Properties=species:S:1:pos:R:3:forces:R:3 energy=-20.98574447631836 free_energy=-20.98574447631836 stress="6.038367064320482e-05 2.2256095633110817e-08 1.8336084650627527e-08 2.2256095633110817e-08 6.036355625838041e-05 -3.0290777885966236e-08 1.8336084650627527e-08 -3.0290777885966236e-08 6.03458502155263e-05" pbc="T T T"
Ag       2.13731591       1.51131079       3.70193969      -0.00000016       0.00000085      -0.00000082
Ag       6.41194810       4.53393209      11.10581922       0.00000002       0.00000075      -0.00000113
Bi      -0.00000010      -0.00000022       0.00000032      -0.00000067       0.00000222      -0.00000581
Br       2.26640699       1.60259153       7.40387969      -0.00001377      -0.00001001      -0.00000031
Br       6.28285709       4.44265100       7.40388004       0.00001349       0.00000953      -0.00000000
Br       5.27874502       1.60259121       5.66470528       0.00000412      -0.00000597      -0.00000679
Br       3.27051942       4.44265065       9.14305371      -0.00000582       0.00000765       0.00000951
Br       3.27051920       4.44265087       5.66470548      -0.00000509       0.00000676      -0.00000814
Br       5.27874435       1.60259209       9.14305347       0.00000785      -0.00001178       0.00001360
