9
Lattice="5.686744105323668 -1.7406121618401132e-08 3.283243415068968 1.895581342056307 5.361513833701953 3.2832434323449085 -8.259928864495644e-08 -3.724794125232051e-08 6.56648697320412" Properties=species:S:1:pos:R:3:forces:R:3 energy=-25.39807891845703 free_energy=-25.39807891845703 stress="5.269494067761116e-05 -4.576286727342449e-08 8.523287853279271e-09 -4.576286727342449e-08 5.255512587609701e-05 -1.857100251356769e-08 8.523287853279271e-09 -1.857100251356769e-08 5.269262692308985e-05" pbc="T T T"
Ag       1.89558134       1.34037842       3.28324347       0.00000050       0.00000016      -0.00000033
Ag       5.68674415       4.02113541       9.84973035       0.00000026      -0.00000005      -0.00000052
B        0.00000297       0.00000017      -0.00000167       0.00002314       0.00000230      -0.00001689
Cl       1.68533208       1.19170954       6.56648703       0.00000215       0.00000536       0.00000128
Cl       5.89699188       4.16980379       6.56648704      -0.00001755      -0.00001606       0.00000146
Cl       4.84407710       1.19171008       4.74278477      -0.00000779       0.00001481       0.00001583
Cl       2.73824704       4.16980398       8.39018984       0.00000013      -0.00000513      -0.00000089
Cl       2.73824731       4.16980391       4.74278485       0.00000276      -0.00000954       0.00000817
Cl       4.84407744       1.19170976       8.39018974      -0.00000404       0.00000903      -0.00000766
