9
Lattice="5.116518762230345 -1.710629960280649e-08 2.9540234534080096 1.7055062658475426 4.82389990753813 2.9540234050859646 4.4473306999369145e-08 -2.7734794675512293e-08 5.908046829785971" Properties=species:S:1:pos:R:3:forces:R:3 energy=-34.64988708496094 free_energy=-34.64988708496094 stress="-1.0311231562809553e-05 4.0295667247391975e-08 1.0016536045043267e-08 4.0295667247391975e-08 -1.0360110536566935e-05 2.1448047782257618e-09 1.0016536045043267e-08 2.1448047782257618e-09 -1.0344316251575947e-05" pbc="T T T"
Ag       1.70550622       1.20597466       2.95402367       0.00000021      -0.00000021      -0.00000010
Ag       5.11651865       3.61792458       8.86207060       0.00000005       0.00000020      -0.00000002
Bi       0.00000011       0.00000018      -0.00000005      -0.00000055      -0.00001096       0.00000875
F        1.71856545       1.21520950       5.90804676      -0.00020379      -0.00014406       0.00000022
F        5.10345955       3.60869058       5.90804654       0.00020939       0.00014809       0.00000013
F        4.25723581       1.21520977       4.44234487       0.00010215      -0.00014409      -0.00017691
F        2.56478895       3.60869069       7.37374869      -0.00010176       0.00014344       0.00017649
F        2.56478943       3.60869048       4.44234499      -0.00010455       0.00014755      -0.00018096
F        4.25723633       1.21520911       7.37374878       0.00009893      -0.00014025       0.00017181
