9
Lattice="6.0180327126782185 4.528038871583497e-08 3.474512761231971 2.0060109262258785 5.673855749528311 3.4745127970697443 -3.201436350129393e-08 2.1254569482473245e-08 6.949025577914447" Properties=species:S:1:pos:R:3:forces:R:3 energy=-24.21959114074707 free_energy=-24.21959114074707 stress="0.0003781429259106517 4.137334030929196e-08 1.84410275938518e-09 4.137334030929196e-08 0.00037813439848832786 -2.1442452258213507e-09 1.84410275938518e-09 -2.1442452258213507e-09 0.0003781141131184995" pbc="T T T"
Ag       2.00601095       1.41846422       3.47451268       0.00000038       0.00000021      -0.00000052
Ag       6.01803272       4.25539167      10.42353855      -0.00000040      -0.00000036      -0.00000044
Bi       0.00000013      -0.00000002      -0.00000025      -0.00000290      -0.00000267       0.00000407
Cl       2.09010475       1.47792713       6.94902548      -0.00144786      -0.00102422       0.00000037
Cl       5.93393863       4.19592858       6.94902562       0.00145169       0.00102758      -0.00000022
Cl       4.97298035       1.47792729       5.28459666       0.00072332      -0.00102289      -0.00125280
Cl       3.05106321       4.19592866       8.61345454      -0.00072270       0.00102121       0.00125135
Cl       3.05106312       4.19592849       5.28459665      -0.00072382       0.00102311      -0.00125337
Cl       4.97298058       1.47792729       8.61345463       0.00072236      -0.00102201       0.00125156
