9
Lattice="6.091432925562655 1.0381905397598019e-07 3.516890349522027 2.0304777284013653 5.743057761145934 3.51689036915365 7.440600162006322e-08 7.665687902860833e-08 7.0337805701690534" Properties=species:S:1:pos:R:3:forces:R:3 energy=-20.740203857421875 free_energy=-20.740203857421875 stress="3.7235504350974225e-06 1.9937246520385088e-08 1.009833550114081e-08 1.9937246520385088e-08 3.725927399500506e-06 5.823064808119227e-10 1.009833550114081e-08 5.823064808119227e-10 3.7118932141311234e-06" pbc="T T T"
Ag       2.03047770       1.43576445       3.51689058       0.00000031       0.00000001      -0.00000009
Ag       6.09143289       4.30729365      10.55067121      -0.00000021      -0.00000030       0.00000074
Ga       0.00000008       0.00000005      -0.00000016       0.00000016       0.00000058      -0.00000005
Br       2.05490950       1.45304053       7.03378079       0.00653625       0.00462171      -0.00000090
Br       6.06700150       4.29001745       7.03378059      -0.00653639      -0.00462201      -0.00000093
Br       5.06397848       1.45304025       5.29649372      -0.00326931       0.00462332       0.00566289
Br       3.05793244       4.29001765       8.77106754       0.00326808      -0.00462174      -0.00566223
Br       3.05793230       4.29001737       5.29649352       0.00326903      -0.00462297       0.00566205
Br       5.06397812       1.45304042       8.77106742      -0.00326794       0.00462124      -0.00566158
