9
Lattice="6.621676635769832 1.354997258718613e-07 3.823026742575966 2.207225659594708 6.242976584885589 3.8230267658067265 6.670041459661533e-08 7.561603660261596e-08 7.646053369623467" Properties=species:S:1:pos:R:3:forces:R:3 energy=-17.486268997192383 free_energy=-17.486268997192383 stress="-0.00013530136493500322 6.5277023786336486e-09 -4.819243670795004e-09 6.5277023786336486e-09 -0.0001352958643110469 -1.8391630440817153e-09 -4.819243670795004e-09 -1.8391630440817153e-09 -0.0001353057596134022" pbc="T T T"
Ag       2.20722557       1.56074463       3.82302651       0.00000021       0.00000080      -0.00000055
Ag       6.62167712       4.68223181      11.46907993       0.00000029      -0.00000134      -0.00000054
Ga       0.00000010       0.00000008      -0.00000011       0.00000011      -0.00000038       0.00000169
I        2.25767021       1.59641460       7.64605315      -0.00179501      -0.00126824       0.00000071
I        6.57123189       4.64656251       7.64605359       0.00179531       0.00126858       0.00000100
I        5.49284125       1.59641433       5.77822656       0.00089772      -0.00126904      -0.00155427
I        3.33606074       4.64656252       9.51388055      -0.00089689       0.00126776       0.00155365
I        3.33606113       4.64656248       5.77822649      -0.00089740       0.00126977      -0.00155447
I        5.49284139       1.59641426       9.51388081       0.00089577      -0.00126790       0.00155285
