9
Lattice="4.846636235840819 -6.9389218013336286e-09 2.7982068061362013 1.6155454309989261 4.569452275104388 2.7982067618058983 -3.2746000513166824e-09 -5.660876894743485e-08 5.596413617944186" Properties=species:S:1:pos:R:3:forces:R:3 energy=-34.59591293334961 free_energy=-34.59591293334961 stress="0.00017723643395584077 -3.1865432958966267e-08 -4.2970999203362226e-08 -3.1865432958966267e-08 0.00017716821457725018 6.859445900175842e-09 -4.2970999203362226e-08 6.859445900175842e-09 0.00017717506852932274" pbc="T T T"
Ag       1.61554540       1.14236294       2.79820676       0.00000018       0.00000005      -0.00000018
Ag       4.84663637       3.42708918       8.39462020      -0.00000049      -0.00000023      -0.00000014
Ga       0.00000019       0.00000015      -0.00000017      -0.00000508      -0.00000246      -0.00000226
F        1.56537253       1.10688505       5.59641358      -0.00124717      -0.00088203      -0.00000003
F        4.89680874       3.46256660       5.59641372       0.00125438       0.00088710      -0.00000030
F        4.06395001       1.10688549       4.15385888       0.00062430      -0.00088418      -0.00107974
F        2.39823169       3.46256685       7.03896850      -0.00062639       0.00088400       0.00108045
F        2.39823168       3.46256679       4.15385886      -0.00062564       0.00088376      -0.00107998
F        4.06395026       1.10688563       7.03896850       0.00062594      -0.00088644       0.00108296
