9
Lattice="5.77994018940779 -7.51235254151651e-08 3.337050157529074 1.926646696222619 5.449379953346699 3.337050093015074 1.500775007428749e-08 -6.84011179958482e-08 6.674100289063965" Properties=species:S:1:pos:R:3:forces:R:3 energy=-24.08125877380371 free_energy=-24.08125877380371 stress="0.0002976907999254763 2.1176482789542206e-08 1.531352289418919e-08 2.1176482789542206e-08 0.00029763905331492424 -1.080855227542088e-08 1.531352289418919e-08 -1.080855227542088e-08 0.0002976660616695881" pbc="T T T"
Ag       1.92664672       1.36234480       3.33705012      -0.00000050      -0.00000049      -0.00000012
Ag       5.77994019       4.08703504      10.01115035      -0.00000005       0.00000052      -0.00000023
Ga      -0.00000006       0.00000073      -0.00000056       0.00000087      -0.00000917       0.00000821
Cl       1.91877038       1.35677545       6.67410065      -0.00432092      -0.00305808       0.00000203
Cl       5.78781584       4.09260482       6.67410030       0.00432730       0.00306100       0.00000120
Cl       4.82055513       1.35677546       4.99875454       0.00216225      -0.00305894      -0.00374457
Cl       2.88603160       4.09260413       8.34944606      -0.00216275       0.00305673       0.00374669
Cl       2.88603226       4.09260331       4.99875420      -0.00216657       0.00306204      -0.00375336
Cl       4.82055556       1.35677544       8.34944660       0.00216004      -0.00305343       0.00373992
