9
Lattice="5.77416282209403 2.6313303761253252e-08 3.3337152141505038 1.9247210468626732 5.443933127817193 3.3337150732373537 5.220202237873563e-08 -1.3567028962335607e-07 6.667430337884478" Properties=species:S:1:pos:R:3:forces:R:3 energy=-24.0811710357666 free_energy=-24.0811710357666 stress="-0.00036844093119725585 1.014743844507393e-08 9.137688938842814e-10 1.014743844507393e-08 -0.0003683717513922602 5.300161198817932e-09 9.137688938842814e-10 5.300161198817932e-09 -0.00036832320620305836" pbc="T T T"
Ag       1.92472105       1.36098340       3.33371506      -0.00000065      -0.00000013      -0.00000037
Ag       5.77416313       4.08294997      10.00114568       0.00000060       0.00000036       0.00000028
Ga       0.00000004       0.00000013      -0.00000045      -0.00000154      -0.00000337       0.00000584
Cl       1.91826994       1.35642212       6.66743023      -0.00646871      -0.00457335      -0.00000063
Cl       5.78061292       4.08751127       6.66743016       0.00647414       0.00457841       0.00000306
Cl       4.81502783       1.35642232       4.99498811       0.00323671      -0.00457922      -0.00561053
Cl       2.88385634       4.08751038       8.33987312      -0.00323355       0.00457337       0.00560769
Cl       2.88385669       4.08751050       4.99498760      -0.00324064       0.00457785      -0.00561225
Cl       4.81502786       1.35642180       8.33987291       0.00323328      -0.00457355       0.00560713
