9
Lattice="4.846775753659235 -2.413472254959299e-08 2.798287256968963 1.6155919501544433 4.569583922643597 2.79828716166723 -3.7749616809025124e-08 -1.4341328288689554e-07 5.596574579322148" Properties=species:S:1:pos:R:3:forces:R:3 energy=-34.595909118652344 free_energy=-34.595909118652344 stress="0.0001346507779089734 5.145468051637181e-08 3.607355836265924e-08 5.145468051637181e-08 0.00013463481445796788 4.4137195231996884e-08 3.607355836265924e-08 4.4137195231996884e-08 0.0001346331264358014" pbc="T T T"
Ag       1.61559191       1.14239586       2.79828726      -0.00000012      -0.00000032       0.00000019
Ag       4.84677575       3.42718788       8.39486182       0.00000022       0.00000008       0.00000029
Ga      -0.00000010      -0.00000012      -0.00000013       0.00000023       0.00000015      -0.00000201
F        1.56527400       1.10681578       5.59657448       0.00092876       0.00065655       0.00000035
F        4.89709346       3.46276811       5.59657441      -0.00092721      -0.00065714       0.00000017
F        4.06413891       1.10681576       4.15385401      -0.00046530       0.00065768       0.00080508
F        2.39822885       3.46276801       7.03929488       0.00046450      -0.00065821      -0.00080305
F        2.39822909       3.46276833       4.15385417       0.00046474      -0.00065732       0.00080413
F        4.06413903       1.10681541       7.03929475      -0.00046572       0.00065869      -0.00080568
