9
Lattice="6.092330432278688 9.030883068158936e-08 3.5174084376995967 2.03077692087035 5.743904081063632 3.5174083944558134 6.139492663843861e-09 -4.862132044292104e-08 7.034816864765242" Properties=species:S:1:pos:R:3:forces:R:3 energy=-20.740198135375977 free_energy=-20.740198135375977 stress="0.0002364374668104574 1.5049277379830528e-09 -1.5696703936640688e-09 1.5049277379830528e-09 0.0002364620886510238 4.38967173721494e-09 -1.5696703936640688e-09 4.38967173721494e-09 0.00023643183521926403" pbc="T T T"
Ag       2.03077696       1.43597623       3.51740814      -0.00000009       0.00000027      -0.00000042
Ag       6.09233037       4.30792806      10.55222537      -0.00000014       0.00000022      -0.00000009
Ga       0.00000003       0.00000012       0.00000038      -0.00000115      -0.00000102      -0.00000169
Br       2.05601341       1.45382109       7.03481682      -0.00410751      -0.00290495       0.00000006
Br       6.06709378       4.29008305       7.03481697       0.00411069       0.00290668      -0.00000060
Br       5.06432410       1.45382068       5.29796778       0.00205289      -0.00290462      -0.00355700
Br       3.05878365       4.29008300       8.77166561      -0.00205493       0.00290534       0.00355908
Br       3.05878333       4.29008328       5.29796791      -0.00205371       0.00290421      -0.00355688
Br       5.06432386       1.45382096       8.77166564       0.00205386      -0.00290617       0.00355771
