9
Lattice="5.8225078894934015 6.695693560403381e-09 3.3616263839237193 1.9408359445326495 5.489513102915898 3.361626427128944 -4.271060849779671e-08 2.2714433841843375e-08 6.723252841824376" Properties=species:S:1:pos:R:3:forces:R:3 energy=-28.383146286010742 free_energy=-28.383146286010742 stress="0.0003292327164672315 -7.707853910687845e-09 -1.9058001843319516e-09 -7.707853910687845e-09 0.00032927183201536536 4.94762142366767e-09 -1.9058001843319516e-09 4.94762142366767e-09 0.0003292128967586905" pbc="T T T"
Ag       1.94083583       1.37237818       3.36162637      -0.00000001       0.00000004       0.00000006
Ag       5.82250781       4.11713487      10.08487928      -0.00000014       0.00000014      -0.00000028
Ir      -0.00000007       0.00000010       0.00000004       0.00000042       0.00000010       0.00000397
Cl       1.89528644       1.34016998       6.72325288      -0.00297254      -0.00210276       0.00000003
Cl       5.86805712       4.14934312       6.72325290       0.00297415       0.00210288      -0.00000015
Cl       4.87486443       1.34017015       5.00299267       0.00148734      -0.00210479      -0.00257710
Cl       2.88847948       4.14934303       8.44351285      -0.00148773       0.00210342       0.00257567
Cl       2.88847954       4.14934302       5.00299260      -0.00148849       0.00210428      -0.00257742
Cl       4.87486459       1.34017013       8.44351286       0.00148679      -0.00210333       0.00257543
