9
Lattice="6.13756432095209 7.276163828958373e-08 3.543524374818164 2.045854834028664 5.786551138616264 3.5435243890597374 -6.375278872897647e-09 1.29342815612401e-08 7.087048760678623" Properties=species:S:1:pos:R:3:forces:R:3 energy=-25.307878494262695 free_energy=-25.307878494262695 stress="0.00024975682026706636 3.169268225633459e-08 -1.9138319817813e-09 3.169268225633459e-08 0.0002497366804163903 1.07567776908013e-08 -1.9138319817813e-09 1.07567776908013e-08 0.0002497201203368604" pbc="T T T"
Ag       2.04585470       1.44663779       3.54352437       0.00000007      -0.00000007      -0.00000020
Ag       6.13756432       4.33991321      10.63057302      -0.00000019      -0.00000016       0.00000023
Ir       0.00000013       0.00000021       0.00000034      -0.00000236      -0.00000005      -0.00000606
Br       2.02557259       1.43229611       7.08704876      -0.00218311      -0.00154443       0.00000046
Br       6.15784647       4.35425500       7.08704869       0.00218591       0.00154587       0.00000044
Br       5.12477818       1.43229601       5.29772125       0.00109061      -0.00154307      -0.00188822
Br       3.05864103       4.35425520       8.87637617      -0.00109156       0.00154401       0.00189059
Br       3.05864102       4.35425527       5.29772148      -0.00109047       0.00154171      -0.00188759
Br       5.12477814       1.43229610       8.87637605       0.00109112      -0.00154390       0.00189030
