9
Lattice="6.489645935690581 6.239080082714348e-08 3.7467987503937996 2.163215348853534 6.118496923601033 3.746798788266713 -4.56065178485143e-08 1.413594833651941e-08 7.493597579780462" Properties=species:S:1:pos:R:3:forces:R:3 energy=-22.751684188842773 free_energy=-22.751684188842773 stress="7.968492354848422e-06 1.9807647078096124e-08 -1.0380986070757103e-09 1.9807647078096124e-08 7.94882362242788e-06 -7.630598375385489e-09 -1.0380986070757103e-09 -7.630598375385489e-09 7.93376148067182e-06" pbc="T T T"
Ag       2.16321528       1.52962430       3.74679875       0.00000005       0.00000040      -0.00000028
Ag       6.48964601       4.58887278      11.24039638      -0.00000020       0.00000002       0.00000014
Ir      -0.00000024       0.00000024      -0.00000052       0.00000182      -0.00000419       0.00000866
I        2.18210710       1.54298297       7.49359761      -0.00310278      -0.00219398       0.00000009
I        6.47075414       4.57551409       7.49359755       0.00310336       0.00219433      -0.00000027
I        5.39859230       1.54298292       5.63655890       0.00155158      -0.00219392      -0.00268601
I        3.25426893       4.57551409       9.35063644      -0.00154971       0.00219184       0.00268462
I        3.25426897       4.57551403       5.63655881      -0.00155288       0.00219577      -0.00268886
I        5.39859243       1.54298259       9.35063660       0.00154872      -0.00219021       0.00268197
