9
Lattice="5.089469925343844 1.8569176544886675e-07 2.938406905653695 1.6964900778901355 4.798399092565291 2.9384070308746737 -2.011629642761248e-08 1.391393465903941e-07 5.876813846149833" Properties=species:S:1:pos:R:3:forces:R:3 energy=-36.700523376464844 free_energy=-36.700523376464844 stress="-2.5212260879925452e-05 -2.7750090225708846e-08 2.6604785929862373e-08 -2.7750090225708846e-08 -2.5170331355184317e-05 -4.1693212438076444e-08 2.6604785929862373e-08 -4.1693212438076444e-08 -2.5195231501129456e-05" pbc="T T T"
Ag       1.69649019       1.19960010       2.93840702       0.00000005      -0.00000013       0.00000003
Ag       5.08947020       3.59879951       8.81522096      -0.00000007      -0.00000004       0.00000014
Ir      -0.00000009      -0.00000012      -0.00000024      -0.00000265       0.00001056       0.00000100
F        1.59752736       1.12962263       5.87681388       0.00097450       0.00068924      -0.00000013
F        5.18843254       3.66877682       5.87681391      -0.00097707      -0.00069162       0.00000008
F        4.29070607       1.12962282       4.32190638      -0.00048619       0.00068777       0.00084246
F        2.49525374       3.66877662       7.43172159       0.00048897      -0.00069195      -0.00084759
F        2.49525397       3.66877643       4.32190662       0.00048704      -0.00068937       0.00084399
F        4.29070590       1.12962310       7.43172134      -0.00048455       0.00068556      -0.00083982
