9
Lattice="6.6572960201531215 5.934398911860976e-09 3.8435917943529407 2.219098656430066 6.2765588437068915 3.8435918334094725 -1.49733746540749e-08 3.7246549286564244e-08 7.687183614640506" Properties=species:S:1:pos:R:3:forces:R:3 energy=-24.690696716308594 free_energy=-24.690696716308594 stress="0.0002206909703090787 -2.0748856854879705e-08 -4.615769100269063e-09 -2.0748856854879705e-08 0.00022069858096074313 1.079029421369171e-09 -4.615769100269063e-09 1.079029421369171e-09 0.00022070710838306695" pbc="T T T"
Ag       2.21909864       1.56913971       3.84359186      -0.00000013      -0.00000005       0.00000062
Ag       6.65729602       4.70741915      11.53077582       0.00000015      -0.00000019       0.00000118
Mo       0.00000006       0.00000020      -0.00000017       0.00000024      -0.00000232       0.00000200
I        2.25019650       1.59112930       7.68718347      -0.00598311      -0.00423051       0.00000101
I        6.62619797       4.68542967       7.68718320       0.00598446       0.00423133       0.00000016
I        5.53219748       1.59112959       5.79231955       0.00299379      -0.00423396      -0.00518477
I        3.34419698       4.68542948       9.58204779      -0.00299320       0.00423193       0.00518385
I        3.34419720       4.68542919       5.79231959      -0.00299406       0.00423466      -0.00518629
I        5.53219781       1.59112931       9.58204787       0.00299186      -0.00423090       0.00518227
