9
Lattice="6.190932237260435 4.9743540589609686e-08 3.5743364111263456 2.0636441225818896 5.836866911332285 3.5743364170215517 3.952902806641828e-08 3.5171300522356464e-08 7.148672753786453" Properties=species:S:1:pos:R:3:forces:R:3 energy=-28.093358993530273 free_energy=-28.093358993530273 stress="8.256235014414415e-05 4.550064858221958e-08 -1.1742875116738105e-08 4.550064858221958e-08 8.253810665337369e-05 1.8802435164388953e-08 -1.1742875116738105e-08 1.8802435164388953e-08 8.250525570474565e-05" pbc="T T T"
Ag       2.06364402       1.45921695       3.57433642       0.00000011       0.00000004       0.00000020
Ag       6.19093251       4.37765026      10.72300952      -0.00000016       0.00000041      -0.00000036
Mo       0.00000023      -0.00000014       0.00000030      -0.00000460       0.00000070      -0.00000268
Br       2.06014601       1.45674332       7.14867275      -0.00058504      -0.00041240      -0.00000058
Br       6.19442994       4.38012343       7.14867285       0.00058872       0.00041562       0.00000005
Br       5.16085931       1.45674326       5.35847504       0.00029126      -0.00041182      -0.00050505
Br       3.09371730       4.38012358       8.93887026      -0.00029206       0.00041136       0.00050487
Br       3.09371706       4.38012402       5.35847500      -0.00028982       0.00040881      -0.00050121
Br       5.16085924       1.45674332       8.93887013       0.00029152      -0.00041271       0.00050487
