9
Lattice="5.848391792326864 5.258979512355543e-08 3.3765705644954975 1.9494639716633777 5.51391657982636 3.3765705795546648 -4.302124293676672e-09 1.5401510212995243e-08 6.753141136442524" Properties=species:S:1:pos:R:3:forces:R:3 energy=-31.874723434448242 free_energy=-31.874723434448242 stress="0.00026570408954285085 3.347470922676621e-08 1.781322289673426e-08 3.347470922676621e-08 0.0002656337455846369 -8.08532263363304e-09 1.781322289673426e-08 -8.08532263363304e-09 0.0002656097349245101" pbc="T T T"
Ag       1.94946419       1.37847921       3.37657062       0.00000071       0.00000062       0.00000033
Ag       5.84839152       4.13543751      10.12971175      -0.00000053      -0.00000038       0.00000062
Mo       0.00000005       0.00000015      -0.00000028      -0.00000256      -0.00000018       0.00001025
Cl       1.93073155       1.36523348       6.75314094      -0.00418669      -0.00296015       0.00000073
Cl       5.86712405       4.14868304       6.75314099       0.00418945       0.00296237       0.00000051
Cl       4.88302620       1.36523331       5.04863240       0.00209422      -0.00296190      -0.00362425
Cl       2.91482948       4.14868353       8.45765011      -0.00208984       0.00295471       0.00361736
Cl       2.91482993       4.14868313       5.04863251      -0.00209480       0.00296140      -0.00362469
Cl       4.88302606       1.36523325       8.45765014       0.00209017      -0.00295655       0.00361903
