9
Lattice="5.0549094388635325 -2.79599708150236e-07 2.9184533656948477 1.6849696939446102 4.765813417788522 2.9184531152416757 4.917657373661861e-08 -2.719681616751285e-07 5.836906646213333" Properties=species:S:1:pos:R:3:forces:R:3 energy=-40.05664825439453 free_energy=-40.05664825439453 stress="-9.691987361293286e-05 -2.6157367827295275e-08 -1.228006030196127e-10 -2.6157367827295275e-08 -9.69184548011981e-05 -7.925454958979117e-09 -1.228006030196127e-10 -7.925454958979117e-09 -9.693669562693685e-05" pbc="T T T"
Ag       1.68496970       1.19145318       2.91845361       0.00000024      -0.00000021      -0.00000018
Ag       5.05490975       3.57435995       8.75535988      -0.00000035       0.00000014       0.00000013
Mo       0.00000020       0.00000016      -0.00000007       0.00000554       0.00000178      -0.00000869
F        1.62077125       1.14605756       5.83690684       0.00245170       0.00173427      -0.00000054
F        5.11910809       3.61975535       5.83690686      -0.00245729      -0.00173733      -0.00000060
F        4.24452383       1.14605753       4.32208224      -0.00122859       0.00173827       0.00212777
F        2.49535543       3.61975494       7.35173061       0.00122517      -0.00173296      -0.00212307
F        2.49535499       3.61975543       4.32208158       0.00122815      -0.00173673       0.00212699
F        4.24452362       1.14605755       7.35173096      -0.00122458       0.00173277      -0.00212191
