9
Lattice="4.663676185342616 2.2028786170806013e-08 2.6925746205438235 1.554558769609307 4.3969562744116475 2.692574585222424 2.77155194831305e-08 -2.3661865211965436e-08 5.38514919308295" Properties=species:S:1:pos:R:3:forces:R:3 energy=-27.877910614013672 free_energy=-27.877910614013672 stress="0.0006667297566309571 5.570830463597076e-09 2.7484027498303476e-08 5.570830463597076e-09 0.000666746636852622 -5.897979882263371e-09 2.7484027498303476e-08 -5.897979882263371e-09 0.0006666742847301066" pbc="T T T"
Ag       1.55455868       1.09923918       2.69257526       0.00000005       0.00000026       0.00000134
Ag       4.66367620       3.29771691       8.07772395      -0.00000032      -0.00000075       0.00000082
N        0.00000011      -0.00000005      -0.00000027      -0.00000007      -0.00000154       0.00000443
F        1.44432589       1.02129265       5.38514865      -0.00513867      -0.00363347      -0.00000042
F        4.77390886       3.37566340       5.38514896       0.00513902       0.00363521      -0.00000012
F        3.94151309       1.02129325       3.94339744       0.00257098      -0.00363467      -0.00445174
F        2.27672159       3.37566400       6.82690107      -0.00257014       0.00363506       0.00444831
F        2.27672208       3.37566324       3.94339743      -0.00257081       0.00363469      -0.00445117
F        3.94151346       1.02129241       6.82690105       0.00256966      -0.00363503       0.00444878
