9
Lattice="4.661351645339836 2.088020996441449e-08 2.69123262437281 1.5537839023508955 4.394764395414176 2.691232622840036 1.303142180287843e-08 7.33735363732322e-09 5.382465226174413" Properties=species:S:1:pos:R:3:forces:R:3 energy=-27.87796974182129 free_energy=-27.87796974182129 stress="0.0003289070737082511 -4.604856229661891e-08 1.1629024498915896e-07 -4.604856229661891e-08 0.000328570808051154 4.308675727315858e-08 1.1629024498915896e-07 4.308675727315858e-08 0.00032892156741581857" pbc="T T T"
Ag       1.55378371       1.09869135       2.69123257      -0.00000071      -0.00000027       0.00000001
Ag       4.66135186       3.29607329       8.07369810      -0.00000003       0.00000001       0.00000074
N       -0.00000037      -0.00000036       0.00000007       0.00001268       0.00000587      -0.00000541
F        1.44426948       1.02125266       5.38246544      -0.00488472      -0.00345314      -0.00000019
F        4.77086633       3.37351238       5.38246510       0.00488411       0.00345043       0.00000124
F        3.93921750       1.02125194       3.94200631       0.00243773      -0.00345192      -0.00422933
F        2.27591853       3.37351204       6.82292375      -0.00244431       0.00345120       0.00422946
F        2.27591857       3.37351200       3.94200660      -0.00244523       0.00344920      -0.00422962
F        3.93921657       1.02125234       6.82292386       0.00244050      -0.00345108       0.00423269
