9
Lattice="5.640574800822464 1.8915069388604707e-08 3.2565872757551397 1.8801916193603045 5.317984731300804 3.256587273585062 2.0571221835814602e-08 1.1888311086284095e-08 6.51317451587986" Properties=species:S:1:pos:R:3:forces:R:3 energy=-21.225894927978516 free_energy=-21.225894927978516 stress="-5.639275332214311e-05 -2.6361114180417644e-08 -1.4800289882543893e-08 -2.6361114180417644e-08 -5.641715324600227e-05 8.624748915053715e-09 -1.4800289882543893e-08 8.624748915053715e-09 -5.64177826163359e-05" pbc="T T T"
Ag       1.88019143       1.32949624       3.25658702      -0.00000025       0.00000034      -0.00000019
Ag       5.64057463       3.98848839       9.76976153      -0.00000089      -0.00000019      -0.00000128
N        0.00000046      -0.00000107      -0.00000030      -0.00000129       0.00000475       0.00000036
Cl       1.76364883       1.24708732       6.51317452      -0.00011866      -0.00007952       0.00000009
Cl       5.75711814       4.07089708       6.51317506       0.00011458       0.00008161      -0.00000223
Cl       4.75875035       1.24708769       4.78395164       0.00006095      -0.00008297      -0.00010321
Cl       2.76201600       4.07089739       8.24239878      -0.00005900       0.00008130       0.00009557
Cl       2.76201568       4.07089763       4.78395088      -0.00005662       0.00007972      -0.00009385
Cl       4.75875039       1.24708827       8.24239725       0.00006095      -0.00008515       0.00010484
