9
Lattice="6.087338755077973 -4.319766523788859e-08 3.514526647297132 2.02911287536497 5.739198124474841 3.5145266512238926 1.0836917764211583e-07 8.143789633673587e-08 7.029053106893367" Properties=species:S:1:pos:R:3:forces:R:3 energy=-21.051677703857422 free_energy=-21.051677703857422 stress="0.0001423933863407001 2.9079745278437485e-09 3.1669489253260963e-09 2.9079745278437485e-09 0.00014239965821616352 -8.316680677467048e-09 3.1669489253260963e-09 -8.316680677467048e-09 0.00014240459131542593" pbc="T T T"
Ag       2.02911194       1.43479963       3.51452776      -0.00000150       0.00000022       0.00000153
Ag       6.08733806       4.30439947      10.54358008      -0.00000116       0.00000119       0.00000079
P        0.00000010      -0.00000003       0.00000014       0.00000023      -0.00000100      -0.00000057
Br       2.03128836       1.43633746       7.02905272      -0.00157231      -0.00111346      -0.00000101
Br       6.08516413       4.30286042       7.02905289       0.00157376       0.00111327       0.00000011
Br       5.07169510       1.43633717       5.27367359       0.00078699      -0.00111356      -0.00136279
Br       3.04475696       4.30286034       8.78443256      -0.00078673       0.00111325       0.00136234
Br       3.04475736       4.30286035       5.27367340      -0.00078695       0.00111362      -0.00136417
Br       5.07169499       1.43633787       8.78443263       0.00078765      -0.00111352       0.00136369
