9
Lattice="6.570312804790436 2.3092492505361436e-08 3.793371853602028 2.19010428526805 6.19455030833329 3.793371861859121 -1.190440423318898e-08 1.6951485629631488e-09 7.586743727823094" Properties=species:S:1:pos:R:3:forces:R:3 energy=-18.341909408569336 free_energy=-18.341909408569336 stress="4.5134609536034986e-05 7.465613016677253e-09 -6.697481680362216e-09 7.465613016677253e-09 4.513991007115692e-05 3.0702274056437773e-09 -6.697481680362216e-09 3.0702274056437773e-09 4.5125379983801395e-05" pbc="T T T"
Ag       2.19010404       1.54863748       3.79337192      -0.00000085      -0.00000029       0.00000041
Ag       6.57031289       4.64591291      11.38011536       0.00000042       0.00000104      -0.00000054
P        0.00000019      -0.00000009       0.00000027      -0.00000020      -0.00000024      -0.00000061
I        2.24277584       1.58588190       7.58674360       0.00540203       0.00381982      -0.00000002
I        6.51764133       4.60866840       7.58674366      -0.00540216      -0.00382055       0.00000036
I        5.44892481       1.58588178       5.73567287      -0.00270114       0.00381975       0.00467873
I        3.31149217       4.60866851       9.43781479       0.00270159      -0.00381920      -0.00467874
I        3.31149198       4.60866852       5.73567266       0.00270135      -0.00382066       0.00467932
I        5.44892501       1.58588187       9.43781477      -0.00270098       0.00382032      -0.00467891
