9
Lattice="5.783525379951458 -6.569303035099876e-08 3.33911991154964 1.9278417181862337 5.452759802850321 3.3391199344039544 -2.4500773991151496e-08 1.0666046968311972e-08 6.678239865535862" Properties=species:S:1:pos:R:3:forces:R:3 energy=-24.515270233154297 free_energy=-24.515270233154297 stress="-3.0508690542774275e-05 5.3913633557556295e-09 5.178966588914591e-09 5.3913633557556295e-09 -3.05479479720816e-05 5.109241918432872e-09 5.178966588914591e-09 5.109241918432872e-09 -3.0526127375196666e-05" pbc="T T T"
Ag       1.92784183       1.36318989       3.33911983      -0.00000046       0.00000062      -0.00000034
Ag       5.78352537       4.08956948      10.01735958       0.00000078       0.00000020      -0.00000012
P       -0.00000012       0.00000008       0.00000027       0.00000094       0.00000076      -0.00000446
Cl       1.85443679       1.31128485       6.67823989      -0.00323121      -0.00228448       0.00000039
Cl       5.85693036       4.14147518       6.67823992       0.00323021       0.00228323       0.00000088
Cl       4.85630685       1.31128481       4.94510935       0.00161444      -0.00228269      -0.00279569
Cl       2.85506005       4.14147478       8.41137013      -0.00161523       0.00228378       0.00279747
Cl       2.85506014       4.14147505       4.94510950      -0.00161469       0.00228233      -0.00279544
Cl       4.85630701       1.31128489       8.41137036       0.00161524      -0.00228370       0.00279722
