9
Lattice="5.1878166153719905 1.6198060641519946e-07 2.995187468522608 1.7292721698780125 4.8911224634628265 2.9951877940836713 -2.0204176798572197e-07 2.558642238956851e-07 5.990375286991715" Properties=species:S:1:pos:R:3:forces:R:3 energy=-38.98215103149414 free_energy=-38.98215103149414 stress="-2.0200888684485108e-05 -3.7358454108016304e-08 1.8715942573521716e-08 -3.7358454108016304e-08 -2.0208797650411725e-05 2.1001172356704956e-08 1.8715942573521716e-08 2.1001172356704956e-08 -2.014246092585381e-05" pbc="T T T"
Ag       1.72927129       1.22278178       2.99518733       0.00000065      -0.00000049       0.00000016
Ag       5.18781651       3.66834175       8.98556337      -0.00000038      -0.00000049      -0.00000065
P        0.00000001      -0.00000013      -0.00000026       0.00000472       0.00000720       0.00002021
F        1.33138364       0.94143062       5.99037530       0.00171265       0.00121159      -0.00000234
F        5.58570479       3.94969207       5.99037527      -0.00171643      -0.00121479       0.00000049
F        4.52212484       0.94143044       4.14819994      -0.00085492       0.00120692       0.00147471
F        2.39496388       3.94969205       7.83255098       0.00085649      -0.00121173      -0.00148511
F        2.39496395       3.94969169       4.14819987       0.00085315      -0.00121076       0.00147732
F        4.52212465       0.94143085       7.83255097      -0.00085616       0.00121247      -0.00148458
