9
Lattice="5.081250755105026 -1.1589262600650074e-07 2.933661553681883 1.693750162761414 4.790648781461129 2.9336615184791413 3.766706444510435e-08 -1.647980396607764e-08 5.8673230421225195" Properties=species:S:1:pos:R:3:forces:R:3 energy=-38.316986083984375 free_energy=-38.316986083984375 stress="-0.0001609751197975129 -9.240010001576593e-08 5.50077094985113e-09 -9.240010001576593e-08 -0.00016091082943603396 -2.1123732096839376e-08 5.50077094985113e-09 -2.1123732096839376e-08 -0.00016084194066934288" pbc="T T T"
Ag       1.69374988       1.19766213       2.93366135       0.00000003       0.00000004      -0.00000004
Ag       5.08125063       3.59298626       8.80098423      -0.00000026       0.00000008      -0.00000005
Ru       0.00000021      -0.00000008      -0.00000002       0.00000465       0.00000219       0.00000187
F        1.58432434       1.12028625       5.86732329       0.00635649       0.00449476      -0.00000051
F        5.19067701       3.67036277       5.86732331      -0.00636134      -0.00449800      -0.00000073
F        4.28908867       1.12028609       4.30572701      -0.00317654       0.00449284       0.00550117
F        2.48591251       3.67036219       7.42891930       0.00317593      -0.00449112      -0.00550115
F        2.48591225       3.67036253       4.30572689       0.00317616      -0.00449118       0.00549946
F        4.28908845       1.12028653       7.42891916      -0.00317510       0.00449050      -0.00549994
