9
Lattice="6.097019112076824 -7.447803880174245e-08 3.5201156463429237 2.03233963719973 5.7483246670807695 3.520115640466557 1.2346550657532733e-08 1.533333449785282e-09 7.040231271300967" Properties=species:S:1:pos:R:3:forces:R:3 energy=-24.424203872680664 free_energy=-24.424203872680664 stress="0.00028161503723822534 -1.0949006146176998e-08 -1.964493678840995e-09 -1.0949006146176998e-08 0.00028162324451841414 -1.003435556867771e-09 -1.964493678840995e-09 -1.003435556867771e-09 0.00028161206864751875" pbc="T T T"
Ag       2.03233971       1.43708097       3.52011558       0.00000007      -0.00000002      -0.00000005
Ag       6.09701925       4.31124342      10.56034683       0.00000007      -0.00000035      -0.00000020
Rh      -0.00000014      -0.00000003       0.00000009       0.00000119      -0.00000015       0.00000242
Br       2.01881700       1.42751915       7.04023130      -0.00280548      -0.00198442       0.00000004
Br       6.11054175       4.32080549       7.04023130       0.00280463       0.00198440      -0.00000011
Br       5.08761055       1.42751922       5.26846270       0.00140333      -0.00198526      -0.00243096
Br       3.04174832       4.32080523       8.81199997      -0.00140278       0.00198483       0.00243025
Br       3.04174808       4.32080554       5.26846246      -0.00140355       0.00198524      -0.00243071
Br       5.08761049       1.42751938       8.81200002       0.00140253      -0.00198429       0.00242929
