9
Lattice="4.977368581192617 -2.5686221208710225e-08 2.8736851858289887 1.65912282829265 4.692708287000376 2.8736851994908283 -5.6994589237258124e-08 -2.35689638354617e-08 5.747370470375462" Properties=species:S:1:pos:R:3:forces:R:3 energy=-35.60344314575195 free_energy=-35.60344314575195 stress="0.00018885187455452979 -5.871454078487659e-08 -1.363443224988714e-08 -5.871454078487659e-08 0.00018893269589170814 1.3158448552985647e-08 -1.363443224988714e-08 1.3158448552985647e-08 0.00018896401161327958" pbc="T T T"
Ag       1.65912293       1.17317701       2.87368512      -0.00000005       0.00000015       0.00000039
Ag       4.97736867       3.51953132       8.62105577      -0.00000042       0.00000003      -0.00000015
Rh      -0.00000016      -0.00000004      -0.00000020       0.00000553      -0.00000097       0.00000327
F        1.59172036       1.12551628       5.74737047      -0.00176091      -0.00124476      -0.00000023
F        5.04477104       3.56719203       5.74737054       0.00175655       0.00124294      -0.00000045
F        4.18150830       1.12551629       4.25215574       0.00088228      -0.00124711      -0.00152795
F        2.45498301       3.56719182       7.24258517      -0.00088181       0.00124751       0.00152729
F        2.45498295       3.56719189       4.25215587      -0.00088172       0.00124781      -0.00152779
F        4.18150824       1.12551648       7.24258511       0.00088052      -0.00124572       0.00152556
