9
Lattice="5.799583423846141 5.164979044015199e-08 3.348391022161685 1.933194501820382 5.467899683076809 3.348391059384894 -2.3863316538443295e-08 2.871506814820487e-08 6.696782085655777" Properties=species:S:1:pos:R:3:forces:R:3 energy=-27.183223724365234 free_energy=-27.183223724365234 stress="0.00022215131320990622 -1.0109100223587575e-09 -4.416160215292564e-10 -1.0109100223587575e-09 0.00022215823992155492 1.7543975161515846e-08 -4.416160215292564e-10 1.7543975161515846e-08 0.00022213101328816265" pbc="T T T"
Ag       1.93319457       1.36697495       3.34839097      -0.00000002       0.00000009      -0.00000016
Ag       5.79958332       4.10092482      10.04517330      -0.00000003      -0.00000007       0.00000002
Rh       0.00000012      -0.00000003      -0.00000024      -0.00000258       0.00000024       0.00000430
Cl       1.90120959       1.34435795       6.69678207      -0.00132945      -0.00093986       0.00000070
Cl       5.83156820       4.12354154       6.69678208       0.00133201       0.00094217      -0.00000044
Cl       4.84897868       1.34435828       4.99488674       0.00066678      -0.00094298      -0.00115490
Cl       2.88379926       4.12354166       8.39867768      -0.00066464       0.00093944       0.00115120
Cl       2.88379913       4.12354183       4.99488667      -0.00066638       0.00094131      -0.00115186
Cl       4.84897878       1.34435804       8.39867737       0.00066413      -0.00094028       0.00115117
