9
Lattice="6.5078441171006185 6.452345702113553e-10 3.7573055556142827 2.169281372750337 6.135654284801807 3.7573055560037742 -3.980959740788093e-09 -2.337931377991324e-09 7.51461111812379" Properties=species:S:1:pos:R:3:forces:R:3 energy=-22.607986450195312 free_energy=-22.607986450195312 stress="-0.00021301722154021263 -7.556534953323535e-09 -1.223292578345081e-09 -7.556534953323535e-09 -0.00021302497771102935 8.806889439938459e-09 -1.223292578345081e-09 8.806889439938459e-09 -0.00021302360983099788" pbc="T T T"
Ag       2.16928138       1.53391360       3.75730555       0.00000023       0.00000025       0.00000003
Ag       6.50784411       4.60174069      11.27191670      -0.00000004       0.00000012      -0.00000036
Ru       0.00000011       0.00000007      -0.00000002      -0.00000100       0.00000068      -0.00000085
I        2.18988506       1.54848263       7.51461111       0.00013012       0.00009163      -0.00000031
I        6.48724025       4.58717157       7.51461112      -0.00012712      -0.00009073      -0.00000013
I        5.41290156       1.54848259       5.65380168      -0.00006508       0.00009061       0.00011165
I        3.26422401       4.58717162       9.37542052       0.00006349      -0.00009074      -0.00011019
I        3.26422394       4.58717169       5.65380172       0.00006420      -0.00009252       0.00011180
I        5.41290152       1.54848267       9.37542054      -0.00006476       0.00009076      -0.00011162
