9
Lattice="6.129973227790691 3.37752459160273e-08 3.5391418675810775 2.0433244711791008 5.779394282810169 3.5391418154949186 6.220148736786744e-08 -1.9809121887337843e-08 7.078283627426023" Properties=species:S:1:pos:R:3:forces:R:3 energy=-25.772216796875 free_energy=-25.772216796875 stress="0.00030505185713991523 -1.7628485338150313e-08 -3.842042239909915e-09 -1.7628485338150313e-08 0.0003050411760341376 8.844556198539522e-09 -3.842042239909915e-09 8.844556198539522e-09 0.0003050645173061639" pbc="T T T"
Ag       2.04332463       1.44484842       3.53914165       0.00000058      -0.00000009      -0.00000010
Ag       6.12997301       4.33454588      10.61742516      -0.00000064       0.00000054      -0.00000057
Ru      -0.00000003       0.00000014       0.00000002       0.00000072      -0.00000265       0.00000118
Br       2.02728238       1.43350529       7.07828354      -0.00349380      -0.00247166       0.00000106
Br       6.14601510       4.34588900       7.07828373       0.00349565       0.00247087       0.00000126
Br       5.11633229       1.43350553       5.29482020       0.00174928      -0.00247374      -0.00302765
Br       3.05696553       4.34588899       8.86174723      -0.00174853       0.00247230       0.00302993
Br       3.05696600       4.34588868       5.29482039      -0.00174900       0.00247410      -0.00303064
Br       5.11633216       1.43350523       8.86174737       0.00174565      -0.00246949       0.00302564
