9
Lattice="5.790922595175579 -3.4126214637184246e-08 3.343390583385794 1.930307495852084 5.459734239981133 3.343390589791993 -8.172979076357028e-08 -4.9945724327775295e-08 6.686781308331774" Properties=species:S:1:pos:R:3:forces:R:3 energy=-28.83359146118164 free_energy=-28.83359146118164 stress="0.00022853149857837707 1.0599288557955333e-08 -1.0264654015657015e-08 1.0599288557955333e-08 0.00022850320965517312 1.5769575867352614e-08 -1.0264654015657015e-08 1.5769575867352614e-08 0.00022849881497677416" pbc="T T T"
Ag       1.93030748       1.36493349       3.34339058       0.00000019       0.00000010      -0.00000027
Ag       5.79092243       4.09480061      10.03017209      -0.00000007      -0.00000045       0.00000084
Ru      -0.00000011       0.00000006      -0.00000047      -0.00000108      -0.00000155       0.00000259
Cl       1.90157869       1.34461906       6.68678127      -0.00236994      -0.00167611       0.00000021
Cl       5.81965130       4.11511496       6.68678104       0.00237146       0.00167689       0.00000054
Cl       4.84013334       1.34461916       4.99020577       0.00118616      -0.00167766      -0.00205269
Cl       2.88109671       4.11511532       8.38335698      -0.00118427       0.00167540       0.00205141
Cl       2.88109678       4.11511505       4.99020588      -0.00118589       0.00167632      -0.00205147
Cl       4.84013344       1.34461894       8.38335691       0.00118344      -0.00167307       0.00204870
