9
Lattice="6.482439969750638 4.616082490326283e-08 3.742638427083889 2.1608133355846353 6.111703052122271 3.742638481100336 -3.1982926369790834e-08 4.354106210708466e-08 7.485276909563794" Properties=species:S:1:pos:R:3:forces:R:3 energy=-21.871124267578125 free_energy=-21.871124267578125 stress="6.917281552887289e-06 1.1493453300204237e-08 2.624510830884219e-09 1.1493453300204237e-08 6.904072961333441e-06 9.983068594010547e-09 2.624510830884219e-09 9.983068594010547e-09 6.8976851252955385e-06" pbc="T T T"
Ag       2.16081334       1.52792571       3.74263836       0.00000017      -0.00000016      -0.00000029
Ag       6.48243969       4.58377733      11.22791544      -0.00000076       0.00000007       0.00000064
Rh      -0.00000003      -0.00000020      -0.00000029      -0.00000079       0.00000308       0.00000663
I        2.17628185       1.53886360       7.48527689      -0.00348425      -0.00246382       0.00000022
I        6.46697153       4.57283961       7.48527685       0.00348344       0.00246262      -0.00000013
I        5.39429914       1.53886376       5.62735374       0.00174296      -0.00246438      -0.00301774
I        3.24895415       4.57283966       9.34320039      -0.00174003       0.00246061       0.00301334
I        3.24895433       4.57283964       5.62735360      -0.00174139       0.00246336      -0.00301668
I        5.39429911       1.53886347       9.34320028       0.00174064      -0.00246142       0.00301393
