9
Lattice="5.149044951884541 -1.002982382608691e-07 2.972802666554401 1.7163483115090497 4.854566028613638 2.972802512789328 8.10070648922255e-08 -1.310423064244864e-07 5.945605192800432" Properties=species:S:1:pos:R:3:forces:R:3 energy=-36.358482360839844 free_energy=-36.358482360839844 stress="0.00030038898694328964 -1.5871483682872167e-08 2.952528177502245e-08 -1.5871483682872167e-08 0.0003003837773576379 -3.714561813694672e-08 2.952528177502245e-08 -3.714561813694672e-08 0.00030038319528102875" pbc="T T T"
Ag       1.71634821       1.21364156       2.97280257      -0.00000006      -0.00000031       0.00000013
Ag       5.14904523       3.64092457       8.91840777      -0.00000042      -0.00000010       0.00000051
Sb       0.00000002       0.00000003       0.00000028       0.00000530      -0.00000369      -0.00001033
F        1.61124218       1.13932001       5.94560516      -0.00446874      -0.00315957       0.00000013
F        5.25415135       3.71524572       5.94560525       0.00446685       0.00315860       0.00000004
F        4.34342399       1.13932005       4.36817900       0.00223169      -0.00315529      -0.00386466
F        2.52196924       3.71524578       7.52303113      -0.00223563       0.00316146       0.00387196
F        2.52196921       3.71524563       4.36817915      -0.00223456       0.00316018      -0.00387003
F        4.34342396       1.13931989       7.52303134       0.00223562      -0.00316130       0.00387216
