9
Lattice="5.1483150674167595 1.263681870057586e-07 2.9723810480005413 1.7161051727951433 4.853878048197883 2.9723809939920174 1.8696225815194335e-07 6.605564340648592e-08 5.944761772172804" Properties=species:S:1:pos:R:3:forces:R:3 energy=-36.358497619628906 free_energy=-36.358497619628906 stress="0.00014155125245451927 8.729757183800757e-08 1.7684099873349624e-07 8.729757183800757e-08 0.00014150398783385754 -2.2617275874381448e-07 1.7684099873349624e-07 -2.2617275874381448e-07 0.0001414583093719557" pbc="T T T"
Ag       1.71610512       1.21346994       2.97238103       0.00000003      -0.00000023      -0.00000027
Ag       5.14831508       3.64040857       8.91714296       0.00000016       0.00000028      -0.00000002
Sb      -0.00000012      -0.00000009      -0.00000007       0.00000141      -0.00000818      -0.00000673
F        1.61105291       1.13918633       5.94476200      -0.00185208      -0.00130962      -0.00000067
F        5.25336705       3.71469150       5.94476190       0.00185549       0.00131260       0.00000068
F        4.34278953       1.13918594       4.36759305       0.00091603      -0.00129700      -0.00158817
F        2.52163158       3.71469219       7.52193089      -0.00092065       0.00130245       0.00159492
F        2.52163199       3.71469168       4.36759384      -0.00092980       0.00131389      -0.00160937
F        4.34278862       1.13918685       7.52192966       0.00092943      -0.00131425       0.00160965
