9
Lattice="5.945980815643613 -4.805154725007088e-08 3.4329136289418947 1.9819935501594619 5.605924357819357 3.432913645832139 2.5886184040622023e-08 3.899055100724072e-08 6.865827213047594" Properties=species:S:1:pos:R:3:forces:R:3 energy=-24.93012809753418 free_energy=-24.93012809753418 stress="0.0002996679104398936 -1.1629057716788793e-08 5.868637131811738e-09 -1.1629057716788793e-08 0.0002996867406181991 -1.622949774571225e-08 5.868637131811738e-09 -1.622949774571225e-08 0.0002997064439114183" pbc="T T T"
Ag       1.98199367       1.40148094       3.43291377       0.00000100      -0.00000086       0.00000048
Ag       5.94598087       4.20444334      10.29874090       0.00000031       0.00000092       0.00000081
Sb      -0.00000008       0.00000025      -0.00000024      -0.00000078      -0.00000227       0.00000678
Cl       1.98329058       1.40239826       6.86582723       0.00237305       0.00167878      -0.00000056
Cl       5.94468387       4.20352611       6.86582704      -0.00237287      -0.00167835      -0.00000125
Cl       4.95433528       1.40239821       5.15049383      -0.00118537       0.00167716       0.00205302
Cl       2.97363908       4.20352605       8.58116067       0.00118620      -0.00167760      -0.00205533
Cl       2.97363882       4.20352578       5.15049400       0.00118470      -0.00167550       0.00205135
Cl       4.95433542       1.40239843       8.58116071      -0.00118629       0.00167775      -0.00205528
