9
Lattice="6.869672716241463 2.3931214390626483e-07 3.966207236763653 2.289891121167117 6.476789471704021 3.9662072538631565 3.225370195691759e-08 4.3749294942628594e-08 7.932414417662346" Properties=species:S:1:pos:R:3:forces:R:3 energy=-18.293432235717773 free_energy=-18.293432235717773 stress="-2.390139525232371e-05 2.826383393994547e-08 2.071282700910615e-09 2.826383393994547e-08 -2.391991984040942e-05 -6.472703706350558e-09 2.071282700910615e-09 -6.472703706350558e-09 -2.392541318840813e-05" pbc="T T T"
Ag       2.28989109       1.61919744       3.96620726      -0.00000033       0.00000049       0.00000017
Ag       6.86967269       4.85759245      11.89862141      -0.00000060       0.00000033      -0.00000009
Sb      -0.00000012       0.00000056      -0.00000115       0.00000017      -0.00000460       0.00000742
I        2.40881930       1.70329233       7.93241456      -0.00388646      -0.00274820      -0.00000018
I        6.75074454       4.77349733       7.93241481       0.00388874       0.00274942      -0.00000010
I        5.66526343       1.70329203       6.05230540       0.00194295      -0.00274718      -0.00336470
I        3.49430024       4.77349772       9.81252393      -0.00194195       0.00274617       0.00336286
I        3.49430076       4.77349727       6.05230535      -0.00194346       0.00274899      -0.00336765
I        5.66526366       1.70329184       9.81252407       0.00194097      -0.00274548       0.00336222
