9
Lattice="6.286143160831754 5.480806407621195e-08 3.6293063945468584 2.0953810933447405 5.926632714874446 3.629306415226386 -1.8031004680747881e-09 2.4052161790816774e-08 7.258612792216759" Properties=species:S:1:pos:R:3:forces:R:3 energy=-21.443851470947266 free_energy=-21.443851470947266 stress="0.00019824250193778425 -1.7560727316734415e-09 2.303901291966781e-09 -1.7560727316734415e-09 0.0001982362155104056 3.98472899121316e-09 2.303901291966781e-09 3.98472899121316e-09 0.00019823746697511524" pbc="T T T"
Ag       2.09538110       1.48165836       3.62930627       0.00000000       0.00000023      -0.00000001
Ag       6.28614277       4.44497445      10.88791946      -0.00000040      -0.00000071       0.00000040
Sb       0.00000037       0.00000021      -0.00000029      -0.00000550      -0.00000203       0.00000949
Br       2.14554222       1.51712770       7.25861269      -0.00217496      -0.00153788       0.00000027
Br       6.23598153       4.40950492       7.25861273       0.00218015       0.00154135      -0.00000019
Br       5.21337194       1.51712784       5.48740086       0.00109082      -0.00154238      -0.00188863
Br       3.16815238       4.40950516       9.02982507      -0.00108696       0.00153708       0.00188333
Br       3.16815260       4.40950484       5.48740078      -0.00109021       0.00154202      -0.00188786
Br       5.21337217       1.51712768       9.02982483       0.00108706      -0.00153767       0.00188314
