9
Lattice="6.282606320906919 8.697478356168797e-08 3.6272644711490676 2.0942022034133316 5.923297981002473 3.627264446131742 1.419102567351524e-07 6.970582961323909e-08 7.254528696502386" Properties=species:S:1:pos:R:3:forces:R:3 energy=-21.44388198852539 free_energy=-21.44388198852539 stress="-4.63489668618422e-05 1.3314640945338851e-08 1.7457110201846149e-09 1.3314640945338851e-08 -4.635898585547693e-05 3.165015582951014e-09 1.7457110201846149e-09 3.165015582951014e-09 -4.636873200070113e-05" pbc="T T T"
Ag       2.09420236       1.48082452       3.62726465       0.00000004      -0.00000023      -0.00000005
Ag       6.28260628       4.44247351      10.88179254      -0.00000051      -0.00000016      -0.00000106
Sb       0.00000011       0.00000019       0.00000007       0.00000062       0.00000050       0.00000011
Br       2.14466340       1.51650608       7.25452903      -0.00082390      -0.00058246      -0.00000021
Br       6.23214518       4.40679201       7.25452876       0.00082302       0.00058106       0.00000069
Br       5.21027490       1.51650578       5.48459693       0.00041023      -0.00058089      -0.00071136
Br       3.16653398       4.40679227       9.02446069      -0.00041023       0.00058183       0.00071204
Br       3.16653355       4.40679240       5.48459701      -0.00041108       0.00058064      -0.00071140
Br       5.21027489       1.51650580       9.02446082       0.00041176      -0.00058029       0.00071122
