9
Lattice="6.872177565411338 -8.344125111433491e-08 3.9676536634620287 2.2907257677844473 6.479151364234712 3.9676536785024323 1.8782938965969435e-09 1.9748709330219368e-08 7.93530732367092" Properties=species:S:1:pos:R:3:forces:R:3 energy=-18.293415069580078 free_energy=-18.293415069580078 stress="0.00012057820276822895 -4.4753434735866904e-08 -7.35490823799978e-09 -4.4753434735866904e-08 0.0001206200904562138 4.609266746058438e-09 -7.35490823799978e-09 4.609266746058438e-09 0.00012064730253769085" pbc="T T T"
Ag       2.29072579       1.61978767       3.96765368      -0.00000052      -0.00000023       0.00000091
Ag       6.87217754       4.85936354      11.90296111       0.00000036       0.00000011      -0.00000057
Sb       0.00000028      -0.00000056       0.00000010      -0.00000114       0.00000501      -0.00000178
I        2.40965054       1.70388035       7.93530716      -0.00589918      -0.00417128       0.00000019
I        6.75325290       4.77527096       7.93530716       0.00589792       0.00417027       0.00000028
I        5.66735189       1.70388071       6.05447281       0.00295204      -0.00417507      -0.00511244
I        3.49555117       4.77527107       9.81614232      -0.00295058       0.00417279       0.00511079
I        3.49555125       4.77527081       6.05447250      -0.00295039       0.00417249      -0.00510985
I        5.66735197       1.70388066       9.81614179       0.00295158      -0.00417411       0.00511250
