9
Lattice="5.939784970574336 -9.901306684185954e-08 3.4293365171642773 1.9799282266406233 5.600082965560289 3.4293365232848925 1.1740607920609637e-08 1.5798038519429964e-08 6.858673013993249" Properties=species:S:1:pos:R:3:forces:R:3 energy=-24.930198669433594 free_energy=-24.930198669433594 stress="-5.076302477391437e-05 -8.022680475505695e-08 -6.7849876828063316e-09 -8.022680475505695e-08 -5.072509520687163e-05 2.2649334852076208e-08 -6.7849876828063316e-09 2.2649334852076208e-08 -5.0635746447369456e-05" pbc="T T T"
Ag       1.97992833       1.40002042       3.42933633       0.00000004      -0.00000097      -0.00000063
Ag       5.93978485       4.20006218      10.28800927       0.00000020       0.00000006      -0.00000035
Sb       0.00000006      -0.00000031       0.00000305       0.00000147       0.00000910      -0.00005670
Cl       1.98349734       1.40254438       6.85867318      -0.00441298      -0.00312012       0.00000011
Cl       5.93621597       4.19753881       6.85867307       0.00440834       0.00311656       0.00000038
Cl       4.94803629       1.40254429       5.14709576       0.00220189      -0.00311428      -0.00381494
Cl       2.97167748       4.19753779       8.57024899      -0.00221648       0.00313345       0.00384121
Cl       2.97167681       4.19753883       5.14709553      -0.00220025       0.00311141      -0.00381150
Cl       4.94803574       1.40254514       8.57024895       0.00221776      -0.00313527       0.00384249
