9
Lattice="6.807328421589222 -1.397427910330354e-07 3.930212990745871 2.269109421576336 6.418010640288349 3.930212853110159 1.0280382638867399e-07 -9.58753978179968e-08 7.860425803430402" Properties=species:S:1:pos:R:3:forces:R:3 energy=-27.395427703857422 free_energy=-27.395427703857422 stress="0.00010850272519746795 -8.368394865954087e-09 1.0197245714493874e-08 -8.368394865954087e-09 0.00010851230763364583 -1.4191534170038267e-08 1.0197245714493874e-08 -1.4191534170038267e-08 0.00010851818660739809" pbc="T T T"
Ag       2.26910949       1.60450265       3.93021305       0.00000001      -0.00000025      -0.00000029
Ag       6.80732848       4.81350773      11.79063866       0.00000030      -0.00000002       0.00000005
Ta       0.00000006      -0.00000005      -0.00000002       0.00000180      -0.00000232      -0.00000073
I        2.25273720       1.59292545       7.86042591      -0.00191513      -0.00135510      -0.00000033
I        6.82370071       4.82508507       7.86042572       0.00191467       0.00135359       0.00000027
I        5.68096005       1.59292545       5.88114026       0.00095715      -0.00135288      -0.00165695
I        3.39547792       4.82508478       9.83971100      -0.00095847       0.00135554       0.00166048
I        3.39547820       4.82508490       5.88114100      -0.00095905       0.00135661      -0.00166187
I        5.68095968       1.59292565       9.83971098       0.00095873      -0.00135517       0.00165933
