9
Lattice="6.2592824810289285 -1.656841960711431e-08 3.613798509241003 2.086427462685485 5.901308146852383 3.613798535862527 4.989077799899766e-08 6.788273590805125e-08 7.227596932068656" Properties=species:S:1:pos:R:3:forces:R:3 energy=-31.52691078186035 free_energy=-31.52691078186035 stress="7.549043948529288e-05 1.5737349201572215e-08 -5.62202906451148e-09 1.5737349201572215e-08 7.548676512669772e-05 1.4137281567627724e-08 -5.62202906451148e-09 1.4137281567627724e-08 7.544308755313978e-05" pbc="T T T"
Ag       2.08642719       1.47532709       3.61379844      -0.00000002       0.00000000      -0.00000015
Ag       6.25928247       4.42598105      10.84139561       0.00000009      -0.00000023       0.00000006
Ta      -0.00000004       0.00000018       0.00000030       0.00000025      -0.00000039      -0.00000158
Br       2.06416584       1.45958558       7.22759683      -0.00112611      -0.00079623       0.00000036
Br       6.28154437       4.44172245       7.22759695       0.00112596       0.00079703      -0.00000014
Br       5.22719952       1.45958561       5.40141835       0.00056207      -0.00079557      -0.00097328
Br       3.11851047       4.44172256       9.05377567      -0.00056326       0.00079629       0.00097385
Br       3.11851022       4.44172270       5.40141816      -0.00056139       0.00079432      -0.00097132
Br       5.22719985       1.45958559       9.05377554       0.00056231      -0.00079516       0.00097230
