9
Lattice="5.037530316129761 1.1070670827964517e-07 2.908420001473278 1.6791768515879533 4.749429819653018 2.9084200444811734 4.510469081505141e-08 8.45674631443364e-08 5.816839924823008" Properties=species:S:1:pos:R:3:forces:R:3 energy=-42.2705078125 free_energy=-42.2705078125 stress="0.00030380755197256804 -2.4826233513408624e-08 1.2130439763780032e-08 -2.4826233513408624e-08 0.0003039741422981024 1.1536585020621715e-07 1.2130439763780032e-08 1.1536585020621715e-07 0.00030408581369556487" pbc="T T T"
Ag       1.67917677       1.18735732       2.90842002       0.00000014      -0.00000009      -0.00000057
Ag       5.03753030       3.56207254       8.72525991       0.00000019       0.00000008       0.00000041
Y       -0.00000009       0.00000019      -0.00000005       0.00000416      -0.00000231      -0.00000079
F        1.75537371       1.24123678       5.81684009      -0.00233334      -0.00164890      -0.00000109
F        4.96133362       3.50819322       5.81683993       0.00233099       0.00164844       0.00000119
F        4.15984328       1.24123703       4.42861875       0.00116803      -0.00165305      -0.00202394
F        2.55686387       3.50819270       7.20506114      -0.00116916       0.00165561       0.00202596
F        2.55686402       3.50819309       4.42861856      -0.00116892       0.00165100      -0.00202322
F        4.15984328       1.24123712       7.20506140       0.00116833      -0.00165056       0.00202194
