9
Lattice="6.4888653574153485 -1.539103336204558e-07 3.7463481399099314 2.162954976110464 6.117760873089755 3.746348136307155 3.6799462615985096e-08 2.1608668105667415e-08 7.492696216081332" Properties=species:S:1:pos:R:3:forces:R:3 energy=-28.355411529541016 free_energy=-28.355411529541016 stress="3.657444904092699e-05 -1.5609343151368194e-08 -4.180581214541235e-09 -1.5609343151368194e-08 3.6587294744094834e-05 -1.0041929510151704e-09 -4.180581214541235e-09 -1.0041929510151704e-09 3.659178037196398e-05" pbc="T T T"
Ag       2.16295523       1.52943973       3.74634826      -0.00000004      -0.00000166       0.00000011
Ag       6.48886500       4.58832043      11.23904415      -0.00000097       0.00000029      -0.00000092
Y       -0.00000061      -0.00000020       0.00000053       0.00001049       0.00000778      -0.00000891
Br       2.24577106       1.58799977       7.49269665      -0.00091001      -0.00064318       0.00000031
Br       6.40604962       4.52976133       7.49269681       0.00090200       0.00063733       0.00000025
Br       5.36597969       1.58799984       5.69124251       0.00045205      -0.00064047      -0.00078398
Br       3.28584101       4.52976110       9.29414937      -0.00045485       0.00064328       0.00078835
Br       3.28584076       4.52976123       5.69124272      -0.00045322       0.00063997      -0.00078394
Br       5.36597976       1.58799976       9.29414893       0.00045458      -0.00064322       0.00078875
