9
Lattice="7.043004181584342 -3.5301945811332233e-07 4.066280650197394 2.347667819056367 6.640207638792432 4.06628049196026 1.2246372181519613e-07 -1.0720512790260312e-07 8.132561088281339" Properties=species:S:1:pos:R:3:forces:R:3 energy=-24.989627838134766 free_energy=-24.989627838134766 stress="8.408314170083031e-05 -9.087181673805844e-09 -6.663541274321005e-09 -9.087181673805844e-09 8.409383735852316e-05 6.837670429860054e-09 -6.663541274321005e-09 6.837670429860054e-09 8.409814472543076e-05" pbc="T T T"
Ag       2.34766814       1.66005156       4.06628084       0.00000021      -0.00000057      -0.00000012
Ag       7.04300441       4.98015515      12.19884172       0.00000033      -0.00000067       0.00000081
Y        0.00000074       0.00000127       0.00000195      -0.00000587      -0.00001129      -0.00000986
I        2.44567474       1.72935220       8.13256139      -0.00576346      -0.00407671       0.00000019
I        6.94499592       4.91085380       8.13256078       0.00577392       0.00408408      -0.00000062
I        5.82016692       1.72935332       6.18429710       0.00288279      -0.00407661      -0.00499304
I        3.57050542       4.91085388      10.08082363      -0.00288803       0.00408296       0.00500092
I        3.57050532       4.91085338       6.18429794      -0.00288618       0.00408044      -0.00499647
I        5.82016694       1.72935407      10.08082362       0.00288638      -0.00408176       0.00499827
