9
Lattice="6.045595671615946 1.9342699338316618e-07 3.4904262607596963 2.015198683313457 5.699842448898799 3.4904263581989006 -3.475168173478249e-08 9.47650700950846e-08 6.980852581711193" Properties=species:S:1:pos:R:3:forces:R:3 energy=-31.752836227416992 free_energy=-31.752836227416992 stress="-1.945922849699855e-05 2.0790716703800172e-08 -1.4608141363225968e-08 2.0790716703800172e-08 -1.9461129340925254e-05 1.748623645880798e-08 -1.4608141363225968e-08 1.748623645880798e-08 -1.951504782482516e-05" pbc="T T T"
Ag       2.01519856       1.42496063       3.49042630       0.00000009       0.00000020       0.00000020
Ag       6.04559566       4.27488214      10.47127931      -0.00000008       0.00000135       0.00000110
Y        0.00000060       0.00000079      -0.00000025      -0.00000659      -0.00001577       0.00000275
Cl       2.09768983       1.48329073       6.98085268      -0.00115129      -0.00081539      -0.00000028
Cl       5.96310418       4.21655165       6.98085232       0.00116476       0.00082209      -0.00000020
Cl       4.99675098       1.48329066       5.30707871       0.00057776      -0.00081866      -0.00100147
Cl       3.06404324       4.21655178       8.65462621      -0.00057989       0.00082085       0.00100570
Cl       3.06404341       4.21655197       5.30707893      -0.00058073       0.00082044      -0.00100599
Cl       4.99675081       1.48329059       8.65462668       0.00057597      -0.00081504       0.00099821
