9
Lattice="4.87259003451102 3.2234209205935583e-06 2.8131913906064354 1.6241999976876713 4.593923497806883 2.8131909048569463 2.629061414149446e-06 1.264108328747276e-06 5.626378227545154" Properties=species:S:1:pos:R:3:forces:R:3 energy=-21.544952392578125 free_energy=-21.544952392578125 stress="8.753569272812456e-05 -2.938507179806038e-07 -2.085153028019704e-07 -2.938507179806038e-07 8.886931755114347e-05 -1.1456511828100702e-07 -2.085153028019704e-07 -1.1456511828100702e-07 8.740817429497838e-05" pbc="T T T"
As       1.62420838       1.14850676       2.81318401       0.00008846       0.00028558      -0.00007031
As       4.87259196       3.44543735       8.43953252      -0.00001343      -0.00007501      -0.00044226
B       -0.00000150      -0.00000092      -0.00000569      -0.00000624      -0.00000191      -0.00009272
Cl       1.60357090       1.13389233       5.62638156      -0.00416756      -0.00290906       0.00005006
Cl       4.89322570       3.46002824       5.62639620       0.00411719       0.00288357       0.00023367
Cl       4.07080568       1.13389480       4.20193025       0.00205731      -0.00298277      -0.00358246
Cl       2.42598087       3.46002695       7.05085052      -0.00199322       0.00279656       0.00367640
Cl       2.42597898       3.46002521       4.20192533      -0.00214343       0.00282949      -0.00352472
Cl       4.07080998       1.13390162       7.05084793       0.00206080      -0.00282653       0.00375234
