9
Lattice="6.3922838978704295 -2.2143831553716753 3.3954163462351916 2.1034856774322357 2.8184613424750857 3.159067249231198 0.2019973145455612 -0.9851108614198354 6.659409399062634" Properties=species:S:1:pos:R:3:forces:R:3 energy=-46.35113525390625 free_energy=-46.35113525390625 stress="1.5161604096647352e-05 -0.000368774140952155 -3.3008389436872676e-05 -0.000368774140952155 0.0003122822963632643 -0.00018514800467528403 -3.3008389436872676e-05 -0.00018514800467528403 -0.0004688583721872419" pbc="T T T"
As       3.18635831       1.69564190       5.36598659      -0.03342809      -0.00094369      -0.00768611
As       4.70092623      -1.00269328      10.83487583      -0.00286382      -0.01730621       0.01639843
B        0.04688894      -0.25349776      -1.54243411       0.00811292       0.01584053      -0.01550468
F        1.11121293      -1.12002103       6.19821923       0.00798365       0.00718080       0.00591171
F        7.33350676      -0.23042974       5.37164120      -0.01933515      -0.01669112       0.00383511
F        4.11586913      -1.39791857       5.24570799       0.01246428       0.00539313      -0.00629121
F        3.01778791       0.68875411       7.28455265       0.00205448       0.00354859      -0.00389987
F        4.80379812       2.34484967       6.23622893       0.00849789       0.00753329       0.00178379
F        6.44410777      -2.22111047       7.86009345       0.01651414      -0.00455558       0.00545213
