9
Lattice="6.431442020877063 -3.036949599172426e-07 3.713194048515121 2.143813791439146 6.063620136650111 3.713193925874671 -2.971507401770235e-07 -3.603205331667647e-07 7.4263886117104665" Properties=species:S:1:pos:R:3:forces:R:3 energy=-18.218769073486328 free_energy=-18.218769073486328 stress="-0.00011645601625787094 -1.0920709669903772e-08 1.5633467853604088e-08 -1.0920709669903772e-08 -0.00011643862671917304 1.317748488105508e-08 1.5633467853604088e-08 1.317748488105508e-08 -0.00011645369522739202" pbc="T T T"
As       2.14381351       1.51589781       3.71319363      -0.00000786      -0.00004358      -0.00000525
As       6.43143686       4.54771454      11.13958160      -0.00002360      -0.00000003      -0.00000555
Be       0.00000002       0.00000039      -0.00000009       0.00000099      -0.00000030      -0.00000194
I        2.11274775       1.49393715       7.42638993      -0.00633505      -0.00448548       0.00000279
I        6.46250850       4.56968361       7.42638879       0.00633548       0.00449492       0.00000148
I        5.37506968       1.49393685       5.54288687       0.00317118      -0.00447900      -0.00548848
I        3.20018894       4.56968524       9.30988889      -0.00315698       0.00450072       0.00548948
I        3.20018842       4.56968475       5.54288674      -0.00315671       0.00449345      -0.00548728
I        5.37506835       1.49393752       9.30988983       0.00317258      -0.00448066       0.00549472
