9
Lattice="6.078017399107955 1.0288268707914435e-07 3.5091447268135685 2.0260057525403363 5.730409922422956 3.509144976507818 -1.616292867785674e-07 1.915225949564812e-07 7.0182897335774195" Properties=species:S:1:pos:R:3:forces:R:3 energy=-21.702796936035156 free_energy=-21.702796936035156 stress="7.392540283035487e-05 2.756451777941038e-08 -3.127963665860989e-08 2.756451777941038e-08 7.396431465167552e-05 -2.5062739439363213e-08 -3.127963665860989e-08 -2.5062739439363213e-08 7.388977246591821e-05" pbc="T T T"
As       2.02600583       1.43260238       3.50914388      -0.00000043       0.00000247      -0.00000484
As       6.07801868       4.29780863      10.52743511       0.00000718       0.00000679      -0.00000246
B        0.00000150       0.00000061       0.00000139       0.00000957       0.00000303       0.00000463
Br       1.87039070       1.32256687       7.01829000      -0.00086245      -0.00060843       0.00000322
Br       6.23363084       4.40784233       7.01828933       0.00085683       0.00060390      -0.00000191
Br       5.14282075       1.32256677       5.12895226       0.00042577      -0.00060951      -0.00074061
Br       2.96120162       4.40784312       8.90762715      -0.00043236       0.00060626       0.00074007
Br       2.96120179       4.40784315       5.12895151      -0.00042938       0.00060648      -0.00073903
Br       5.14282028       1.32256702       8.90762725       0.00042529      -0.00061078       0.00074069
