9
Lattice="5.54517058318443 -1.1182866334940417e-05 3.201480798222848 1.848378044620059 5.228037226913744 3.2014835806048247 -2.7346724710755784e-05 -1.5929216413617718e-05 6.403008962173883" Properties=species:S:1:pos:R:3:forces:R:3 energy=-25.108861923217773 free_energy=-25.108861923217773 stress="-0.0003362257266417146 -3.952477527491283e-06 1.8557153453002684e-05 -3.952477527491283e-06 -0.00036344066029414535 1.3276911886350717e-05 1.8557153453002684e-05 1.3276911886350717e-05 -0.00034775593667291105" pbc="T T T"
As       1.84832716       1.30684229       3.20122125      -0.00047433      -0.00135033      -0.00232925
As       5.54482070       3.92130407       9.60504172      -0.00262267       0.00243833       0.00472159
Be       0.00002151      -0.00000431      -0.00001411       0.00009939      -0.00008149      -0.00008716
Cl       1.75031354       1.23750874       6.40304073       0.00086331      -0.00084445       0.00052593
Cl       5.64329250       3.99040838       6.40282368       0.00013564       0.00019472      -0.00146531
Cl       4.67015528       1.23759903       4.71728440       0.00082769       0.00004052       0.00007895
Cl       2.72346799       3.99042760       8.08865118       0.00001499       0.00000012      -0.00037407
Cl       2.72374614       3.99044588       4.71714779       0.00175892       0.00047089      -0.00065925
Cl       4.66994016       1.23750790       8.08870282      -0.00060290      -0.00086839      -0.00041158
