9
Lattice="4.49953218935074 0.6372342006105068 4.372470042295475 2.1084436330428997 4.906231510491916 4.1296298466228265 0.3365904466142022 0.012271746748890209 7.98410344132229" Properties=species:S:1:pos:R:3:forces:R:3 energy=-44.41333770751953 free_energy=-44.41333770751953 stress="0.00010454639414092526 1.6255002265097573e-05 -0.0002486707817297429 1.6255002265097573e-05 -0.00015933404210954905 -6.947109795873985e-05 -0.0002486707817297429 -6.947109795873985e-05 0.00024408411991316825" pbc="T T T"
As       1.74278022       3.04829242       5.15636473      -0.00120220       0.00286463       0.00093633
As       6.44850531       2.56616233      13.23983530      -0.00062129      -0.00033206      -0.00011468
Be       0.68469802       0.02645505      -1.92393178       0.00184768       0.00085261      -0.00022307
F        1.33893220       0.18656457       7.58411352       0.00111417      -0.00185141      -0.00119740
F        4.44891952       4.69485875       9.33187300      -0.00148463       0.00187361       0.00127068
F        4.34992309       2.67222972       5.60575671       0.00220164      -0.00567786       0.00059992
F        2.11422072       3.78186168      10.01248772      -0.00226653       0.00123602       0.00000446
F        1.71231563       3.20633059       7.06833235      -0.00259947      -0.00003487      -0.00106466
F        4.93787906       2.04028450       9.87017263       0.00301060       0.00106919      -0.00021153
