9
Lattice="6.3492459891739035 2.7288096055086394e-07 3.6657388593157902 2.116415743688318 5.986126674084125 3.6657385879224558 6.60434654723114e-07 1.346101729830969e-07 7.331476574725208" Properties=species:S:1:pos:R:3:forces:R:3 energy=-18.390329360961914 free_energy=-18.390329360961914 stress="1.082281414710451e-05 2.2535736832196562e-08 2.3853900188441912e-08 2.2535736832196562e-08 1.088681528926827e-05 2.9141830282242154e-08 2.3853900188441912e-08 2.9141830282242154e-08 1.0817617294378579e-05" pbc="T T T"
As       2.11640462       1.49653317       3.66572616      -0.00006900       0.00000587      -0.00007456
As       6.34923812       4.48958488      10.99721503      -0.00005755      -0.00006368      -0.00000565
B       -0.00000088      -0.00000055       0.00000008      -0.00000159      -0.00000228      -0.00000205
I        2.03094071       1.43609301       7.33148141      -0.00022265      -0.00015074       0.00003008
I        6.43472592       4.55003553       7.33147537       0.00024840       0.00015783      -0.00000057
I        5.33378262       1.43609428       5.42458711       0.00015448      -0.00014380      -0.00018495
I        3.13189008       4.55003509       9.23837276      -0.00009517       0.00016132       0.00021492
I        3.13188909       4.55003657       5.42458532      -0.00009136       0.00017411      -0.00019135
I        5.33377933       1.43609639       9.23837298       0.00013453      -0.00013866       0.00021432
