9
Lattice="4.569463590658489 -1.20509346115617e-07 2.6381806041692686 1.523154368321345 4.3081309601936875 2.6381806877941147 -8.966760656092444e-08 3.901453993317617e-08 5.276361363647358" Properties=species:S:1:pos:R:3:forces:R:3 energy=-19.151609420776367 free_energy=-19.151609420776367 stress="0.0005985155585221946 -1.0416791695888605e-07 1.1510904585065873e-07 -1.0416791695888605e-07 0.0005986627074889839 3.284051475205274e-09 1.1510904585065873e-07 3.284051475205274e-09 0.000598870450630784" pbc="T T T"
As       1.52315481       1.07703301       2.63818138      -0.00000276      -0.00000574      -0.00000931
As       4.56946422       3.23109787       7.91454277      -0.00000423       0.00000234      -0.00000503
C       -0.00000132       0.00000026      -0.00000131       0.00000760       0.00000024       0.00000590
Cl       1.54982631       1.09589187       5.27636154      -0.00095698      -0.00067441       0.00000913
Cl       4.54279166       3.21223818       5.27636128       0.00095099       0.00068942       0.00000037
Cl       3.79455064       1.09589250       3.98036926       0.00048123      -0.00068530      -0.00083408
Cl       2.29806723       3.21223835       6.57235322      -0.00047792       0.00068066       0.00082698
Cl       2.29806738       3.21223830       3.98036923      -0.00047977       0.00067416      -0.00082538
Cl       3.79455045       1.09589324       6.57235344       0.00048190      -0.00068156       0.00083110
