9
Lattice="4.4904354750179145 -1.2559402782621783e-07 2.5925539982472348 1.496811705573045 4.233623197698636 2.592554000016975 -9.013654365935856e-08 -6.156868842466176e-08 5.185108152615532" Properties=species:S:1:pos:R:3:forces:R:3 energy=-44.292606353759766 free_energy=-44.292606353759766 stress="0.00015681433433201164 1.516595631301243e-07 3.7700209531976725e-07 1.516595631301243e-07 0.00015585761866532266 2.3310938956910832e-07 3.7700209531976725e-07 2.3310938956910832e-07 0.0001569404557812959" pbc="T T T"
As       1.49681883       1.05839922       2.59255408       0.00015855      -0.00012887       0.00000859
As       4.49044582       3.17522645       7.77767485       0.00021999       0.00018878       0.00026647
Co      -0.00000024      -0.00000014      -0.00000034      -0.00000166       0.00000980       0.00000480
O        1.45571646       1.02934431       5.18510810       0.00048900       0.00031137      -0.00000728
O        4.53152741       3.20428118       5.18510253      -0.00056344      -0.00026822      -0.00011493
O        3.76257574       1.02934601       3.85323985      -0.00030103       0.00032401       0.00040245
O        2.22466313       3.20427699       6.51697144       0.00012556      -0.00033993      -0.00051719
O        2.22466731       3.20427695       3.85324152       0.00020730      -0.00033206       0.00043952
O        3.76257381       1.02934102       6.51697258      -0.00033414       0.00023550      -0.00048178
