9
Lattice="5.226102250385182 1.5140871143773833e-06 3.0172928664550964 1.7420356473130298 4.927215228990557 3.017292630279209 -5.1418537877554516e-08 -3.256137516286032e-07 6.034585821969943" Properties=species:S:1:pos:R:3:forces:R:3 energy=-33.01092529296875 free_energy=-33.01092529296875 stress="1.547569081594702e-05 -2.3137464211231418e-07 1.3318589253685786e-07 -2.3137464211231418e-07 1.5495719708269462e-05 1.7134306062871474e-07 1.3318589253685786e-07 1.7134306062871474e-07 1.4644474504166283e-05" pbc="T T T"
As       1.74203670       1.23179602       3.01729259       0.00001630      -0.00011106       0.00000652
As       5.22608716       3.69539599       9.05189239      -0.00018725      -0.00017891       0.00015970
C       -0.00001438      -0.00002617       0.00004306      -0.00028128      -0.00054469       0.00089292
S        1.62552011       1.14941762       6.03458518      -0.00101203      -0.00069758       0.00001575
S        5.34263896       3.77781932       6.03458157       0.00149930       0.00110352      -0.00004873
S        4.41335758       1.14941202       4.42501506       0.00076938      -0.00093123      -0.00131392
S        2.55479999       3.77780587       7.64413561      -0.00048521       0.00078377       0.00093627
S        2.55479011       3.77782066       4.42500793      -0.00072703       0.00117695      -0.00146478
S        4.41333451       1.14942442       7.64413086       0.00040796      -0.00060087       0.00081629
