9
Lattice="5.303379294610189 1.3575220699068128e-07 3.061907496209904 1.7677932501552656 5.0000739723538095 3.061907454704024 2.63409044702922e-08 -3.220831982344528e-08 6.1238149467961005" Properties=species:S:1:pos:R:3:forces:R:3 energy=-39.29176330566406 free_energy=-39.29176330566406 stress="-1.7524058421258815e-05 1.966398599506647e-08 -1.2940902571756396e-08 1.966398599506647e-08 -1.7498456145403907e-05 -5.50784973185614e-09 -1.2940902571756396e-08 -5.50784973185614e-09 -1.7545393347973004e-05" pbc="T T T"
As       1.76779371       1.25001742       3.06190730       0.00000279      -0.00001086       0.00000062
As       5.30337926       3.75005689       9.18572220      -0.00000338       0.00001486      -0.00000049
Cr      -0.00000050      -0.00000002      -0.00000001       0.00000488       0.00000251       0.00000403
S        1.81566422       1.28386751       6.12381398       0.00735939       0.00519954      -0.00000138
S        5.25550851       3.71620632       6.12381515      -0.00736423      -0.00520424       0.00000218
S        4.39554748       1.28386810       4.63431889      -0.00367765       0.00520083       0.00637400
S        2.67562484       3.71620614       7.61331196       0.00368184      -0.00520778      -0.00637780
S        2.67562524       3.71620610       4.63431826       0.00367953      -0.00520066       0.00637472
S        4.39554747       1.28386785       7.61331192      -0.00368318       0.00520571      -0.00637558
