9
Lattice="9.992049396463468 -3.0298841830884395 1.6136503315976058 -0.7588112570626423 3.143882903504634 2.371027103533793 -0.09853277986972823 -0.6290215719730922 4.859133369349156" Properties=species:S:1:pos:R:3:forces:R:3 energy=-44.238006591796875 free_energy=-44.238006591796875 stress="-0.0011682640761137009 0.0001636782253626734 0.0005876831128261983 0.0001636782253626734 0.001576320151798427 0.000278372666798532 0.0005876831128261983 0.000278372666798532 0.002079589990898967" pbc="T T T"
As       6.67274363      -1.71663864       2.00770062       0.01337147       0.03503758      -0.00039589
As       3.99254393       2.58940678       5.66668671      -0.00016484      -0.05123752       0.00839198
C        1.21818032      -0.73910098       0.22378978       0.01322246       0.00453112      -0.00691819
F       -0.10192621      -0.86099551       5.27946748      -0.07089628       0.00023396       0.01311682
F       10.49954657      -1.86691964       4.70522495       0.02201382       0.00968646      -0.03301618
F        7.29546996      -2.68505108       3.41527259      -0.00752024       0.00470518       0.01654327
F        0.62427442       1.75247191       6.13657804      -0.00363678      -0.01522303       0.00334051
F        1.38242288       3.16448201       3.20856395       0.02302645      -0.02242210       0.00985082
F        4.95564070      -1.69793002       4.73198868       0.01058361       0.03468851      -0.01091321
