9
Lattice="6.383666763580192 4.0719982312496134e-08 3.6856111443663138 2.127888911534721 6.018578120099491 3.6856112275911523 -6.782094626564148e-08 5.397253870138501e-08 7.371222406201964" Properties=species:S:1:pos:R:3:forces:R:3 energy=-18.43731689453125 free_energy=-18.43731689453125 stress="-6.2152948885341175e-06 -3.6205531905864063e-09 5.479490639004325e-09 -3.6205531905864063e-09 -6.163303623907268e-06 4.721439239574465e-09 5.479490639004325e-09 4.721439239574465e-09 -6.1860041569161694e-06" pbc="T T T"
As       2.12788685       1.50464771       3.68561018      -0.00001398       0.00002103      -0.00000418
As       6.38366897       4.51393814      11.05683443       0.00001428       0.00002576       0.00000351
C       -0.00000025       0.00000038       0.00000022      -0.00000066       0.00000191      -0.00000034
I        2.15878200       1.52648944       7.37122141      -0.00148344      -0.00105512      -0.00000026
I        6.35277392       4.49208668       7.37122169       0.00149047       0.00104025      -0.00000317
I        5.30427578       1.52648798       5.55517294       0.00074467      -0.00106081      -0.00127858
I        3.20727971       4.49208663       9.18727309      -0.00074828       0.00104216       0.00128752
I        3.20727983       4.49208716       5.55517272      -0.00074556       0.00104612      -0.00128520
I        5.30427562       1.52648881       9.18727236       0.00074252      -0.00106129       0.00128061
