9
Lattice="5.493748248069277 -9.85626739024442e-08 3.1718169018345113 1.8312493300589543 5.179555572501941 3.1718168897766486 2.445750752949355e-08 2.5261878644978776e-09 6.343633761307304" Properties=species:S:1:pos:R:3:forces:R:3 energy=-34.61771011352539 free_energy=-34.61771011352539 stress="-5.6586036407679785e-06 7.36365968201369e-10 1.4645197055074277e-08 7.36365968201369e-10 -5.595466063823551e-06 -6.544328634561225e-09 1.4645197055074277e-08 -6.544328634561225e-09 -5.63361663807882e-06" pbc="T T T"
As       1.83125216       1.29488753       3.17181494       0.00001831      -0.00000855      -0.00001589
As       5.49374860       3.88466669       9.51544825       0.00000419      -0.00000001      -0.00001738
Co      -0.00000022       0.00000060       0.00000042       0.00000024      -0.00000411      -0.00000312
Se       1.87140303       1.32328211       6.34363477      -0.00001766      -0.00001085       0.00000628
Se       5.45359357       3.85627384       6.34363479       0.00001222       0.00001801       0.00000634
Se       4.55804645       1.32328104       4.79249953       0.00000166      -0.00001163      -0.00001078
Se       2.76695210       3.85627317       7.89476819      -0.00000673       0.00001332       0.00002039
Se       2.76694996       3.85627437       4.79250060      -0.00001261       0.00001526      -0.00000821
Se       4.55804468       1.32328259       7.89476879       0.00000024      -0.00001140       0.00002242
