9
Lattice="6.1029505426986645 -6.107158197899938e-08 3.523539494281091 2.0343168405116097 5.753916518701636 3.5235394067704418 -3.576307019368892e-07 -3.600613081384171e-07 7.047079607996587" Properties=species:S:1:pos:R:3:forces:R:3 energy=-20.356353759765625 free_energy=-20.356353759765625 stress="4.758402064908296e-05 8.196739953447718e-10 6.79110740975375e-08 8.196739953447718e-10 4.7515888581983745e-05 6.289116782909332e-08 6.79110740975375e-08 6.289116782909332e-08 4.761590753332712e-05" pbc="T T T"
As       2.03431344       1.43847110       3.52352880      -0.00001741      -0.00005060      -0.00006062
As       6.10295308       4.31543498      10.57062556       0.00001442      -0.00001450       0.00003819
C        0.00000004      -0.00000467      -0.00000123      -0.00000172       0.00000599       0.00000044
Br       1.99715874       1.41220619       7.04708214       0.00167751       0.00119871       0.00002230
Br       6.14010869       4.34171504       7.04707685      -0.00168809      -0.00118157      -0.00000740
Br       5.10437243       1.41220706       5.25313183      -0.00082214       0.00119688       0.00146066
Br       3.03289388       4.34171482       8.84102881       0.00083691      -0.00118592      -0.00146569
Br       3.03289808       4.34171612       5.25313149       0.00084949      -0.00116338       0.00146899
Br       5.10436977       1.41220376       8.84102989      -0.00084893       0.00119466      -0.00145686
