9
Lattice="5.246960426766444 -1.824164205447108e-07 3.029333544671871 1.7489865939990001 4.946881322128408 3.0293336190448814 -8.003165464601002e-08 3.4497082284761254e-08 6.05866722796266" Properties=species:S:1:pos:R:3:forces:R:3 energy=-36.932090759277344 free_energy=-36.932090759277344 stress="-4.491694562602788e-05 -2.38010375852582e-08 -8.88119977560109e-09 -2.38010375852582e-08 -4.489674756769091e-05 -3.414023286296697e-09 -8.88119977560109e-09 -3.414023286296697e-09 -4.486471152631566e-05" pbc="T T T"
As       1.74898737       1.23672329       3.02933379       0.00000441       0.00002580       0.00000156
As       5.24696024       3.71016228       9.08799981      -0.00000063       0.00001542      -0.00001233
Co      -0.00000011       0.00000002      -0.00000030      -0.00000082      -0.00000242       0.00000635
S        1.76485348       1.24793862       6.05866737       0.00039934       0.00027546       0.00000042
S        5.23109379       3.69894101       6.05866775      -0.00039560      -0.00028698       0.00000619
S        4.36453323       1.24793936       4.55774193      -0.00019763       0.00026958       0.00034302
S        2.63141294       3.69894092       7.55959319       0.00019828      -0.00029019      -0.00034007
S        2.63141326       3.69894013       4.55774102       0.00019277      -0.00028727       0.00033672
S        4.36453359       1.24793905       7.55959299      -0.00020047       0.00028060      -0.00034203
