9
Lattice="4.521003947816669 -8.104898566293947e-08 2.6102028756075404 1.5070012606883112 4.2624430078115925 2.610202838951882 -8.499954686236856e-08 -1.0499757175464622e-07 5.2204058984386075" Properties=species:S:1:pos:R:3:forces:R:3 energy=-50.82008361816406 free_energy=-50.82008361816406 stress="0.0006231131264939904 3.340190701806023e-08 4.966811388840142e-07 3.340190701806023e-08 0.0006246062694117427 1.7725436407545203e-07 4.966811388840142e-07 1.7725436407545203e-07 0.0006234769825823605" pbc="T T T"
As       1.50699576       1.06561607       2.61019450      -0.00008738       0.00008336      -0.00013076
As       4.52099805       3.19683134       7.83060377      -0.00008725      -0.00001783      -0.00007678
Cr       0.00000099      -0.00000058       0.00000160       0.00003253      -0.00000110       0.00000430
O        1.53085683       1.08247776       5.22040785      -0.00423250      -0.00301351       0.00003935
O        4.49715146       3.17996275       5.22040865       0.00426254       0.00297073       0.00003475
O        3.75557874       1.08247871       3.93596457       0.00216217      -0.00300211      -0.00364876
O        2.27243034       3.17996242       6.50485137      -0.00210027       0.00297974       0.00372621
O        2.27243113       3.17996460       3.93596407      -0.00209492       0.00300263      -0.00366104
O        3.75557692       1.08247823       6.50485011       0.00214495      -0.00300215       0.00371209
