9
Lattice="5.47455189046182 3.599347758713569e-07 3.1607346562148586 1.8248510547598886 5.161458868846118 3.160734508546839 2.2541788798394637e-07 -2.1461140408368415e-08 6.321468921994465" Properties=species:S:1:pos:R:3:forces:R:3 energy=-32.003204345703125 free_energy=-32.003204345703125 stress="-1.9500241251080297e-05 -9.871445172393578e-08 6.609174096894321e-09 -9.871445172393578e-08 -1.959741348400712e-05 -2.8606804036712674e-08 6.609174096894321e-09 -2.8606804036712674e-08 -1.9546430849004537e-05" pbc="T T T"
As       1.82484816       1.29036524       3.16073538      -0.00002433       0.00000574       0.00001049
As       5.47455180       3.87109370       9.48220536      -0.00000958      -0.00000664       0.00001756
Ge       0.00000007       0.00000011       0.00000036       0.00000186       0.00000107      -0.00000390
S        1.87824545       1.32811962       6.32146838       0.00101811       0.00071934      -0.00000232
S        5.42115834       3.83333992       6.32146739      -0.00102466      -0.00072229      -0.00001403
S        4.53543043       1.32812048       4.78734244      -0.00049952       0.00072449       0.00088492
S        2.76397346       3.83333853       7.85559586       0.00051382      -0.00071812      -0.00088406
S        2.76397347       3.83333830       4.78734175       0.00051525      -0.00072303       0.00087997
S        4.53543155       1.32812094       7.85559528      -0.00049099       0.00071937      -0.00088906
