9
Lattice="5.5851538878765705 1.0289663830804185e-08 3.224590303904426 1.8617180261033737 5.265733544332734 3.2245902107605593 9.284922505955548e-08 -4.842317060873678e-08 6.449180446989218" Properties=species:S:1:pos:R:3:forces:R:3 energy=-31.384105682373047 free_energy=-31.384105682373047 stress="1.853337926149834e-05 5.835921523811294e-09 -1.3843293622528563e-08 5.835921523811294e-09 1.8554876078269444e-05 4.975020395647789e-09 -1.3843293622528563e-08 4.975020395647789e-09 1.8552451365394518e-05" pbc="T T T"
As       1.86171809       1.31643262       3.22459061       0.00000232      -0.00000157       0.00000179
As       5.58515499       3.94929974       9.67377167       0.00000341      -0.00000140       0.00000346
Ge      -0.00000023       0.00000005      -0.00000023      -0.00000014       0.00000035      -0.00000151
Se       2.18789296       1.54707392       6.44918005      -0.00277627      -0.00196126       0.00000086
Se       5.25897895       3.71865960       6.44918002       0.00277404       0.00196502       0.00000026
Se       4.49120744       1.54707431       5.11936146       0.00138527      -0.00196365      -0.00240602
Se       2.95566422       3.71865969       7.77899947      -0.00138750       0.00196245       0.00240326
Se       2.95566425       3.71865973       5.11936122      -0.00138794       0.00196297      -0.00240599
Se       4.49120736       1.54707429       7.77899951       0.00138687      -0.00196296       0.00240391
