9
Lattice="5.433114668615264 3.834003043370085e-08 3.1368103390792452 1.8110381730125589 5.122389693999961 3.1368104880470353 -4.4801121961043325e-08 1.5076827648801773e-07 6.273620755756537" Properties=species:S:1:pos:R:3:forces:R:3 energy=-39.193138122558594 free_energy=-39.193138122558594 stress="-2.2988140699453652e-05 4.1308734211042974e-08 -4.7399854707919076e-08 4.1308734211042974e-08 -2.3076121578924358e-05 -9.542437062748377e-09 -4.7399854707919076e-08 -9.542437062748377e-09 -2.3102360501070507e-05" pbc="T T T"
As       1.81103613       1.28059570       3.13681136      -0.00001435      -0.00001001       0.00000640
As       5.43311354       3.84179447       9.41043082      -0.00001199       0.00001523      -0.00000242
Mn       0.00000009       0.00000027       0.00000019       0.00000010      -0.00000187       0.00000198
S        1.81550110       1.28375267       6.27362025      -0.00014463      -0.00010929      -0.00000420
S        5.42865250       3.83863646       6.27362094       0.00015190       0.00010577       0.00000157
S        4.52536401       1.28375261       4.70907952       0.00007547      -0.00011092      -0.00012517
S        2.71878931       3.83863711       7.83816218      -0.00006658       0.00010851       0.00012565
S        2.71878930       3.83863774       4.70907966      -0.00006723       0.00011060      -0.00012234
S        4.52536498       1.28375268       7.83816150       0.00007756      -0.00010771       0.00011846
