9
Lattice="5.659895727713327 9.732454536556479e-08 3.267741977806293 1.886631946842895 5.336201190085568 3.2677420716026737 -1.1879527008096896e-07 3.087564072190289e-08 6.535484161371961" Properties=species:S:1:pos:R:3:forces:R:3 energy=-36.86806869506836 free_energy=-36.86806869506836 stress="9.168315591523424e-05 4.810964426837927e-08 -3.529474668084731e-08 4.810964426837927e-08 9.163088543573394e-05 2.5490841437658673e-08 -3.529474668084731e-08 2.5490841437658673e-08 9.145414514932781e-05" pbc="T T T"
As       1.88663225       1.33405042       3.26774096       0.00000173       0.00000306      -0.00000917
As       5.65989353       4.00215166       9.80322271      -0.00001260       0.00000141      -0.00002082
Mn       0.00000039       0.00000002       0.00000014      -0.00000365      -0.00000108       0.00000522
Se       1.89781153       1.34195585       6.53548396      -0.00480217      -0.00339943       0.00000145
Se       5.64871659       3.99424501       6.53548521       0.00480759       0.00339706       0.00001029
Se       4.71098983       1.34195449       4.91129554       0.00240201      -0.00340173      -0.00415233
Se       2.83553796       3.99424565       8.15967453      -0.00239249       0.00339316       0.00416133
Se       2.83553780       3.99424629       4.91129458      -0.00239643       0.00339466      -0.00415403
Se       4.71099015       1.34195595       8.15967519       0.00239621      -0.00338717       0.00415835
