9
Lattice="4.535648285667474 2.689066147042029e-06 2.618657330582836 1.511883373214297 4.2762521339121955 2.6186606629649316 -1.5298023366252346e-06 2.999582683821989e-06 5.2373173108624895" Properties=species:S:1:pos:R:3:forces:R:3 energy=-55.57046890258789 free_energy=-55.57046890258789 stress="0.00019145430997014046 3.975959316449007e-06 -1.7561300410307012e-05 3.975959316449007e-06 0.00018155068391934037 1.889024133561179e-05 -1.7561300410307012e-05 1.889024133561179e-05 0.00017821232904680073" pbc="T T T"
As       1.51188626       1.06907264       2.61866532      -0.00010723      -0.00051523      -0.00028377
As       4.53564542       3.20720122       7.85597934      -0.00014244      -0.00051728      -0.00031526
Mn       0.00000582       0.00002210       0.00001293      -0.00071702      -0.00312275      -0.00179636
O        1.52889509       1.08109116       5.23731393       0.00502133       0.00359595       0.00004058
O        4.51862114       3.19515159       5.23731792      -0.00226355      -0.00172997      -0.00008567
O        3.77119588       1.08109427       3.94272244      -0.00242245       0.00349045       0.00424051
O        2.27634086       3.19514697       6.53189636       0.00078321      -0.00130069      -0.00151539
O        2.27632662       3.19516258       3.94271445       0.00229120      -0.00331044       0.00396633
O        3.77120295       1.08108855       6.53191844      -0.00244117       0.00340950      -0.00425029
