9
Lattice="5.699183765853804 6.466016616520505e-08 3.2904251266697147 1.899727307004965 5.373243535830405 3.290426297377501 -1.2307397920168977e-06 5.63553869922565e-07 6.580852385043316" Properties=species:S:1:pos:R:3:forces:R:3 energy=-21.171979904174805 free_energy=-21.171979904174805 stress="-1.1130161510664038e-05 -9.776751852541565e-08 6.121034346051601e-08 -9.776751852541565e-08 -1.1611471563810483e-05 4.4833726065007795e-08 6.121034346051601e-08 4.4833726065007795e-08 -1.1425272532505915e-05" pbc="T T T"
As       1.89978591       1.34327952       3.29039795       0.00035364      -0.00020036      -0.00017442
As       5.69918472       4.02998796       9.87132263       0.00001132       0.00033520       0.00027016
N        0.00000975      -0.00000452      -0.00004381       0.00015070      -0.00004693      -0.00053708
Cl       1.87327593       1.32459992       6.58086433      -0.00036526      -0.00030807       0.00006084
Cl       5.72561600       4.04864068       6.58083863       0.00020376       0.00025131      -0.00006798
Cl       4.76251489       1.32461233       4.91273952      -0.00002633      -0.00014988      -0.00015785
Cl       2.83635519       4.04863943       8.24898072      -0.00028970       0.00032699       0.00042595
Cl       2.83637325       4.04863705       4.91274458      -0.00010349       0.00019553      -0.00017336
Cl       4.76252275       1.32458429       8.24897104       0.00006540      -0.00040373       0.00035398
