9
Lattice="5.318061624992225 1.0168465135256003e-07 3.070384410301915 1.7726873287494727 5.013916742480026 3.070384367780939 2.4879501719532446e-07 1.238472517210723e-07 6.1407683896781196" Properties=species:S:1:pos:R:3:forces:R:3 energy=-34.8306770324707 free_energy=-34.8306770324707 stress="-1.0132425813935697e-05 2.749897731746387e-08 -5.01857471135736e-08 2.749897731746387e-08 -1.0007766832131892e-05 -3.040284468625032e-08 -5.01857471135736e-08 -3.040284468625032e-08 -9.942365977622103e-06" pbc="T T T"
As       1.77268897       1.25348043       3.07038524       0.00001422       0.00001521       0.00000773
As       5.31805786       3.76043910       9.21115819      -0.00003493       0.00000966       0.00004952
Ni       0.00000039      -0.00000029      -0.00000029      -0.00000216       0.00000223       0.00000340
S        1.76740198       1.24974028       6.14076853       0.00021410       0.00013244      -0.00000401
S        5.32334842       3.76417601       6.14076677      -0.00020742      -0.00014432      -0.00001831
S        4.43436162       1.24974234       4.60099733      -0.00010058       0.00014676       0.00016420
S        2.65638731       3.76417466       7.68053812       0.00010303      -0.00015061      -0.00017795
S        2.65638942       3.76417450       4.60099627       0.00011900      -0.00015068       0.00015718
S        4.43436107       1.24974086       7.68053852      -0.00010527       0.00013925      -0.00018193
