9
Lattice="4.476542539802984 -2.7036926914566284e-08 2.584532977641646 1.4921808400727443 4.220524704044341 2.58453294479782 8.108138853818312e-08 1.710788470453499e-08 5.16906581484622" Properties=species:S:1:pos:R:3:forces:R:3 energy=-40.0064811706543 free_energy=-40.0064811706543 stress="-0.0007436160231009126 -6.375357486376743e-08 -4.064031315920147e-07 -6.375357486376743e-08 -0.0007441297639161348 -2.0781843090844632e-07 -4.064031315920147e-07 -2.0781843090844632e-07 -0.0007434050203301013" pbc="T T T"
As       1.49217686       1.05513600       2.58454027      -0.00009463       0.00012218       0.00017660
As       4.47653854       3.16540730       7.75359793      -0.00009563       0.00032475      -0.00002679
Ni       0.00000018      -0.00000051      -0.00000020       0.00000691      -0.00001340      -0.00001011
O        1.47399247       1.04226190       5.16906363      -0.00621022      -0.00457135      -0.00007000
O        4.49473642       3.17825462       5.16906695       0.00633164       0.00438775       0.00001080
O        3.73954551       1.04226316       3.86104566       0.00311151      -0.00454788      -0.00540930
O        2.22917643       3.17825695       6.47708681      -0.00310850       0.00444634       0.00546065
O        2.22917635       3.17825488       3.86104276      -0.00313657       0.00438924      -0.00549783
O        3.73955107       1.04226421       6.47708321       0.00319561      -0.00453778       0.00536543
