9
Lattice="5.547723143099494 1.640795536289115e-07 3.202979598190308 1.849241239976858 5.230443825488635 3.2029795330976336 6.354473328293889e-08 -3.4789070950851384e-08 6.405959086317773" Properties=species:S:1:pos:R:3:forces:R:3 energy=-33.029632568359375 free_energy=-33.029632568359375 stress="9.178575419355184e-05 -6.335163504900265e-08 3.737282483484705e-09 -6.335163504900265e-08 9.181170753436163e-05 1.8866401774175756e-08 3.737282483484705e-09 1.8866401774175756e-08 9.184039663523436e-05" pbc="T T T"
As       1.84923909       1.30761078       3.20297780      -0.00001117      -0.00000161      -0.00000728
As       5.54772336       3.92283253       9.60893821      -0.00000113      -0.00000439      -0.00000226
Ni       0.00000050       0.00000002       0.00000123      -0.00000477      -0.00000396      -0.00001832
Se       1.88623674       1.33377091       6.40595975      -0.00542079      -0.00383349       0.00000417
Se       5.51072759       3.89667354       6.40595853       0.00542523       0.00383367      -0.00000008
Se       4.60460543       1.33377202       4.83650882       0.00271875      -0.00383046      -0.00469333
Se       2.79236069       3.89667211       7.97540937      -0.00271159       0.00383957       0.00470693
Se       2.79235922       3.89667279       4.83651015      -0.00271396       0.00383885      -0.00469135
Se       4.60460514       1.33377108       7.97540893       0.00271936      -0.00383820       0.00470163
