9
Lattice="5.471110399920231 2.104245896091817e-07 3.1587473648138786 1.8237035840423759 5.158212726732252 3.1587475050890106 -1.5411438946654353e-07 6.282596230959416e-08 6.317494996561695" Properties=species:S:1:pos:R:3:forces:R:3 energy=-34.019134521484375 free_energy=-34.019134521484375 stress="3.213430318282917e-05 -5.907795586068687e-09 -1.020975659571377e-07 -5.907795586068687e-09 3.2364001526730135e-05 -4.079181081806382e-08 -1.020975659571377e-07 -4.079181081806382e-08 3.2191001082537696e-05" pbc="T T T"
As       1.82370241       1.28955743       3.15875225      -0.00000871       0.00004152       0.00004586
As       5.47111065       3.86866093       9.47624325       0.00000130       0.00001021       0.00000693
P        0.00000007      -0.00000040      -0.00000012       0.00000220      -0.00000054       0.00000043
S        1.77365846       1.25416614       6.31749480      -0.00113928      -0.00080705      -0.00000817
S        5.52115619       3.90404569       6.31749417       0.00114202       0.00078797      -0.00000299
S        4.58427977       1.25416615       4.69477993       0.00056154      -0.00080842      -0.00099069
S        2.71053337       3.90404707       7.94020870      -0.00056270       0.00079972       0.00097829
S        2.71053203       3.90404426       4.69477930      -0.00057611       0.00078404      -0.00099707
S        4.58428250       1.25416490       7.94020736       0.00057974      -0.00080782       0.00096720
