9
Lattice="5.4777653873102485 -3.6211382398615685e-08 3.162589358883682 1.825921772747704 5.164486642029585 3.162589339626733 1.7525090408068924e-08 -1.1192783893300911e-08 6.325178687413074" Properties=species:S:1:pos:R:3:forces:R:3 energy=-32.89402389526367 free_energy=-32.89402389526367 stress="0.0004254154919181019 -3.040398866005489e-08 1.6412993630865458e-08 -3.040398866005489e-08 0.00042542305891402066 1.4117033098060006e-09 1.6412993630865458e-08 1.4117033098060006e-09 0.0004254720697645098" pbc="T T T"
As       1.82592167       1.29112172       3.16258950      -0.00000041       0.00000018       0.00000025
As       5.47776557       3.87336455       9.48776783       0.00000035      -0.00000153      -0.00000008
P       -0.00000006      -0.00000008       0.00000009      -0.00000054       0.00000493      -0.00000370
Se       1.87461374       1.32555207       6.32517881      -0.00235629      -0.00166541      -0.00000074
Se       5.42907321       3.83893471       6.32517863       0.00235415       0.00166475      -0.00000096
Se       4.54045859       1.32555213       4.78605252       0.00117904      -0.00166698      -0.00204198
Se       2.76322880       3.83893440       7.86430466      -0.00117988       0.00166808       0.00204337
Se       2.76322863       3.83893452       4.78605277      -0.00117878       0.00166518      -0.00204107
Se       4.54045859       1.32555235       7.86430476       0.00118227      -0.00166927       0.00204475
