9
Lattice="3.859926849577795 -3.337714477778945e-08 2.228529942376889 1.2866422444276346 3.6391739876816716 2.228529955015131 7.28194034919567e-08 6.69697173380421e-08 4.457059758626869" Properties=species:S:1:pos:R:3:forces:R:3 energy=-21.953702926635742 free_energy=-21.953702926635742 stress="-0.0006956547149457037 -2.6031216293631587e-07 -1.0574318594080978e-06 -2.6031216293631587e-07 -0.0006968997186049819 -7.769651233502373e-07 -1.0574318594080978e-06 -7.769651233502373e-07 -0.0006964607164263725" pbc="T T T"
As       1.28664163       0.90979356       2.22852893      -0.00000319       0.00000490      -0.00001685
As       3.85992701       2.72937981       6.68559109       0.00000356      -0.00000894       0.00002434
P        0.00000035       0.00000021      -0.00000004      -0.00000666      -0.00000923      -0.00000095
F        1.45024129       1.02547578       4.45706015      -0.00249992      -0.00176296       0.00000319
F        3.69632788       2.61369841       4.45705944       0.00250602       0.00176425      -0.00001556
F        3.13480654       1.02547583       3.48447572       0.00125886      -0.00175893      -0.00216156
F        2.01176276       2.61369828       5.42964377      -0.00126253       0.00177161       0.00216916
F        2.01176303       2.61369877       3.48447596      -0.00124468       0.00176871      -0.00216790
F        3.13480617       1.02547540       5.42964372       0.00125016      -0.00177115       0.00216465
