9
Lattice="6.575957025892282 1.2435576488596708e-07 3.796630323446672 2.191985630267368 6.199872105586814 3.7966306045131613 -1.882541114874809e-07 2.1111895413123806e-07 7.593260972959034" Properties=species:S:1:pos:R:3:forces:R:3 energy=-18.616470336914062 free_energy=-18.616470336914062 stress="-0.0001651227503316477 -6.071785740857649e-09 3.776801926758111e-10 -6.071785740857649e-09 -0.00016513543960172683 1.1245410824756163e-08 3.776801926758111e-10 1.1245410824756163e-08 -0.00016512021829839796" pbc="T T T"
As       2.19198646       1.54996646       3.79663296       0.00000426      -0.00000831       0.00000870
As       6.57595245       4.64990493      11.38989144      -0.00001962       0.00000166       0.00000362
P       -0.00000010       0.00000023      -0.00000014      -0.00000001       0.00000057      -0.00000030
I        2.25854022       1.59702824       7.59326023      -0.00667505      -0.00472772      -0.00000541
I        6.50940331       4.60284422       7.59325995       0.00667679       0.00472578      -0.00000208
I        5.44668739       1.59702945       5.75258200       0.00333722      -0.00472115      -0.00578803
I        3.32125710       4.60284321       9.43393943      -0.00333121       0.00472727       0.00578684
I        3.32125609       4.60284381       5.75258290      -0.00333270       0.00472322      -0.00578718
I        5.44668689       1.59702926       9.43393873       0.00334028      -0.00472143       0.00578380
