9
Lattice="4.011435320718691 3.7536325077709324e-08 2.316003170920615 1.3371451420526577 3.782017360046362 2.316003171341777 3.6208714733896698e-09 3.07616305657527e-09 4.632006335569699" Properties=species:S:1:pos:R:3:forces:R:3 energy=-50.04876708984375 free_energy=-50.04876708984375 stress="-5.70603042433504e-05 6.619209358404987e-08 6.873440838717215e-08 6.619209358404987e-08 -5.686204167432152e-05 -2.4649131091791787e-07 6.873440838717215e-08 -2.4649131091791787e-07 -5.7326327805640176e-05" pbc="T T T"
As       1.33714511       0.94550433       2.31600320      -0.00000320       0.00000290      -0.00000793
As       4.01143537       2.83651300       6.94800945       0.00000180       0.00000580      -0.00000321
P       -0.00000031       0.00000131      -0.00000096       0.00003602      -0.00016257       0.00013074
O        1.37746191       0.97401269       4.63200618       0.00347122       0.00244321       0.00001440
O        3.97111796       2.80800449       4.63200628      -0.00339094      -0.00241153       0.00000848
O        3.32270436       0.97401287       3.50891994      -0.00171816       0.00242583       0.00300493
O        2.02587625       2.80800465       5.75509240       0.00171295      -0.00244112      -0.00297103
O        2.02587657       2.80800392       3.50892102       0.00166309      -0.00235531       0.00289074
O        3.32270472       0.97401234       5.75509313      -0.00177170       0.00249238      -0.00306740
