9
Lattice="6.209884439726842 -5.351328162770297e-07 3.585278611283165 2.069961246482522 5.854734991305965 3.585278141721305 1.8669422746089442e-08 -5.618921671585056e-07 7.170557190229934" Properties=species:S:1:pos:R:3:forces:R:3 energy=-20.92636489868164 free_energy=-20.92636489868164 stress="-0.00026335337315686047 -1.3639868789994125e-08 -3.39432446594401e-08 -1.3639868789994125e-08 -0.0002633602998685092 2.6082940252081244e-08 -3.39432446594401e-08 2.6082940252081244e-08 -0.0002633800613693893" pbc="T T T"
As       2.06996373       1.46368408       3.58527706       0.00001302       0.00000398      -0.00000857
As       6.20988528       4.39105037      10.75583214       0.00000397      -0.00000015      -0.00001785
P       -0.00000141       0.00000231       0.00000128      -0.00000502       0.00000612       0.00000349
Br       2.05125324       1.45045490       7.17055740      -0.00522792      -0.00369504       0.00000300
Br       6.22859187       4.40427912       7.17055833       0.00522260       0.00369319       0.00000712
Br       5.18425723       1.45045302       5.36171642       0.00261132      -0.00369917      -0.00452298
Br       3.09558772       4.40427816       8.97939735      -0.00261231       0.00369136       0.00452596
Br       3.09558896       4.40427795       5.36171712      -0.00261404       0.00369275      -0.00452167
Br       5.18425624       1.45045574       8.97939847       0.00260842      -0.00369304       0.00453128
