9
Lattice="6.051944937587214 3.371473197913017e-06 3.494158256121115 2.017311565052711 5.705906399997563 3.49416967536168 -1.3450842316352457e-05 4.474354572224152e-06 6.988339810102877" Properties=species:S:1:pos:R:3:forces:R:3 energy=-24.426616668701172 free_energy=-24.426616668701172 stress="-7.272023503901437e-05 -2.792931468320603e-07 2.112867832693155e-06 -2.792931468320603e-07 -7.622439443366602e-05 1.7129552816186333e-06 2.112867832693155e-06 1.7129552816186333e-06 -7.301100413314998e-05" pbc="T T T"
As       2.01699669       1.42638981       3.49411832      -0.00069917      -0.00018554      -0.00007861
As       6.05170700       4.27947979      10.48261317      -0.00065822       0.00008170       0.00025940
P        0.00008903      -0.00001198      -0.00003192       0.00008259       0.00028164       0.00026789
Cl       1.79357250       1.26819245       6.98836198       0.00262666       0.00168997      -0.00007918
Cl       6.27582016       4.43767909       6.98832233      -0.00229070      -0.00174183      -0.00012056
Cl       5.15523614       1.26822776       5.04738336      -0.00094660       0.00166196       0.00206003
Cl       2.91411109       4.43772998       8.92924669       0.00148670      -0.00172442      -0.00213778
Cl       2.91417018       4.43772482       5.04738779       0.00144142      -0.00174192       0.00202215
Cl       5.15525919       1.26823909       8.92925439      -0.00104252       0.00167829      -0.00219345
