9
Lattice="5.370109715138546 1.3075965780178936e-07 3.1004345622253573 1.7900366469482853 5.062988315746144 3.100434645443424 -1.6468348915556495e-07 -1.452793211971662e-08 6.200869409690873" Properties=species:S:1:pos:R:3:forces:R:3 energy=-34.183807373046875 free_energy=-34.183807373046875 stress="-1.203219380840892e-05 -5.401346214739533e-08 3.2025791796286285e-08 -5.401346214739533e-08 -1.2144608263042755e-05 -3.287719252398347e-08 3.2025791796286285e-08 -3.287719252398347e-08 -1.2074983715137932e-05" pbc="T T T"
As       1.79003500       1.26574669       3.10043586      -0.00001561      -0.00000279       0.00001264
As       5.37010951       3.79724153       9.30130574      -0.00000244       0.00000723       0.00001524
Si       0.00000038       0.00000019      -0.00000081      -0.00000483       0.00000238       0.00000821
S        1.81498138       1.28338526       6.20086915      -0.00346559      -0.00244829      -0.00000544
S        5.34516510       3.77960331       6.20086955       0.00346327       0.00245041      -0.00000122
S        4.46261976       1.28338509       4.67225606       0.00174601      -0.00245664      -0.00300151
S        2.69752588       3.77960392       7.72948301      -0.00173563       0.00245428       0.00298047
S        2.69752894       3.77960169       4.67225242      -0.00172168       0.00244528      -0.00301224
S        4.46261856       1.28338604       7.72948376       0.00173676      -0.00245160       0.00300375
