9
Lattice="5.492402104076376 -5.516266204783074e-07 3.171038904955833 1.83080015267271 5.178284766439793 3.1710389545054936 -7.177675459348343e-08 9.931882080411898e-09 6.342077934232649" Properties=species:S:1:pos:R:3:forces:R:3 energy=-29.24785041809082 free_energy=-29.24785041809082 stress="9.632147703086957e-05 4.606269854434686e-08 -1.8546812974307159e-09 4.606269854434686e-08 9.646303078625351e-05 -2.9920578015207866e-08 -1.8546812974307159e-09 -2.9920578015207866e-08 9.648620471125469e-05" pbc="T T T"
As       1.83080248       1.29457060       3.17103470       0.00002066      -0.00000741      -0.00004503
As       5.49240457       3.88371367       9.51311289       0.00003423       0.00000674      -0.00004317
Se       0.00000017      -0.00000012      -0.00000053       0.00000883       0.00000109      -0.00001243
S        1.84403065       1.30392762       6.34208212       0.00153548       0.00110012       0.00003457
S        5.47917087       3.87435765       6.34208056      -0.00154841      -0.00108933       0.00002287
S        4.57038454       1.30392513       4.76801708      -0.00078127       0.00107193       0.00134164
S        2.75281595       3.87435696       7.91613882       0.00076276      -0.00109160      -0.00132680
S        2.75281436       3.87435845       4.76801865       0.00074849      -0.00107908       0.00134981
S        4.57038507       1.30392684       7.91613889      -0.00078127       0.00108761      -0.00132132
