9
Lattice="4.038327699128514 2.550257343610287e-08 2.3315295854440796 1.346109244462857 3.8073719061180635 2.3315296073095677 4.214434404049943e-09 2.9759692973509423e-08 4.663059163588549" Properties=species:S:1:pos:R:3:forces:R:3 energy=-45.769630432128906 free_energy=-45.769630432128906 stress="-0.0004321654560044408 -3.948705185052859e-08 -5.3655774934213696e-08 -3.948705185052859e-08 -0.0004316823906265199 5.477489040117689e-08 -5.3655774934213696e-08 5.477489040117689e-08 -0.00043183384696021676" pbc="T T T"
As       1.34610928       0.95184309       2.33152965      -0.00000101      -0.00000135       0.00000120
As       4.03832769       2.85552903       6.99458866       0.00000011       0.00000206       0.00000116
S       -0.00000007      -0.00000005       0.00000009       0.00000424       0.00000498      -0.00000832
O        1.29452185       0.91536509       4.66305909      -0.00448406      -0.00317222      -0.00000180
O        4.08991527       2.89200692       4.66305911       0.00447470       0.00316513      -0.00000188
O        3.39106682       0.91536517       3.45261837       0.00223896      -0.00316602      -0.00388050
O        1.99337012       2.89200663       5.87350003      -0.00224268       0.00317448       0.00388497
O        1.99337009       2.89200676       3.45261840      -0.00223508       0.00316471      -0.00387692
O        3.39106671       0.91536524       5.87350004       0.00224492      -0.00317192       0.00388259
