9
Lattice="3.801369724571958 -4.093838399615329e-06 2.1947228921087047 1.2671237246706222 3.5839701005848514 2.1947162964819653 5.534517970316722e-07 -8.509198725311701e-06 4.389445020979356" Properties=species:S:1:pos:R:3:forces:R:3 energy=-51.16965103149414 free_energy=-51.16965103149414 stress="0.0003608129918575287 -3.6036512938153464e-06 1.8645972886588424e-05 -3.6036512938153464e-06 0.000384949758881703 -4.021990025648847e-05 1.8645972886588424e-05 -4.021990025648847e-05 0.0003505964996293187" pbc="T T T"
As       1.26713275       0.89597923       2.19470897      -0.00132339       0.00079198       0.00129756
As       3.80138038       2.68797220       6.58416256      -0.00214310       0.00022549       0.00096185
Se      -0.00000051       0.00000056       0.00000118       0.00009672      -0.00010975      -0.00013901
O        1.31769806       0.93175076       4.38944278      -0.00038433      -0.00015402      -0.00058035
O        3.75078765       2.65219904       4.38944680       0.00179291       0.00158691      -0.00042801
O        3.14251632       0.93176360       3.33589204       0.00059223      -0.00234222      -0.00216722
O        1.92597402       2.65221286       5.44300332       0.00009108      -0.00120163       0.00022888
O        1.92596807       2.65220198       3.33588062       0.00024557       0.00123024      -0.00088024
O        3.14251955       0.93174986       5.44299962       0.00103807      -0.00001860       0.00171375
