9
Lattice="4.050627206847013 -1.983152769472363e-08 2.338630642099288 1.3502090471007109 3.8189679102924314 2.3386306475569025 -3.903498058067896e-09 3.923988841514475e-09 4.6772612909596365" Properties=species:S:1:pos:R:3:forces:R:3 energy=-49.13968276977539 free_energy=-49.13968276977539 stress="-0.00036087658372707665 -2.4892022665312652e-08 7.776183963414951e-08 -2.4892022665312652e-08 -0.00036093711969442666 6.651315942463043e-09 7.776183963414951e-08 6.651315942463043e-09 -0.0003607170074246824" pbc="T T T"
As       1.35020904       0.95474204       2.33863062      -0.00000121      -0.00000138      -0.00000605
As       4.05062730       2.86422581       7.01589197       0.00000065      -0.00000160      -0.00000377
Si      -0.00000006      -0.00000033      -0.00000123       0.00000422       0.00004476       0.00013586
O        1.40969922       0.99680775       4.67726109       0.00748732       0.00529884       0.00001965
O        3.99113734       2.82216036       4.67726120      -0.00752249      -0.00531978       0.00000908
O        3.34577734       0.99680816       3.55946626      -0.00371109       0.00526308       0.00644675
O        2.05505817       2.82216058       5.79505736       0.00378826      -0.00535894      -0.00655309
O        2.05505884       2.82215979       3.55946604       0.00373051      -0.00526842       0.00647353
O        3.34577781       0.99680742       5.79505699      -0.00377577       0.00534330      -0.00652305
