9
Lattice="6.734154671386334 -3.5109091645606255e-08 3.8879659775026267 2.2447182209476098 6.349021806245034 3.887965925102385 6.174284824521643e-08 -2.051814150859112e-08 7.775931848063508" Properties=species:S:1:pos:R:3:forces:R:3 energy=-17.7254581451416 free_energy=-17.7254581451416 stress="-7.276423275470734e-06 1.278370564961051e-08 2.9253717226396247e-09 1.278370564961051e-08 -7.294057013496058e-06 -1.026712936891272e-09 2.9253717226396247e-09 -1.026712936891272e-09 -7.293384896911448e-06" pbc="T T T"
Au       2.24471828       1.58725564       3.88796570       0.00000022       0.00000011      -0.00000038
Au       6.73415469       4.76176612      11.66389784      -0.00000025      -0.00000040      -0.00000036
As       0.00000001      -0.00000019       0.00000030      -0.00000107      -0.00000016      -0.00000040
I        2.30699440       1.63129118       7.77593206      -0.00154337      -0.00109132       0.00000009
I        6.67187857       4.71773049       7.77593188       0.00154416       0.00109157       0.00000040
I        5.58065748       1.63129132       5.88588176       0.00077137      -0.00109056      -0.00133567
I        3.39821557       4.71773038       9.66598191      -0.00077104       0.00109045       0.00133581
I        3.39821543       4.71773034       5.88588169      -0.00077149       0.00109076      -0.00133602
I        5.58065743       1.63129166       9.66598187       0.00077141      -0.00109050       0.00133641
