9
Lattice="6.351991191067226 2.7877364638868515e-07 3.6673239951269387 2.117330708567551 5.98871618505738 3.6673239107506315 -1.514539560524799e-07 -2.1043396437393455e-07 7.3346482525803935" Properties=species:S:1:pos:R:3:forces:R:3 energy=-21.445940017700195 free_energy=-21.445940017700195 stress="0.0001576025679241866 1.2188012377123414e-08 2.5461718067276706e-08 1.2188012377123414e-08 0.00015760071983095258 2.1788247650533776e-08 2.5461718067276706e-08 2.1788247650533776e-08 0.0001577169168740511" pbc="T T T"
Au       2.11733180       1.49717679       3.66732068       0.00000054      -0.00000090      -0.00000180
Au       6.35199045       4.49153982      11.00197146      -0.00000019       0.00000126      -0.00000085
As      -0.00000017      -0.00000080       0.00000189      -0.00000292      -0.00000293      -0.00000668
Cl       1.97521674       1.39668854       7.33465032      -0.00444657      -0.00314480      -0.00000196
Cl       6.49410148       4.59202551       7.33464903       0.00446010       0.00315380      -0.00000116
Cl       5.36438389       1.39668923       5.37791490       0.00222015      -0.00314450      -0.00385755
Cl       3.10493938       4.59202565       9.29137968      -0.00223133       0.00315070       0.00386536
Cl       3.10493980       4.59202784       5.37791445      -0.00222614       0.00314051      -0.00385898
Cl       5.36438364       1.39669189       9.29138221       0.00222602      -0.00315332       0.00386387
