9
Lattice="6.6583456874750135 -1.443333893541011e-06 3.8441929187115647 2.2194471097397774 6.277554938624659 3.844193077997682 1.923829069624191e-06 1.5554376767133087e-06 7.688382505254382" Properties=species:S:1:pos:R:3:forces:R:3 energy=-33.476829528808594 free_energy=-33.476829528808594 stress="-7.782009924994782e-05 1.1708391589593248e-08 7.794394463189747e-09 1.1708391589593248e-08 -7.789995288476348e-05 1.3491087358374898e-08 7.794394463189747e-09 1.3491087358374898e-08 -7.777645078022033e-05" pbc="T T T"
Au       2.21941649       1.56941531       3.84420983       0.00000428      -0.00000347      -0.00000244
Au       6.65835548       4.70814260      11.53254572      -0.00000245       0.00000356       0.00000433
As       0.00000216      -0.00000161       0.00000494       0.00005065       0.00004806      -0.00012395
F        1.45308663       1.02748715       7.68838349       0.00007081       0.00004989       0.00000046
F        7.42471562       5.25006803       7.68838905      -0.00012636      -0.00009435       0.00000302
F        5.93180878       1.02747881       5.10260268      -0.00006729       0.00009751       0.00011301
F        2.94599248       5.25007360      10.27416926       0.00003707      -0.00005209      -0.00005412
F        2.94599384       5.25007171       5.10259883       0.00006878      -0.00010109       0.00011563
F        5.93180715       1.02748386      10.27417300      -0.00003499       0.00005239      -0.00005591
