9
Lattice="6.4556943247058225 -2.889188079656825e-08 3.7271969118567085 2.151898137056455 6.086486959063523 3.7271968147565753 -2.8008282204769946e-08 -1.387276825571356e-07 7.454393872224996" Properties=species:S:1:pos:R:3:forces:R:3 energy=-19.614242553710938 free_energy=-19.614242553710938 stress="9.602771751815453e-05 1.65215059411139e-08 1.1577231617820871e-08 1.65215059411139e-08 9.600368503015488e-05 5.027260829848501e-10 1.1577231617820871e-08 5.027260829848501e-10 9.59988683462143e-05" pbc="T T T"
Au       2.15189811       1.52162174       3.72719678      -0.00000004       0.00000001      -0.00000007
Au       6.45569430       4.56486505      11.18159066      -0.00000016       0.00000009       0.00000013
As      -0.00000090      -0.00000071      -0.00000017       0.00000644       0.00000640       0.00000042
Br       2.13012380       1.50622478       7.45439385      -0.00558752      -0.00395119       0.00000056
Br       6.47746923       4.58026251       7.45439385       0.00558084       0.00394577       0.00000004
Br       5.39063274       1.50622479       5.57193819       0.00279246      -0.00394908      -0.00483570
Br       3.21695963       4.58026243       9.33684988      -0.00279084       0.00394666       0.00483531
Br       3.21695983       4.58026237       5.57193757      -0.00279167       0.00394866      -0.00483596
Br       5.39063297       1.50622419       9.33684977       0.00279054      -0.00394747       0.00483483
