9
Lattice="6.339260694925678 2.414012972611847e-07 3.659973864757339 2.1130871085424285 5.976712813255615 3.659973894828239 8.517291814602753e-08 9.705553590275267e-08 7.319947581990838" Properties=species:S:1:pos:R:3:forces:R:3 energy=-21.44588851928711 free_energy=-21.44588851928711 stress="-0.00021185260266065598 3.998593456344679e-08 -3.526174907619861e-08 3.998593456344679e-08 -0.00021186463709454983 3.005957982527008e-10 -3.526174907619861e-08 3.005957982527008e-10 -0.0002118014235747978" pbc="T T T"
Au       2.11308532       1.49417793       3.65997559      -0.00000083      -0.00000000       0.00000073
Au       6.33926166       4.48253687      10.97991937       0.00000006       0.00000109      -0.00000087
As       0.00000037      -0.00000108      -0.00000218      -0.00000132       0.00000282       0.00000258
Cl       1.97222758       1.39457511       7.31994798       0.00337923       0.00238931       0.00000111
Cl       6.48012059       4.58213804       7.31994738      -0.00338042      -0.00239062       0.00000152
Cl       5.35314657       1.39457505       5.36797299      -0.00168830       0.00238967       0.00292492
Cl       3.09920085       4.58213782       9.27192421       0.00169230      -0.00239170      -0.00292909
Cl       3.09919971       4.58213752       5.36797347       0.00169033      -0.00238961       0.00292695
Cl       5.35314887       1.39457542       9.27192243      -0.00169098       0.00238901      -0.00292790
