9
Lattice="6.3608652314945 -1.1860664609805922e-07 3.672447366712692 2.1202881631579884 5.997081861191901 3.672447601434564 -2.0663573726697697e-07 1.413608575675098e-07 7.344895091328998" Properties=species:S:1:pos:R:3:forces:R:3 energy=-21.61832046508789 free_energy=-21.61832046508789 stress="-0.00015396271192003042 1.3582635460807069e-08 -8.763551662127611e-09 1.3582635460807069e-08 -0.00015397836978081614 3.1564631797209586e-08 -8.763551662127611e-09 3.1564631797209586e-08 -0.00015401154814753681" pbc="T T T"
Au       2.12028823       1.49927067       3.67244694       0.00000021       0.00000022      -0.00000027
Au       6.36086495       4.49781121      11.01734284       0.00000005      -0.00000012      -0.00000014
Bi      -0.00000001       0.00000040       0.00000123      -0.00000143      -0.00000179      -0.00001779
Cl       2.07612067       1.46803948       7.34489502       0.00290188       0.00205123      -0.00000131
Cl       6.40503234       4.52904218       7.34489481      -0.00289854      -0.00204940      -0.00000074
Cl       5.32280501       1.46803944       5.47042099      -0.00145431       0.00205413       0.00251859
Cl       3.15834925       4.52904167       9.21936924       0.00144714      -0.00204621      -0.00250787
Cl       3.15834825       4.52904289       5.47042000       0.00145425      -0.00205678       0.00252110
Cl       5.32280403       1.46803964       9.21936908      -0.00144923       0.00204867      -0.00251132
