9
Lattice="6.377073358585643 -5.236972393363458e-08 3.681805192470276 2.1256911167179067 6.012362483431171 3.6818051118190884 3.8844219467233056e-08 -7.131018462056516e-08 7.363610317660261" Properties=species:S:1:pos:R:3:forces:R:3 energy=-17.217281341552734 free_energy=-17.217281341552734 stress="9.610267443349585e-05 -7.994777284636712e-09 5.764685173659245e-09 -7.994777284636712e-09 9.609449625713751e-05 -5.0123736272666974e-09 5.764685173659245e-09 -5.0123736272666974e-09 9.6078023489099e-05" pbc="T T T"
Au       2.12569107       1.50309041       3.68180513       0.00000047      -0.00000011       0.00000019
Au       6.37707329       4.50927180      11.04541551      -0.00000034      -0.00000016       0.00000041
B        0.00000008       0.00000012       0.00000013       0.00000041       0.00000074       0.00000005
I        2.01135263       1.42224075       7.36361029      -0.00038806      -0.00027464      -0.00000091
I        6.49141187       4.59012162       7.36361037       0.00038752       0.00027440      -0.00000065
I        5.37139717       1.42224081       5.42368721       0.00019370      -0.00027417      -0.00033607
I        3.13136726       4.59012149       9.30353323      -0.00019410       0.00027424       0.00033639
I        3.13136727       4.59012164       5.42368716      -0.00019413       0.00027415      -0.00033575
I        5.37139744       1.42224085       9.30353345       0.00019455      -0.00027448       0.00033630
