9
Lattice="6.367374297100093 3.900457798692573e-07 3.6762064302082096 2.1224585379065424 6.0032192455126205 3.6762063069994304 -1.1553091742007933e-07 -2.325920126399132e-07 7.352413060522002" Properties=species:S:1:pos:R:3:forces:R:3 energy=-22.61783790588379 free_energy=-22.61783790588379 stress="7.865310180932283e-05 1.1396646293349022e-08 7.070033891665162e-09 1.1396646293349022e-08 7.86652453825809e-05 -1.314502284799346e-09 7.070033891665162e-09 -1.314502284799346e-09 7.87079261499457e-05" pbc="T T T"
Au       2.12245784       1.50080427       3.67620964       0.00000008       0.00000019       0.00000059
Au       6.36737422       4.50241537      11.02862381      -0.00000014      -0.00000019       0.00000077
B       -0.00000464      -0.00000178       0.00001206      -0.00003688      -0.00001553       0.00010655
Cl       1.69284111       1.19701869       7.35241057      -0.00286245      -0.00202560      -0.00001111
Cl       6.79699425       4.80620169       7.35241079       0.00288528       0.00204086      -0.00001148
Cl       5.52095645       1.19701784       5.14224568       0.00144586      -0.00204051      -0.00251400
Cl       2.96887912       4.80619940       9.56257215      -0.00142664       0.00202405       0.00246805
Cl       2.96887843       4.80620130       5.14224481      -0.00143877       0.00204057      -0.00251079
Cl       5.52095453       1.19702057       9.56257367       0.00143352      -0.00202382       0.00247133
