9
Lattice="5.272576571829044 -2.798371991454106e-08 3.0441234582010863 1.7575254539025527 4.971033021465937 3.044123533817568 -1.0663467633568235e-07 1.7208738592241818e-08 6.08824710109881" Properties=species:S:1:pos:R:3:forces:R:3 energy=-31.346519470214844 free_energy=-31.346519470214844 stress="-0.000241891058976762 -2.733130699539288e-08 -1.7574951272081307e-08 -2.733130699539288e-08 -0.00024186282826121897 1.9893830582873306e-08 -1.7574951272081307e-08 1.9893830582873306e-08 -0.0002418338117422536" pbc="T T T"
Au       1.75752482       1.24275839       3.04412317      -0.00000058      -0.00000005      -0.00000085
Au       5.27257666       3.72827445       9.13237016       0.00000065      -0.00000031      -0.00000092
Bi      -0.00000008       0.00000001      -0.00000009      -0.00000486       0.00000624      -0.00000732
F        1.68645785       1.19250618       6.08824730       0.00569247       0.00402586       0.00000031
F        5.34364411       3.77852701       6.08824725      -0.00569272      -0.00402540       0.00000021
F        4.42934771       1.19250598       4.50463919      -0.00284494       0.00402343       0.00492750
F        2.60075472       3.77852700       7.67185521       0.00284499      -0.00402328      -0.00492753
F        2.60075427       3.77852717       4.50463922       0.00284816      -0.00402771       0.00493358
F        4.42934761       1.19250606       7.67185502      -0.00284323       0.00402126      -0.00492503
