9
Lattice="4.531862372858117 -7.784285812119006e-07 2.616472068909452 1.5106201305239042 4.272680286457747 2.6164719416371294 3.6096108426735803e-08 -1.3035234055214326e-07 5.232944075298624" Properties=species:S:1:pos:R:3:forces:R:3 energy=-34.09944152832031 free_energy=-34.09944152832031 stress="-0.0002066100569209084 5.209665800975927e-07 4.359797500796958e-08 5.209665800975927e-07 -0.0002080113918054849 -2.9463036455013025e-08 4.359797500796958e-08 -2.9463036455013025e-08 -0.00020532732014544308" pbc="T T T"
Au       1.51061892       1.06816159       2.61647228       0.00000131      -0.00004433       0.00000177
Au       4.53187447       3.20452009       7.84941604       0.00008173       0.00005782       0.00000130
B       -0.00000060      -0.00000091       0.00000050       0.00000229       0.00000170       0.00000069
F        1.31017480       0.92643320       5.23294440       0.00168717       0.00119871       0.00000015
F        4.73230526       3.34624625       5.23294391      -0.00171900      -0.00120670      -0.00000233
F        3.87677246       0.92643265       3.75111859      -0.00085762       0.00119400       0.00147980
F        2.16570624       3.34624620       6.71476910       0.00083134      -0.00119585      -0.00147969
F        2.16570584       3.34624590       3.75111836       0.00083116      -0.00119823       0.00147843
F        3.87677276       0.92643304       6.71476911      -0.00085884       0.00119299      -0.00148088
