9
Lattice="7.00025978217569 -1.1702317277119343e-07 4.041601830102556 2.3334196884043132 6.599908510117784 4.041602052943094 -2.410877602861795e-07 1.0244803800184266e-07 8.083204077781339" Properties=species:S:1:pos:R:3:forces:R:3 energy=-17.53849220275879 free_energy=-17.53849220275879 stress="3.520015889080241e-05 -4.7009636183759085e-09 -1.1784568876294088e-08 -4.7009636183759085e-09 3.518870289553888e-05 1.3418371302975629e-08 -1.1784568876294088e-08 1.3418371302975629e-08 3.520421887515113e-05" pbc="T T T"
Au       2.33341994       1.64997716       4.04160229       0.00000008      -0.00000027       0.00000035
Au       7.00025947       4.94993144      12.12480602      -0.00000037       0.00000040       0.00000064
Bi      -0.00000088      -0.00000052       0.00000007       0.00000511       0.00000283      -0.00000046
I        2.49932428       1.76728935       8.08320432      -0.00063065      -0.00044623       0.00000052
I        6.83435534       4.83261921       8.08320371       0.00062829       0.00044371      -0.00000116
I        5.75059753       1.76728922       6.20608033       0.00031501      -0.00044650      -0.00054647
I        3.58308187       4.83261924       9.96032755      -0.00031640       0.00044692       0.00054707
I        3.58308184       4.83261936       6.20608036      -0.00031483       0.00044422      -0.00054538
I        5.75059744       1.76728946       9.96032727       0.00031377      -0.00044510       0.00054486
