9
Lattice="6.637073739566221 1.4085556843131783e-07 3.831916040591082 2.2123580283966504 6.257492999433599 3.8319160710612907 1.6182760255921247e-08 4.876119173912256e-08 7.66383205315279" Properties=species:S:1:pos:R:3:forces:R:3 energy=-16.521268844604492 free_energy=-16.521268844604492 stress="-0.00015368765161838382 1.5115796392350944e-09 -5.143050429978757e-09 1.5115796392350944e-09 -0.0001536876952741295 1.0447260834212102e-08 -5.143050429978757e-09 1.0447260834212102e-08 -0.0001536865602247417" pbc="T T T"
Au       2.21235777       1.56437342       3.83191606      -0.00000012       0.00000022       0.00000010
Au       6.63707396       4.69311980      11.49574787       0.00000018       0.00000011      -0.00000053
Ga      -0.00000011       0.00000000       0.00000016       0.00000061       0.00000047      -0.00000043
I        2.26377293       1.60072917       7.66383189      -0.00036171      -0.00025606      -0.00000020
I        6.58565904       4.65676383       7.66383242       0.00036117       0.00025460       0.00000053
I        5.50518746       1.60072871       5.79240027       0.00018063      -0.00025533      -0.00031306
I        3.34424447       4.65676447       9.53526395      -0.00018059       0.00025612       0.00031352
I        3.34424407       4.65676450       5.79240017      -0.00018068       0.00025479      -0.00031242
I        5.50518767       1.60072880       9.53526378       0.00018065      -0.00025506       0.00031233
