9
Lattice="4.674478392473437 -6.031915269230157e-08 2.6988114812477857 1.5581593068686175 4.407140880160627 2.698811655179896 -1.4420835689265696e-07 1.1105175481732977e-07 5.397623212271747" Properties=species:S:1:pos:R:3:forces:R:3 energy=-31.2908935546875 free_energy=-31.2908935546875 stress="0.00022719598200637847 -4.782413043358247e-08 3.915227697603996e-09 -4.782413043358247e-08 0.0002273593854624778 -3.750355581644271e-09 3.915227697603996e-09 -3.750355581644271e-09 0.0002272988494951278" pbc="T T T"
Au       1.55815919       1.10178487       2.69881277      -0.00000121      -0.00000268       0.00000819
Au       4.67447870       3.30535650       8.09643445       0.00000288       0.00000572       0.00000149
Ga      -0.00000027       0.00000006       0.00000057       0.00000267       0.00000346      -0.00000912
F        1.54563514       1.09292956       5.39762315      -0.00312895      -0.00221306      -0.00000382
F        4.68700271       3.31421125       5.39762322       0.00312448       0.00220937      -0.00000080
F        3.90166047       1.09292935       4.03737100       0.00155964      -0.00221270      -0.00270870
F        2.33097709       3.31421174       6.75787448      -0.00156391       0.00221822       0.00270936
F        2.33097683       3.31421134       4.03737104      -0.00156212       0.00220931      -0.00270611
F        3.90166030       1.09292915       6.75787470       0.00156671      -0.00221717       0.00270957
