9
Lattice="6.161833934068692 1.1354828502997817e-07 3.5575375864332055 2.0539449895217947 5.8094349545436454 3.55753717459031 9.097476030450356e-07 1.3888563031174666e-07 7.115073597138267" Properties=species:S:1:pos:R:3:forces:R:3 energy=-20.64727783203125 free_energy=-20.64727783203125 stress="3.667593409772962e-05 5.974169603462087e-09 1.9921587934845775e-08 5.974169603462087e-09 3.677351196529344e-05 -4.912087803177201e-08 1.9921587934845775e-08 -4.912087803177201e-08 3.679463770822622e-05" pbc="T T T"
Au       2.05394430       1.45235857       3.55753595      -0.00000082       0.00000125      -0.00000362
Au       6.16183548       4.35708005      10.67260666       0.00000259       0.00000502      -0.00000742
Ga       0.00000017      -0.00000055       0.00000148       0.00001450       0.00001147      -0.00002417
Cl       1.93206050       1.36617287       7.11507713      -0.00014877      -0.00011000      -0.00000577
Cl       6.28372355       4.44326207       7.11507737       0.00011194       0.00008422      -0.00000236
Cl       5.19580407       1.36617161       5.23074838       0.00006121      -0.00008413      -0.00010735
Cl       3.01997282       4.44326035       8.99939868      -0.00006601       0.00011018       0.00012845
Cl       3.01997298       4.44326322       5.23075091      -0.00005582       0.00009051      -0.00010926
Cl       5.19580520       1.36617341       8.99939718       0.00008130      -0.00010878       0.00013095
