9
Lattice="6.638704331290954 -9.617974798895569e-08 3.8328577291054517 2.212901367385006 6.259030318839729 3.8328577043362784 -3.411244214304049e-08 -5.445708140958742e-08 7.665715517295454" Properties=species:S:1:pos:R:3:forces:R:3 energy=-16.521289825439453 free_energy=-16.521289825439453 stress="-8.994807285489514e-05 -9.773221343323257e-09 -3.045674601409587e-09 -9.773221343323257e-09 -8.99583101272583e-05 -6.857049372754886e-10 -3.045674601409587e-09 -6.857049372754886e-10 -8.994618838187307e-05" pbc="T T T"
Au       2.21290144       1.56475754       3.83285772      -0.00000057      -0.00000028      -0.00000019
Au       6.63870422       4.69427251      11.49857315       0.00000036      -0.00000002      -0.00000007
Ga      -0.00000021      -0.00000011      -0.00000002       0.00000057       0.00000001      -0.00000014
I        2.26359498       1.60060327       7.66571550       0.00279522       0.00197686      -0.00000039
I        6.58801087       4.65842702       7.66571545      -0.00279528      -0.00197706      -0.00000018
I        5.50690685       1.60060327       5.79318839      -0.00139776       0.00197694       0.00242120
I        3.34469884       4.65842691       9.53824260       0.00139713      -0.00197639      -0.00242007
I        3.34469877       4.65842709       5.79318839       0.00139730      -0.00197667       0.00242016
I        5.50690687       1.60060317       9.53824257      -0.00139686       0.00197668      -0.00242026
