9
Lattice="6.160519064757429 -8.88674619322823e-08 3.556777466941016 2.0535063617205083 5.808192674924759 3.55677731004068 6.177515234980729e-08 -1.4848119138179906e-07 7.1135548268842035" Properties=species:S:1:pos:R:3:forces:R:3 energy=-20.64728355407715 free_energy=-20.64728355407715 stress="-1.3647171726915985e-05 7.554912806462255e-10 2.762497253172569e-08 7.554912806462255e-10 -1.3658211173606105e-05 -2.2615132877490396e-08 2.762497253172569e-08 -2.2615132877490396e-08 -1.3682870303455275e-05" pbc="T T T"
Au       2.05350730       1.45204841       3.55677688       0.00000121       0.00000030       0.00000035
Au       6.16051742       4.35614443      10.67033505      -0.00000252       0.00000007       0.00000416
Ga       0.00000024       0.00000013       0.00000038      -0.00000245      -0.00000194      -0.00000154
Cl       1.93196810       1.36610671       7.11355453       0.00099611       0.00070399       0.00000115
Cl       6.28205791       4.44208535       7.11355374      -0.00099635      -0.00070390       0.00000133
Cl       5.19453526       1.36610722       5.22990994      -0.00049680       0.00070453       0.00086278
Cl       3.01948957       4.44208536       8.99719894       0.00050053      -0.00070572      -0.00086534
Cl       3.01949098       4.44208446       5.22990977       0.00049761      -0.00070217       0.00085974
Cl       5.19453538       1.36610777       8.99719936      -0.00049749       0.00070503      -0.00086230
