9
Lattice="6.268140989897969 -2.7232601815283907e-08 3.618912798589473 2.089380284325749 5.909659884812422 3.618912833170152 9.023673917056883e-08 1.0615947160573644e-07 7.237825440884325" Properties=species:S:1:pos:R:3:forces:R:3 energy=-18.644502639770508 free_energy=-18.644502639770508 stress="-1.9285904272692278e-05 3.534473269617422e-10 -5.498397737113692e-09 3.534473269617422e-10 -1.9264161892351694e-05 1.0577255515897832e-08 -5.498397737113692e-09 1.0577255515897832e-08 -1.9260705812484957e-05" pbc="T T T"
Au       2.08938048       1.47741474       3.61891280      -0.00000015      -0.00000066       0.00000044
Au       6.26814106       4.43224511      10.85673848       0.00000070       0.00000049      -0.00000028
Ga      -0.00000019      -0.00000000       0.00000090       0.00000060       0.00000086      -0.00000364
Br       2.06914143       1.46310386       7.23782510       0.00013632       0.00009698      -0.00000175
Br       6.28838005       4.44655617       7.23782542      -0.00013816      -0.00009674      -0.00000156
Br       5.23357057       1.46310360       5.41084175      -0.00006974       0.00009900       0.00011879
Br       3.12395109       4.44655595       9.06480910       0.00006619      -0.00009444      -0.00011778
Br       3.12395083       4.44655644       5.41084144       0.00007096      -0.00009963       0.00012141
Br       5.23357024       1.46310408       9.06480923      -0.00006679       0.00009388      -0.00011548
