9
Lattice="6.241871820770554 4.0437442022456374e-08 3.60374645927662 2.0806239202613064 5.884893539999107 3.6037465599439433 -1.5024550916294717e-07 1.7052236000988943e-08 7.207493178786061" Properties=species:S:1:pos:R:3:forces:R:3 energy=-25.439373016357422 free_energy=-25.439373016357422 stress="-9.60534525802359e-05 -7.71847297187378e-09 3.1926483679001194e-09 -7.71847297187378e-09 -9.604933438822627e-05 -5.85133408392835e-09 3.1926483679001194e-09 -5.85133408392835e-09 -9.598519682185724e-05" pbc="T T T"
Au       2.08062369       1.47122275       3.60374624      -0.00000035      -0.00000054      -0.00000030
Au       6.24187181       4.41367102      10.81123905      -0.00000021       0.00000086      -0.00000041
Ir      -0.00000013      -0.00000004       0.00000035       0.00000333      -0.00000055      -0.00000152
Cl       1.89491090       1.33990330       7.20749334       0.00472704       0.00334263      -0.00000031
Cl       6.42758464       4.54499000       7.20749327      -0.00472623      -0.00334328      -0.00000001
Cl       5.29441667       1.33990460       5.24478698      -0.00236356       0.00334162       0.00409380
Cl       3.02807880       4.54498915       9.17019915       0.00236219      -0.00334147      -0.00409240
Cl       3.02807868       4.54498921       5.24478766       0.00236252      -0.00334165       0.00409374
Cl       5.29441715       1.33990427       9.17019870      -0.00236470       0.00334248      -0.00409305
