9
Lattice="6.487607894717384 1.9315381797555513e-08 3.7456221527971874 2.1625359670517597 6.116575365999994 3.7456221806221786 8.221139689235093e-09 3.9891735987983275e-08 7.491244291354929" Properties=species:S:1:pos:R:3:forces:R:3 energy=-21.683992385864258 free_energy=-21.683992385864258 stress="0.0001075797772500664 1.1912895558907621e-08 2.9564501957679568e-09 1.1912895558907621e-08 0.00010756425763247535 -5.323453233785358e-09 2.9564501957679568e-09 -5.323453233785358e-09 0.00010755543917184696" pbc="T T T"
Au       2.16253596       1.52914379       3.74562217      -0.00000029      -0.00000028      -0.00000023
Au       6.48760792       4.58743162      11.23686642      -0.00000012      -0.00000015      -0.00000047
Ir      -0.00000007      -0.00000014      -0.00000023       0.00000133       0.00000203       0.00000303
I        2.18257825       1.54331587       7.49124431       0.00022433       0.00015921       0.00000033
I        6.46756577       4.57325966       7.49124433      -0.00022495      -0.00016029       0.00000020
I        5.39631869       1.54331575       5.63579032      -0.00011267       0.00016002       0.00019590
I        3.25382514       4.57325964       9.34669845       0.00011345      -0.00016133      -0.00019745
I        3.25382508       4.57325976       5.63579034       0.00011224      -0.00015999       0.00019579
I        5.39631876       1.54331574       9.34669834      -0.00011332       0.00016086      -0.00019712
