9
Lattice="6.295547095309703 -8.305382479603088e-08 3.6347359006287476 2.0985156850383415 5.935498641090733 3.6347357882087437 7.325314835473848e-08 -8.588797216315166e-08 7.2694716743793" Properties=species:S:1:pos:R:3:forces:R:3 energy=-23.28225326538086 free_energy=-23.28225326538086 stress="-9.974081876862328e-06 7.524005418702018e-09 -1.7785577455242674e-09 7.524005418702018e-09 -9.97508777800249e-06 -1.1006234146293536e-08 -1.7785577455242674e-09 -1.1006234146293536e-08 -9.96935250441311e-06" pbc="T T T"
Au       2.09851616       1.48387501       3.63473605       0.00000040       0.00000031       0.00000012
Au       6.29554704       4.45162351      10.90420763       0.00000008      -0.00000026      -0.00000010
Ir       0.00000014       0.00000003      -0.00000027      -0.00000433      -0.00000150       0.00001122
Br       2.03422531       1.43841426       7.26947157       0.00030277       0.00021416       0.00000031
Br       6.35983740       4.49708415       7.26947175      -0.00029965      -0.00021137      -0.00000026
Br       5.27843449       1.43841426       5.39642670      -0.00014932       0.00021121       0.00025784
Br       3.11562801       4.49708444       9.14251681       0.00015308      -0.00021631      -0.00026429
Br       3.11562832       4.49708400       5.39642645       0.00014959      -0.00021149       0.00025810
Br       5.27843453       1.43841417       9.14251686      -0.00015255       0.00021525      -0.00026299
