9
Lattice="9.813044987111898 -8.773722644333362e-08 5.665565004042664 3.2710144488691943 9.251830294903124 5.665565807913551 -6.37894090866442e-07 5.334777081239766e-07 11.331131112950416" Properties=species:S:1:pos:R:3:forces:R:3 energy=-30.146141052246094 free_energy=-30.146141052246094 stress="-1.8466031178832054e-05 -8.469450918369148e-09 5.482456266747704e-09 -8.469450918369148e-09 -1.8458491467754357e-05 -4.6140278264772405e-09 5.482456266747704e-09 -4.6140278264772405e-09 -1.8459802959114313e-05" pbc="T T T"
Au       3.27102081       2.31295787       5.66556437       0.00000007      -0.00000009       0.00000034
Au       9.81304020       6.93887734      16.99669906      -0.00000005      -0.00000019       0.00000020
Mo      -0.00000038      -0.00000049      -0.00000018       0.00000248       0.00000778      -0.00000992
Cl       1.89627170       1.34086800      11.33112874       0.00275758       0.00195052      -0.00000077
Cl      11.18778670       7.91096211      11.33113182      -0.00276622      -0.00195478       0.00000034
Cl       8.86490938       1.34086709       7.30778541      -0.00138031       0.00195253       0.00239131
Cl       4.21914916       7.91096261      15.35447592       0.00137997      -0.00195013      -0.00238958
Cl       4.21915187       7.91096281       7.30778562       0.00138152      -0.00195263       0.00239214
Cl       8.86490576       1.34086691      15.35447544      -0.00137495       0.00194700      -0.00238395
