9
Lattice="6.7210690636491615 3.7712577341874716e-08 3.880411014475617 2.2403563200942402 6.336684759352272 3.8804111357386835 -5.580120114811351e-08 1.0905885639956577e-07 7.760822125601862" Properties=species:S:1:pos:R:3:forces:R:3 energy=-23.91758155822754 free_energy=-23.91758155822754 stress="-3.732229379238561e-05 -2.565594670045357e-08 -9.488270613644545e-09 -2.565594670045357e-08 -3.731245669769123e-05 4.990662105797128e-09 -9.488270613644545e-09 4.990662105797128e-09 -3.7290574255166575e-05" pbc="T T T"
Au       2.24035653       1.58417122       3.88041106      -0.00000001       0.00000019       0.00000029
Au       6.72106888       4.75251363      11.64123336       0.00000022      -0.00000010      -0.00000030
Mo      -0.00000013      -0.00000045      -0.00000092       0.00000191       0.00000687       0.00000806
I        2.24907775       1.59033828       7.76082187      -0.00190625      -0.00134762       0.00000071
I        6.71234815       4.74634679       7.76082213       0.00190052       0.00134447       0.00000021
I        5.59652957       1.59033879       5.82817022       0.00095648      -0.00135127      -0.00165492
I        3.36489498       4.74634694       9.69347494      -0.00095096       0.00134479       0.00164732
I        3.36489510       4.74634616       5.82816944      -0.00095339       0.00134884      -0.00165084
I        5.59653046       1.59033829       9.69347499       0.00095153      -0.00134607       0.00164950
