9
Lattice="4.776650148994338 9.236011729831279e-08 2.7578009021515486 1.59221702351994 4.503467846279886 2.7578005209092886 7.253633731003567e-07 4.5984708355469054e-08 5.5156005479370505" Properties=species:S:1:pos:R:3:forces:R:3 energy=-24.154356002807617 free_energy=-24.154356002807617 stress="-0.0001736391131998971 -5.3799425359102315e-08 -6.356424933073868e-07 -5.3799425359102315e-08 -0.0001742476742947474 -4.6215509996727633e-07 -6.356424933073868e-07 -4.6215509996727633e-07 -0.0001738231658237055" pbc="T T T"
Au       1.59222098       1.12586177       2.75779191       0.00002946      -0.00003544      -0.00006819
Au       4.77665339       3.37760107       8.27337575       0.00001678      -0.00000110      -0.00018195
N       -0.00000085       0.00000059       0.00000494      -0.00000066       0.00000840       0.00004104
F        1.40188287       0.99128285       5.51560563       0.00318062       0.00226885       0.00003677
F        4.96698250       3.51218713       5.51561050      -0.00319469      -0.00224844       0.00006399
F        4.07570746       0.99127791       3.97187162      -0.00159994       0.00223011       0.00278682
F        2.29316275       3.51218733       7.05933751       0.00160944      -0.00226790      -0.00274330
F        2.29315697       3.51218914       3.97187230       0.00156921      -0.00223625       0.00279576
F        4.07570533       0.99128314       7.05933961      -0.00161019       0.00228205      -0.00273025
