9
Lattice="9.602358888516978 6.549846684125553e-06 5.543942380626113 3.2007902645542834 9.053182586705052 5.543946203032227 1.918427749467042e-06 6.03801167212203e-06 11.087881438434318" Properties=species:S:1:pos:R:3:forces:R:3 energy=-19.052000045776367 free_energy=-19.052000045776367 stress="-2.4530807422706857e-05 1.75654921719115e-08 6.478254377384474e-09 1.75654921719115e-08 -2.4592847694293596e-05 -6.363414656318511e-11 6.478254377384474e-09 -6.363414656318511e-11 -2.4581264369771816e-05" pbc="T T T"
Au       3.20086678       2.26329257       5.54392751      -0.00000177       0.00000009      -0.00000006
Au       9.60236342       6.78991225      16.63183259       0.00000009      -0.00000029      -0.00000013
N       -0.00001049      -0.00000205       0.00000136      -0.00000685       0.00000252      -0.00000603
Cl       1.72813785       1.22202092      11.08788899       0.00204945       0.00145461      -0.00000497
Cl      11.07498968       7.83117360      11.08788834      -0.00203314      -0.00144826      -0.00000164
Cl       8.73824451       1.22199065       7.04056681      -0.00102198       0.00145468       0.00178096
Cl       4.06488077       7.83119927      15.13520446       0.00102682      -0.00145595      -0.00178042
Cl       4.06487561       7.83120314       7.04058205       0.00101583      -0.00145942       0.00178581
Cl       8.73826414       1.22198980      15.13518508      -0.00102846       0.00145207      -0.00177369
