9
Lattice="9.749657203884889 1.6886023590707484e-06 5.628971022513644 3.249888123511603 9.192073775079205 5.628969642314472 7.027558161649925e-07 -1.1934674241981175e-06 11.257940827818777" Properties=species:S:1:pos:R:3:forces:R:3 energy=-19.052249908447266 free_energy=-19.052249908447266 stress="-1.1044588063668925e-05 1.4542822945884382e-08 8.912488524970286e-09 1.4542822945884382e-08 -1.1076109331042971e-05 7.088039932767742e-09 8.912488524970286e-09 7.088039932767742e-09 -1.1063478268624749e-05" pbc="T T T"
Au       3.24989672       2.29802349       5.62897252       0.00000014       0.00000012       0.00000019
Au       9.74963859       6.89409046      16.88689669       0.00000006       0.00000035      -0.00000004
N        0.00000380      -0.00000495       0.00000258      -0.00002582      -0.00001968      -0.00005020
Cl       1.72817337       1.22198750      11.25794369       0.00195837       0.00138339      -0.00000732
Cl      11.27137663       7.97007712      11.25794077      -0.00194833      -0.00138412      -0.00000177
Cl       8.88558182       1.22199404       7.12561008      -0.00099345       0.00140782       0.00171414
Cl       4.11397329       7.97006625      15.39027572       0.00096947      -0.00136559      -0.00167879
Cl       4.11396521       7.97006597       7.12560715       0.00099793      -0.00140055       0.00170845
Cl       8.88557550       1.22199291      15.39027901      -0.00095828       0.00137830      -0.00168455
