9
Lattice="6.58069596879167 2.9829100987692384e-08 3.799366584054485 2.1935653666860464 6.20433957024597 3.799366556978474 1.1373758906532534e-08 -2.5118756777408043e-08 7.598733148409022" Properties=species:S:1:pos:R:3:forces:R:3 energy=-17.440200805664062 free_energy=-17.440200805664062 stress="-3.233212191844359e-05 1.878553090861601e-09 -5.929353674716253e-10 1.878553090861601e-09 -3.2339434255845845e-05 1.3825974809478225e-09 -5.929353674716253e-10 1.3825974809478225e-09 -3.2337105949409306e-05" pbc="T T T"
Au       2.19356533       1.55108486       3.79936657      -0.00000006      -0.00000011      -0.00000011
Au       6.58069597       4.65325469      11.39809962       0.00000033      -0.00000018       0.00000010
P       -0.00000018       0.00000009      -0.00000020       0.00000015       0.00000008       0.00000028
I        2.24613002       1.58825374       7.59873315      -0.00045627      -0.00032257       0.00000024
I        6.52813155       4.61608596       7.59873321       0.00045580       0.00032233      -0.00000023
I        5.45763114       1.58825369       5.74457211       0.00022854      -0.00032213      -0.00039537
I        3.31663018       4.61608584       9.45289422      -0.00022827       0.00032242       0.00039512
I        3.31663008       4.61608588       5.74457217      -0.00022821       0.00032249      -0.00039515
I        5.45763127       1.58825350       9.45289435       0.00022797      -0.00032234       0.00039507
