9
Lattice="6.647613996471775 -4.3491002794985144e-08 3.8380016136634056 2.2158713114002855 6.26743064858312 3.838001578595011 -2.993735698045633e-08 -6.411878094296056e-08 7.676003279179826" Properties=species:S:1:pos:R:3:forces:R:3 energy=-19.616329193115234 free_energy=-19.616329193115234 stress="4.486474608711433e-06 1.7074394120797365e-09 3.98819510749604e-09 1.7074394120797365e-09 4.517682100413367e-06 9.926526267634017e-10 3.98819510749604e-09 9.926526267634017e-10 4.530710612016264e-06" pbc="T T T"
Au       2.21587257       1.56686006       3.83799961       0.00000005      -0.00000005       0.00000015
Au       6.64761373       4.70057143      11.51400520      -0.00000001       0.00000023      -0.00000006
P        0.00000045      -0.00000081      -0.00000013      -0.00000278       0.00000360       0.00000046
Br       1.93344583       1.36715262       7.67600423      -0.00023258      -0.00016430      -0.00000110
Br       6.93003921       4.90027694       7.67600318       0.00023246       0.00016406       0.00000004
Br       5.68088989       1.36715275       5.51241520       0.00011629      -0.00016496      -0.00020215
Br       3.18259481       4.90027802       9.83959148      -0.00011545       0.00016385       0.00020170
Br       3.18259424       4.90027783       5.51241596      -0.00011593       0.00016353      -0.00020245
Br       5.68089058       1.36715329       9.83959106       0.00011778      -0.00016618       0.00020370
