9
Lattice="6.44063545306907 1.4455844023972489e-06 3.7185036178995787 2.1468796946366235 6.072291197559429 3.718503882261897 6.300490628753363e-07 7.692886596479954e-07 7.437006144522805" Properties=species:S:1:pos:R:3:forces:R:3 energy=-36.89862060546875 free_energy=-36.89862060546875 stress="-2.2887903469381854e-05 -1.0976341258128741e-07 5.909443245855073e-08 -1.0976341258128741e-07 -2.3040422092890367e-05 -1.2234425916801683e-08 5.909443245855073e-08 -1.2234425916801683e-08 -2.3550550395157188e-05" pbc="T T T"
Au       2.14688534       1.51806991       3.71850217      -0.00000373      -0.00000019       0.00000453
Au       6.44062795       4.55422302      11.15552514      -0.00000020      -0.00000108       0.00000259
P        0.00002179       0.00000552      -0.00004299      -0.00117712      -0.00033311       0.00225548
F        1.33964720       0.94727589       7.43700637       0.00030828       0.00020635      -0.00006454
F        7.24785103       5.12500977       7.43700760       0.00054717       0.00035262      -0.00005565
F        5.77079940       0.94728635       4.87868813       0.00042605      -0.00052643      -0.00068760
F        2.81670134       5.12501831       9.99534758       0.00029576      -0.00035393      -0.00056243
F        2.81671450       5.12500495       4.87868249      -0.00027037       0.00041294      -0.00051188
F        5.77081187       0.94727581       9.99534317      -0.00012636       0.00024402      -0.00038040
