9
Lattice="6.309864602651001 -1.7076230894791425e-08 3.6430017493500992 2.103288175050074 5.948997254320083 3.6430017662098764 -1.881162747815106e-07 -1.1236939922000841e-07 7.286003824527141" Properties=species:S:1:pos:R:3:forces:R:3 energy=-23.832178115844727 free_energy=-23.832178115844727 stress="-9.278848665417172e-06 -5.603360442307803e-09 -1.0430795782667701e-08 -5.603360442307803e-09 -9.265526387025602e-06 7.103958310494818e-09 -1.0430795782667701e-08 7.103958310494818e-09 -9.262074854632374e-06" pbc="T T T"
Au       2.10328766       1.48724906       3.64300207      -0.00000049      -0.00000042       0.00000035
Au       6.30986478       4.46174816      10.92900496       0.00000042       0.00000023      -0.00000061
Ru       0.00000006       0.00000013      -0.00000016       0.00000126       0.00000051      -0.00000257
Br       2.03432659       1.43848620       7.28600373      -0.00025403      -0.00017966      -0.00000013
Br       6.37882605       4.51051095       7.28600365       0.00025234       0.00017919      -0.00000007
Br       5.29270116       1.43848640       5.40478045       0.00012694      -0.00017968      -0.00022003
Br       3.12045157       4.51051076       9.16722701      -0.00012764       0.00018087       0.00022140
Br       3.12045132       4.51051072       5.40478040      -0.00012609       0.00017878      -0.00021847
Br       5.29270107       1.43848610       9.16722704       0.00012726      -0.00017977       0.00022012
