9
Lattice="6.483776736303633 -1.346101556083932e-08 3.7434102660875253 2.1612588669027817 6.1129633920577735 3.7434103223917283 -5.2021032169873004e-08 3.217389219683509e-08 7.486820622278076" Properties=species:S:1:pos:R:3:forces:R:3 energy=-20.80702781677246 free_energy=-20.80702781677246 stress="0.00014430235023610294 -7.857252626308764e-09 3.5371152673491224e-09 -7.857252626308764e-09 0.0001443006913177669 -8.40336866758662e-09 3.5371152673491224e-09 -8.40336866758662e-09 0.00014430472219828516" pbc="T T T"
Au       2.16125895       1.52824087       3.74341024       0.00000005       0.00000002       0.00000014
Au       6.48377663       4.58472243      11.23023086      -0.00000011      -0.00000007       0.00000001
Rh      -0.00000014       0.00000000       0.00000023       0.00000149       0.00000029      -0.00000052
I        2.17618611       1.53879611       7.48682050       0.00063960       0.00045212       0.00000012
I        6.46884945       4.57416743       7.48682062      -0.00064025      -0.00045296       0.00000001
I        5.39568347       1.53879627       5.62804285      -0.00032003       0.00045256       0.00055323
I        3.24935208       4.57416721       9.34559814       0.00031974      -0.00045251      -0.00055307
I        3.24935203       4.57416727       5.62804303       0.00031934      -0.00045165       0.00055319
I        5.39568360       1.53879605       9.34559835      -0.00031985       0.00045222      -0.00055316
