9
Lattice="7.303585440682898 -8.991916474886882e-07 4.216726416732927 2.4345280569068395 6.885882997875841 4.216725681572432 9.94655605977142e-09 -8.933507103790088e-07 8.433452816237924" Properties=species:S:1:pos:R:3:forces:R:3 energy=-35.85741424560547 free_energy=-35.85741424560547 stress="1.6820987411847454e-06 3.7769940064436014e-08 -9.923509480813664e-08 3.7769940064436014e-08 1.6400134654759313e-06 1.4605569731429568e-07 -9.923509480813664e-08 1.4605569731429568e-07 1.6061933365563164e-06" pbc="T T T"
Au       2.43452934       1.72147231       4.21671932       0.00000172       0.00000215       0.00000191
Au       7.30359013       5.16441274      12.65017976       0.00000153       0.00000153       0.00000107
Ru      -0.00003743      -0.00004109      -0.00003246       0.00176550       0.00193771       0.00158491
F        1.54648592       1.09352802       8.43345249       0.00064877       0.00044221      -0.00003646
F        8.19166769       5.79238235       8.43345344      -0.00253358      -0.00180870      -0.00003564
F        6.53034747       1.09352557       5.55601506      -0.00056389       0.00069526       0.00087273
F        3.20775316       5.79237338      11.31091193       0.00101843      -0.00154239      -0.00187138
F        3.20776217       5.79236392       5.55600863       0.00063887      -0.00100687       0.00114316
F        6.53035719       1.09350927      11.31090803      -0.00097713       0.00127941      -0.00166038
