9
Lattice="6.2289966288971454 1.1934170966495148e-07 3.596312887960279 2.0763323322310794 5.872754364886539 3.5963128704972975 1.2728435748789263e-07 6.861592253883029e-08 7.1926255554575755" Properties=species:S:1:pos:R:3:forces:R:3 energy=-22.27452850341797 free_energy=-22.27452850341797 stress="-0.0001914706517709419 6.099704741302503e-09 -7.3356249963296705e-09 6.099704741302503e-09 -0.00019146292470395565 4.603565084693173e-09 -7.3356249963296705e-09 4.603565084693173e-09 -0.00019148127466905862" pbc="T T T"
Au       2.07633215       1.46818871       3.59631279      -0.00000014       0.00000018      -0.00000012
Au       6.22899676       4.40456581      10.78893892      -0.00000023      -0.00000036       0.00000017
Rh       0.00000004      -0.00000016      -0.00000011      -0.00000211      -0.00000065       0.00000039
Br       2.02747320       1.43363989       7.19262556       0.00111559       0.00078892       0.00000037
Br       6.27785600       4.43911471       7.19262550      -0.00111371      -0.00078778      -0.00000016
Br       5.21526016       1.43363998       5.35215602      -0.00055681       0.00078849       0.00096504
Br       3.09006896       4.43911463       9.03309525       0.00055787      -0.00078925      -0.00096633
Br       3.09006882       4.43911455       5.35215584       0.00055781      -0.00078918       0.00096680
Br       5.21526028       1.43364010       9.03309540      -0.00055834       0.00078965      -0.00096608
