9
Lattice="6.887039829745339 2.779995892504214e-07 3.9762340746359555 2.2956802116331816 6.493163401569943 3.9762340637513724 3.481525426816788e-08 1.1287268868555804e-08 7.952468088970168" Properties=species:S:1:pos:R:3:forces:R:3 energy=-17.644025802612305 free_energy=-17.644025802612305 stress="-5.292279092827812e-05 4.890896221354524e-08 2.343975902263651e-09 4.890896221354524e-08 -5.296299423207529e-05 -4.791406382764762e-09 2.343975902263651e-09 -4.791406382764762e-09 -5.299425538396463e-05" pbc="T T T"
Au       2.29567987       1.62329091       3.97623407       0.00000021       0.00000017      -0.00000033
Au       6.88704013       4.86987260      11.92870212       0.00000028      -0.00000027       0.00000050
Sb       0.00000074       0.00000026       0.00000079      -0.00000636      -0.00000259      -0.00000244
I        2.41821536       1.70993685       7.95246796       0.00138628       0.00097981       0.00000049
I        6.76450453       4.78322681       7.95246788      -0.00138277      -0.00097725       0.00000009
I        5.67793244       1.70993629       6.07046917      -0.00069422       0.00098252       0.00120288
I        3.50478727       4.78322748       9.83446700       0.00069508      -0.00098170      -0.00120264
I        3.50478716       4.78322748       6.07046894       0.00069542      -0.00098222       0.00120343
I        5.67793273       1.70993612       9.83446697      -0.00069396       0.00098160      -0.00120199
