9
Lattice="7.328948272340436 -7.764170063279133e-07 4.231370840519144 2.4429822265675005 6.909797376423531 4.231370492145316 -6.035168413043895e-07 -8.534197764929368e-07 8.462742726360531" Properties=species:S:1:pos:R:3:forces:R:3 energy=-34.41035842895508 free_energy=-34.41035842895508 stress="-4.479911513044499e-05 1.758394674311603e-08 1.3032420476122297e-08 1.758394674311603e-08 -4.480975621845573e-05 -1.4838394513105868e-08 1.3032420476122297e-08 -1.4838394513105868e-08 -4.484807141125202e-05" pbc="T T T"
Au       2.44298208       1.72744707       4.23137174       0.00000032       0.00000036       0.00000025
Au       7.32894703       5.18234879      12.69411301       0.00000005      -0.00000064      -0.00000039
Sb      -0.00000035       0.00000052      -0.00000285       0.00002058      -0.00002913       0.00014071
F        1.57786405       1.11571832       8.46274209       0.00377119       0.00266701      -0.00000294
F        8.19406602       5.79407732       8.46274163      -0.00376940      -0.00266558      -0.00000270
F        6.54001655       1.11571816       5.59784290      -0.00187653       0.00265265       0.00324607
F        3.23191388       5.79407808      11.32764219       0.00189906      -0.00268704      -0.00329524
F        3.23191592       5.79407765       5.59784224       0.00186312      -0.00263566       0.00322419
F        6.54001501       1.11571681      11.32764394      -0.00190842       0.00269783      -0.00330949
