9
Lattice="7.138202380075083 3.311048612769956e-07 4.121243665946796 2.3794009768638 6.729962072780341 4.121243888797998 -5.6761397426092644e-08 2.3279952043595354e-07 8.24248743020722" Properties=species:S:1:pos:R:3:forces:R:3 energy=-34.5087890625 free_energy=-34.5087890625 stress="-5.431253885035403e-05 -7.799424217580508e-09 9.597529881943956e-09 -7.799424217580508e-09 -5.43211426702328e-05 5.281953985303289e-09 9.597529881943956e-09 5.281953985303289e-09 -5.433310070657171e-05" pbc="T T T"
Au       2.37940033       1.68248868       4.12124298      -0.00000008       0.00000028       0.00000011
Au       7.13820136       5.04747244      12.36373422      -0.00000011       0.00000009      -0.00000025
Ta       0.00000020       0.00000031      -0.00000055       0.00000318      -0.00000175       0.00001339
Cl       1.92910062       1.36408004       8.24248779       0.00009474       0.00006716      -0.00000104
Cl       7.58850274       5.36588355       8.24248711      -0.00009614      -0.00006816       0.00000101
Cl       6.17365237       1.36408091       5.79189295      -0.00004640       0.00006416       0.00008078
Cl       3.34395131       5.36588230      10.69308163       0.00004980      -0.00006917      -0.00008623
Cl       3.34395137       5.36588183       5.79189344       0.00004424      -0.00006396       0.00007968
Cl       6.17365288       1.36408051      10.69308069      -0.00004917       0.00007130      -0.00008745
