9
Lattice="6.853093337119746 5.90577925357484e-08 3.9566355410236467 2.284364424249993 6.461158833312499 3.9566356746284774 -2.0978149601715132e-07 1.5293909653321438e-08 7.91327144539953" Properties=species:S:1:pos:R:3:forces:R:3 energy=-30.717369079589844 free_energy=-30.717369079589844 stress="-0.0001865235681179911 -5.224475518872396e-09 -2.9071447471551437e-09 -5.224475518872396e-09 -0.00018650692072696984 1.8999928297347424e-09 -2.9071447471551437e-09 1.8999928297347424e-09 -0.00018649740377441049" pbc="T T T"
Au       2.28436397       1.61528909       3.95663511      -0.00000001      -0.00000035      -0.00000007
Au       6.85309314       4.84586914      11.86990686      -0.00000002      -0.00000013      -0.00000015
Ta       0.00000009       0.00000035       0.00000014       0.00000054      -0.00000222       0.00000222
Br       2.06400559       1.45947258       7.91327150       0.00298155       0.00210750       0.00000057
Br       7.07345215       5.00168654       7.91327137      -0.00298085      -0.00210696       0.00000019
Br       5.82109027       1.45947256       5.74411720      -0.00149024       0.00210677       0.00258052
Br       3.31636730       5.00168652      10.08242570       0.00149078      -0.00210740      -0.00258076
Br       3.31636747       5.00168626       5.74411722       0.00148969      -0.00210560       0.00257929
Br       5.82109024       1.45947272      10.08242575      -0.00149137       0.00210845      -0.00258188
