9
Lattice="9.680378438907162 7.114772985436144e-06 5.589033633579436 3.226868028780103 9.126714101549668 5.588914973273469 9.551744129504517e-05 -7.778715273795509e-05 11.17790182494425" Properties=species:S:1:pos:R:3:forces:R:3 energy=-47.440650939941406 free_energy=-47.440650939941406 stress="5.202147690397396e-07 -2.105071416735882e-06 3.4659776702028466e-06 -2.105071416735882e-06 3.1169129215413705e-06 -4.217364676151192e-06 3.4659776702028466e-06 -4.217364676151192e-06 4.570826149574714e-06" pbc="T T T"
Au       3.22681156       2.28168090       5.58898588       0.00000017      -0.00000053      -0.00000026
Au       9.68045600       6.84500216      16.76692174       0.00000113       0.00000034      -0.00000071
Ta      -0.00011636       0.00006924       0.00010381      -0.00099359       0.00051233       0.00079766
F        1.58353795       1.11942462      11.17778914       0.00026828       0.00076482       0.00040461
F       11.32381807       8.00681721      11.17778082       0.00035989       0.00115675       0.00060524
F        8.88864220       1.11991122       6.96058373       0.00050586      -0.00148356      -0.00165915
F        4.01859136       8.00715886      15.39573215       0.00077921      -0.00129566      -0.00154757
F        4.01878573       8.00689707       6.96016616      -0.00157195       0.00178456      -0.00131559
F        8.88883714       1.11961804      15.39533772       0.00065103      -0.00143886       0.00271559
