9
Lattice="7.01305195350661 2.6269108007010643e-08 4.048987449517502 2.337683989302811 6.6119686527239425 4.048987484099799 1.2949016961671883e-08 5.151090641586344e-08 8.09797487660668" Properties=species:S:1:pos:R:3:forces:R:3 energy=-27.079647064208984 free_energy=-27.079647064208984 stress="-1.1434619409556035e-05 -5.980640871428022e-09 -6.137055752475362e-09 -5.980640871428022e-09 -1.1438144611020107e-05 9.510945808699489e-09 -6.137055752475362e-09 9.510945808699489e-09 -1.1431584425736219e-05" pbc="T T T"
Au       2.33768400       1.65299215       4.04898742       0.00000009       0.00000009      -0.00000018
Au       7.01305206       4.95897664      12.14696226      -0.00000004      -0.00000003       0.00000004
Ta      -0.00000003      -0.00000006       0.00000035       0.00000096       0.00000233      -0.00000091
I        2.24604442       1.58819319       8.09797466       0.00021652       0.00015347       0.00000011
I        7.10469174       5.02377556       8.09797478      -0.00021864      -0.00015497       0.00000001
I        5.89002957       1.58819351       5.99411911      -0.00010759       0.00015254       0.00018703
I        3.46070619       5.02377526      10.20183085       0.00010779      -0.00015290      -0.00018707
I        3.46070621       5.02377537       5.99411921       0.00010885      -0.00015380       0.00018854
I        5.89002965       1.58819335      10.20183057      -0.00010787       0.00015330      -0.00018759
