9
Lattice="9.989459912286474 1.008253764408671e-06 5.767419313759647 3.3298203184457273 9.418153585784083 5.767420358024702 4.209122759708082e-07 1.5765841611445696e-06 11.534837898484925" Properties=species:S:1:pos:R:3:forces:R:3 energy=-25.293550491333008 free_energy=-25.293550491333008 stress="-3.5643151932163164e-05 3.364992551269097e-08 1.2750499323033182e-08 3.364992551269097e-08 -3.5607514291768894e-05 5.810683045837095e-09 1.2750499323033182e-08 5.810683045837095e-09 -3.562460915418342e-05" pbc="T T T"
Au       3.32982273       2.35454017       5.76741732      -0.00000078      -0.00000033       0.00000098
Au       9.98945793       7.06361306      17.30225505       0.00000222      -0.00000027       0.00000103
Y       -0.00000099      -0.00000265      -0.00000127      -0.00000185       0.00000588      -0.00000516
I        2.48176163       1.75487994      11.53484447       0.00069432       0.00048473      -0.00000718
I       10.83751118       7.66327902      11.53484490      -0.00068539      -0.00048375      -0.00000289
I        8.74858593       1.75487434       7.91669095      -0.00035634       0.00049311       0.00060536
I        4.57069957       7.66327949      15.15298224       0.00034566      -0.00048533      -0.00059745
I        4.57070505       7.66328288       7.91669087       0.00034837      -0.00049701       0.00060262
I        8.74857887       1.75487885      15.15298456      -0.00034624       0.00048296      -0.00059728
