9
Lattice="9.83187643201367 1.407661679466891e-07 5.676438160896016 3.2772915519433914 9.26958613837894 5.676439416244775 -8.933547573435749e-07 9.05785112033607e-07 11.35287786912824" Properties=species:S:1:pos:R:3:forces:R:3 energy=-30.49540138244629 free_energy=-30.49540138244629 stress="-5.1130791689502075e-05 -3.5825227229224765e-09 8.44562997315279e-09 -3.5825227229224765e-09 -5.112051439937204e-05 1.5765349026253261e-09 8.44562997315279e-09 1.5765349026253261e-09 -5.1133443776052445e-05" pbc="T T T"
Au       3.27729763       2.31739867       5.67644277      -0.00000094       0.00000033      -0.00000050
Au       9.83187389       6.95219680      17.02931550       0.00000007      -0.00000038      -0.00000014
Y       -0.00000057      -0.00000060       0.00000017      -0.00000046      -0.00000202       0.00000340
Cl       2.17987410       1.54140568      11.35287437       0.00279135       0.00197628       0.00000053
Cl      10.92929552       7.72817520      11.35287675      -0.00279415      -0.00197297       0.00000251
Cl       8.74193451       1.54140748       7.56426273      -0.00139330       0.00197095       0.00241745
Cl       4.36723060       7.72818031      15.14149329       0.00139761      -0.00197539      -0.00242189
Cl       4.36722965       7.72818448       7.56427044       0.00139460      -0.00197208       0.00241807
Cl       8.74193337       1.54140105      15.14148733      -0.00139487       0.00197527      -0.00241956
