9
Lattice="6.669887619771253 6.5433976363135346e-09 3.850861426841429 2.2232958971860373 6.288430398371107 3.850861396080601 1.3358389825827992e-07 5.678391260456699e-08 7.701722622308733" Properties=species:S:1:pos:R:3:forces:R:3 energy=-27.0247859954834 free_energy=-27.0247859954834 stress="-7.597051444463432e-05 2.7585804751595333e-09 -3.581330787483239e-09 2.7585804751595333e-09 -7.59687609388493e-05 8.788040517515583e-09 -3.581330787483239e-09 8.788040517515583e-09 -7.598438969580457e-05" pbc="T T T"
Au       2.22329596       1.57210761       3.85086130      -0.00000020      -0.00000006      -0.00000016
Au       6.66988765       4.71632287      11.55258421      -0.00000000       0.00000031       0.00000063
Y        0.00000013      -0.00000041       0.00000070      -0.00000229       0.00000337      -0.00000546
Br       2.27697270       1.61006308       7.70172249      -0.00081520      -0.00057654       0.00000024
Br       6.61621100       4.67836727       7.70172283       0.00081524       0.00057606      -0.00000020
Br       5.53140128       1.61006285       5.82277759       0.00040732      -0.00057597      -0.00070623
Br       3.36178238       4.67836774       9.58066793      -0.00040779       0.00057682       0.00070688
Br       3.36178216       4.67836789       5.82277760      -0.00040553       0.00057392      -0.00070356
Br       5.53140130       1.61006301       9.58066711       0.00040848      -0.00057805       0.00070791
