9
Lattice="5.1122213411157995 1.524194298756088e-07 2.951542855360442 1.7040739494297645 4.8198483605540705 2.9515428114435323 2.152239276942439e-07 9.839931456446582e-08 5.903085337942124" Properties=species:S:1:pos:R:3:forces:R:3 energy=-37.90744400024414 free_energy=-37.90744400024414 stress="0.00046740210382267833 -4.6315623336568024e-08 1.7913825089976854e-08 -4.6315623336568024e-08 0.0004674518422689289 1.3061036696626616e-08 1.7913825089976854e-08 1.3061036696626616e-08 0.0004672348441090435" pbc="T T T"
Au       1.70407302       1.20495903       2.95154332      -0.00000894      -0.00002136       0.00000387
Au       5.11222523       3.61488679       8.85463171       0.00002539       0.00000385       0.00002461
Y        0.00000005       0.00000005       0.00000004      -0.00000271      -0.00000168       0.00000854
F        1.76447382       1.24767197       5.90308466      -0.00439204      -0.00309804      -0.00000294
F        5.05182031       3.57217791       5.90308406       0.00438726       0.00311185      -0.00001035
F        4.22998454       1.24767214       4.47962217       0.00219775      -0.00310364      -0.00380360
F        2.58630977       3.57217811       7.32654739      -0.00220354       0.00310828       0.00378571
F        2.58631073       3.57217770       4.47962290      -0.00219798       0.00311051      -0.00379717
F        4.22998455       1.24767080       7.32654781       0.00219488      -0.00310953       0.00379145
