9
Lattice="3.155006132682258 1.4656561957647058 3.4420504851466758 0.8323048699806596 4.559395221655387 4.457008527005782 -0.6215730801867259 1.6450092450192644 3.743346787955953" Properties=species:S:1:pos:R:3:forces:R:3 energy=-828815936.0 free_energy=-828815936.0 stress="68629312.0 3791408.75 -35858860.0 3791408.75 -43113768.0 27644744.0 -35858860.0 27644744.0 -31968486.0" pbc="T T T"
B       -2.57318624       1.66884482      -0.38812854 4805407232.00000000 -2308430080.00000000 3188200704.00000000
B        0.10688125       4.86028311       6.74626057 77181501440.00000000 449629952.00000000 -28977760256.00000000
C       -0.10196225      -1.36432706      -1.44583495 -86975602688.00000000 2081747584.00000000 27080206336.00000000
Cl      -0.05727066       1.54152096       3.29311294 -28023984.00000000 -247632640.00000000 37146592.00000000
Cl       0.45937402       1.57127860       2.81844306 -77443848.00000000 -38008384.00000000 -53046712.00000000
Cl       2.94773439      -1.60702200       2.07479637 -214053360.00000000 19137600.00000000 246489344.00000000
Cl       0.53143588       1.99540924       3.91821894 -71448864.00000000 -413399840.00000000 153525536.00000000
Cl       0.29688448       2.91730780       3.23779539 5129133056.00000000 770964736.00000000 -1951554048.00000000
Cl       2.56468238       0.41487175       6.14400839 250547360.00000000 -314007296.00000000 276794336.00000000
