9
Lattice="2.8512412459130445 1.513338903822733 2.4873043279921356 0.9300760034622209 2.793671873942937 1.8315139227677628 -0.11399364364838502 2.380232683058083 2.4817418511040685" Properties=species:S:1:pos:R:3:forces:R:3 energy=371131219968.0 free_energy=371131219968.0 stress="0.0 0.0 0.0 0.0 0.0 0.0 0.0 0.0 0.0" pbc="T T T"
B        0.44674042       0.33205277       0.74961642 -666058162176.00000000 894797348864.00000000 -330879434752.00000000
B        4.18614200       1.09623892       2.73194869 243356631040.00000000 362235592704.00000000 683280760832.00000000
C        0.94648244      -2.22469343      -1.86614141 314934198272.00000000 1404878585856.00000000 418523742208.00000000
F        2.72627764       1.84875483       3.51076485 -693636038656.00000000 -3320336351232.00000000 83237863424.00000000
F        1.98444461       3.88478410       2.35523262 -1357823868928.00000000 18393595904.00000000 350411325440.00000000
F        3.44144364       2.53188742       2.35937894 -265029287936.00000000 924165079040.00000000 260349362176.00000000
F        3.93331198       4.68985482       5.17534101 -6148432330752.00000000 5665976221696.00000000 107163353088.00000000
F        2.58513612       2.24047816       2.87186722 -344210833408.00000000 261294030848.00000000 472242388992.00000000
F        3.03665892       1.97522783       3.29033320 8916898414592.00000000 -6211410853888.00000000 -2044331163648.00000000
