9
Lattice="5.2623176705848715 2.0713354806482145 1.9885084484111033 2.0794478857329346 5.114140418221168 2.0372088376906343 -2.5679282217737085 1.4482658694493595 3.7460543057280487" Properties=species:S:1:pos:R:3:forces:R:3 energy=-521100160.0 free_energy=-521100160.0 stress="2170434.0 555286.8125 2418416.25 555286.8125 13105727.0 -3511522.75 2418416.25 -3511522.75 9332957.0" pbc="T T T"
B        3.28951127       2.14927313       2.16375568 294593600.00000000 -697392960.00000000 596338048.00000000
B        1.34860202       7.60315211      11.06762573 -31956488.00000000 5646804.00000000 -31090982.00000000
C        1.71076540      -2.83465928       4.69357489 -18973980.00000000 49897672.00000000 7848325.50000000
I        1.17991694       3.89889417       6.75006438 -375461248.00000000 -328763232.00000000 -787270272.00000000
I        5.45817200       6.40181505       4.41653496 -1896368384.00000000 2020876160.00000000 -693273152.00000000
I        6.68076814       5.78921698       7.51967856 -464704832.00000000 4957596.00000000 311733856.00000000
I       -1.57822541       4.34544056       4.61981025 14461904.00000000 -75621000.00000000 -79181800.00000000
I        5.46495672       6.50680304       4.39738282 2169930240.00000000 -716761536.00000000 622721024.00000000
I        0.98168259       4.17137166       5.83396020 308479008.00000000 -262839408.00000000 52174984.00000000
