9
Lattice="4.16067295517369 -0.09908859666318125 2.765723029505681 0.9678969977424181 3.6483844302802955 2.926506274164697 -0.3220558477407648 0.9923013665839202 4.955113299536873" Properties=species:S:1:pos:R:3:forces:R:3 energy=-1183307008.0 free_energy=-1183307008.0 stress="35534572.0 7151691.5 29341574.0 7151691.5 -29184280.0 -12372642.0 29341574.0 -12372642.0 17147910.0" pbc="T T T"
B       -0.46811324       2.63963136      -4.54319363 178187376.00000000 -140252800.00000000 -172451232.00000000
B        3.29072424       3.74673953      -0.57429068 65233148.00000000 11020195.00000000 -43289920.00000000
N        0.93720439       2.37653040      -5.73476109 -360964096.00000000 10079242240.00000000 10719780864.00000000
F        0.70877233       3.24937469      -0.78813154 -21099085824.00000000 -9169065984.00000000 -10694071296.00000000
F        7.78002842       2.02462888      -3.16012013 28545050.00000000 3600505.50000000 -12952234.00000000
F        4.59727073       3.03120194       1.74711498 8399089152.00000000 -1247150336.00000000 7078076416.00000000
F        3.89717645       3.63485286       0.82652984 459855872.00000000 -50178808.00000000 484017120.00000000
F        1.90195070       5.94556285      -2.82637286 12182685696.00000000 375158272.00000000 -7399086080.00000000
F        6.86199108       3.94751880       2.29937965 146459536.00000000 137623632.00000000 39978616.00000000
