9
Lattice="5.27152690049299 1.6017429602275096e-07 3.0435176642360386 1.7571757425247065 4.970043597013208 3.04351773695916 -9.37882502922305e-08 2.2748987875827564e-08 6.087035490918099" Properties=species:S:1:pos:R:3:forces:R:3 energy=-45.83071517944336 free_energy=-45.83071517944336 stress="0.00011891254689544439 -1.2573920793457205e-09 2.369305285299106e-08 -1.2573920793457205e-09 0.00011890866153407842 1.963068818611191e-08 2.369305285299106e-08 1.963068818611191e-08 0.00011890612222487107" pbc="T T T"
Ba       1.75717561       1.24251085       3.04351786       0.00000028       0.00000003      -0.00000013
Ba       5.27152699       3.72753287       9.13055293       0.00000017      -0.00000087       0.00000006
As      -0.00000018       0.00000030      -0.00000056       0.00000136      -0.00000373       0.00000346
F        1.80077877       1.27334329       6.08703552       0.00047553       0.00033617      -0.00000072
F        5.22792353       3.69670074       6.08703550      -0.00047487      -0.00033540      -0.00000042
F        4.37113786       1.27334278       4.60303793      -0.00023893       0.00033748       0.00041300
F        2.65756485       3.69670088       7.57103283       0.00023794      -0.00033587      -0.00041217
F        2.65756491       3.69670058       4.60303854       0.00023738      -0.00033545       0.00041038
F        4.37113780       1.27334277       7.57103299      -0.00023898       0.00033784      -0.00041389
