9
Lattice="6.987202519059292 1.841098804125031e-07 4.034063068281481 2.329067612586443 6.587597750251696 4.034063184930186 -7.255363334672373e-08 9.156172730261435e-08 8.068126262229537" Properties=species:S:1:pos:R:3:forces:R:3 energy=-27.758602142333984 free_energy=-27.758602142333984 stress="4.1396418964723125e-05 -8.279962493418225e-09 -6.708476441019684e-09 -8.279962493418225e-09 4.1413270082557574e-05 1.6355509169230231e-09 -6.708476441019684e-09 1.6355509169230231e-09 4.142121542827226e-05" pbc="T T T"
Ba       2.32906684       1.64689966       4.03406297       0.00000026      -0.00000285       0.00000074
Ba       6.98720339       4.94069843      12.10218942       0.00000001       0.00000265      -0.00000022
As      -0.00000026      -0.00000003      -0.00000034       0.00000049      -0.00000065       0.00000086
I        2.36275242       1.67071858       8.06812628      -0.00558813      -0.00395134      -0.00000001
I        6.95351764       4.91687956       8.06812648       0.00558798       0.00395116      -0.00000041
I        5.80582634       1.67071825       6.08026656       0.00279354      -0.00394982      -0.00483827
I        3.51044362       4.91687982      10.05598600      -0.00279318       0.00395058       0.00483829
I        3.51044361       4.91687958       6.08026654      -0.00279308       0.00395048      -0.00483732
I        5.80582661       1.67071825      10.05598614       0.00279221      -0.00395015       0.00483641
