9
Lattice="6.498212148618975 2.0123931275447486e-07 3.751744584080393 2.1660708001206066 6.126573454577906 3.7517447673589945 -3.610973143800004e-08 1.9893609006106945e-07 7.503489230704736" Properties=species:S:1:pos:R:3:forces:R:3 energy=-31.712495803833008 free_energy=-31.712495803833008 stress="0.00020587962353602052 4.785422724751243e-09 4.542215048530807e-09 4.785422724751243e-09 0.0002058735117316246 -4.352282700903487e-10 4.542215048530807e-09 -4.352282700903487e-10 0.00020587882318068296" pbc="T T T"
Ba       2.16607057       1.53164365       3.75174453      -0.00000009       0.00000021       0.00000039
Ba       6.49821228       4.59493025      11.25523408       0.00000011      -0.00000065      -0.00000066
As       0.00000029       0.00000030       0.00000107      -0.00000058      -0.00000215      -0.00000452
Br       2.19152120       1.54964001       7.50348939      -0.00730214      -0.00516269       0.00000011
Br       6.47276146       4.57693388       7.50348937       0.00730312       0.00516355      -0.00000012
Br       5.40245154       1.54963951       5.64965751       0.00365052      -0.00516269      -0.00632212
Br       3.26183173       4.57693376       9.35732023      -0.00365195       0.00516504       0.00632614
Br       3.26183106       4.57693435       5.64965750      -0.00365022       0.00516251      -0.00632301
Br       5.40245151       1.54963980       9.35732076       0.00365122      -0.00516325       0.00632390
