9
Lattice="6.672751307995291 -2.788145622773094e-08 3.8525146797811898 2.224250367798786 6.2911300150817935 3.852514752376213 -7.574421061521353e-08 3.535112604358643e-08 7.705029490755115" Properties=species:S:1:pos:R:3:forces:R:3 energy=-31.70631217956543 free_energy=-31.70631217956543 stress="6.697956996504217e-05 -2.1537034378127373e-09 1.2288153827810788e-09 -2.1537034378127373e-09 6.697114440612495e-05 -7.363684773054047e-09 1.2288153827810788e-09 -7.363684773054047e-09 6.697100616293028e-05" pbc="T T T"
Ba       2.22425058       1.57278281       3.85251478       0.00000041       0.00000211       0.00000155
Ba       6.67275146       4.71834734      11.55754447      -0.00000041      -0.00000125       0.00000089
Bi       0.00000048       0.00000023       0.00000121      -0.00000338      -0.00000068      -0.00001115
Br       2.33143558       1.64857425       7.70502934      -0.00100690      -0.00071195       0.00000003
Br       6.56556538       4.64255541       7.70502907       0.00101018       0.00071338      -0.00000064
Br       5.50703322       1.64857438       5.87159716       0.00050277      -0.00071143      -0.00087135
Br       3.38996814       4.64255557       9.53846108      -0.00050572       0.00071472       0.00087540
Br       3.38996840       4.64255565       5.87159732      -0.00050292       0.00071128      -0.00087139
Br       5.50703314       1.64857436       9.53846111       0.00050600      -0.00071622       0.00087671
