9
Lattice="6.780314057652273 1.2502001410634077e-07 3.914616056452934 2.2601047847859537 6.392541536020314 3.914616089306583 -5.604453130413615e-08 6.078619993329644e-10 7.8292322099778815" Properties=species:S:1:pos:R:3:forces:R:3 energy=-27.23186492919922 free_energy=-27.23186492919922 stress="-9.040465556608979e-06 1.7383175787699656e-08 -5.0339949986266674e-09 1.7383175787699656e-08 -9.040528311743401e-06 -1.5916206130839328e-09 -5.0339949986266674e-09 -1.5916206130839328e-09 -9.047599633049686e-06" pbc="T T T"
Ba       2.26010489       1.59813559       3.91461581       0.00000051       0.00000013      -0.00000057
Ba       6.78031397       4.79440571      11.74384871      -0.00000025       0.00000008       0.00000013
B       -0.00000009       0.00000036      -0.00000023      -0.00000052      -0.00000073       0.00000019
I        2.18954898       1.54824504       7.82923232      -0.00082077      -0.00058023       0.00000085
I        6.85087005       4.84429657       7.82923217       0.00081991       0.00058003      -0.00000021
I        5.68553945       1.54824519       5.81082098       0.00041078      -0.00058021      -0.00071155
I        3.35487921       4.84429662       9.84764323      -0.00040951       0.00058015       0.00071126
I        3.35487926       4.84429658       5.81082105      -0.00040940       0.00058087      -0.00071063
I        5.68553949       1.54824502       9.84764333       0.00040924      -0.00057999       0.00071050
