9
Lattice="6.263694623014067 -4.128232741722271e-08 3.616346172267802 2.0878978494745186 5.905468015868039 3.6163467252689516 -4.859890368341905e-09 6.738490684499319e-07 7.232692352953308" Properties=species:S:1:pos:R:3:forces:R:3 energy=-30.884702682495117 free_energy=-30.884702682495117 stress="-0.000282554974546656 6.619266912366584e-08 1.028433516125915e-07 6.619266912366584e-08 -0.00028267528978176415 -3.9699596499076506e-08 1.028433516125915e-07 -3.9699596499076506e-08 -0.00028260648832656443" pbc="T T T"
Ba       2.08789739       1.47636667       3.61634630      -0.00000125      -0.00000039       0.00000039
Ba       6.26369445       4.42910192      10.84903909       0.00000052      -0.00000006       0.00000061
B        0.00000189       0.00000122      -0.00000075       0.00002407       0.00001770      -0.00000967
Br       1.94008051       1.37184384       7.23269340       0.00694489       0.00491340      -0.00000328
Br       6.41151030       4.53362373       7.23269204      -0.00696108      -0.00492550       0.00000352
Br       5.29365394       1.37184564       5.29650776      -0.00348604       0.00492434       0.00602913
Br       3.05793908       4.53362294       9.16887737       0.00347893      -0.00492272      -0.00602403
Br       3.05793888       4.53362419       5.29650725       0.00347489      -0.00492501       0.00602281
Br       5.29365361       1.37184441       9.16887841      -0.00347497       0.00491822      -0.00601956
