9
Lattice="5.470880677152565 1.0980069179013845e-07 3.1586146077558617 1.8236268888722116 5.157996825682259 3.1586147931425446 -1.2836982690229193e-07 1.3628022845325586e-07 6.317229437854762" Properties=species:S:1:pos:R:3:forces:R:3 energy=-45.56785202026367 free_energy=-45.56785202026367 stress="0.0004204857687000185 -8.420236063955144e-09 -1.7006410502062863e-08 -8.420236063955144e-09 0.0004205183940939605 3.051094310535518e-08 -1.7006410502062863e-08 3.051094310535518e-08 0.0004205426957923919" pbc="T T T"
Ba       1.82362683       1.28949953       3.15861487      -0.00000060       0.00000028      -0.00000051
Ba       5.47088055       3.86849763       9.47584393       0.00000030      -0.00000010      -0.00000002
Bi       0.00000009       0.00000018       0.00000018       0.00000181      -0.00000402      -0.00000072
F        1.88333566       1.33171986       6.31722950      -0.00354025      -0.00250298      -0.00000002
F        5.41117170       3.82627701       6.31722934       0.00354123       0.00250417       0.00000023
F        4.52921261       1.33172010       4.78963156       0.00177187      -0.00250590      -0.00306895
F        2.76529487       3.82627683       7.84482697      -0.00177343       0.00250846       0.00307116
F        2.76529480       3.82627690       4.78963140      -0.00177158       0.00250459      -0.00306812
F        4.52921260       1.33172015       7.84482725       0.00177054      -0.00250444       0.00306696
