9
Lattice="5.933850653962086 4.105272713057685e-06 3.4259069903143766 1.9779533324043155 5.59448652932766 3.4259082998684596 -5.829478931887071e-07 1.191663219446554e-06 6.851814990324147" Properties=species:S:1:pos:R:3:forces:R:3 energy=-34.232601165771484 free_energy=-34.232601165771484 stress="0.00017302560445386916 -9.944587873178534e-07 1.1838341862357993e-07 -9.944587873178534e-07 0.00017356788157485425 -1.6079803799584624e-07 1.1838341862357993e-07 -1.6079803799584624e-07 0.00017411011504009366" pbc="T T T"
Ba       1.97795968       1.39862866       3.42592405       0.00014737       0.00009398       0.00026549
Ba       5.93386090       4.19587356      10.27773975       0.00014780       0.00009212       0.00026602
B       -0.00026603      -0.00016822      -0.00047756      -0.00427495      -0.00269184      -0.00768382
Cl       1.73440690       1.22641165       6.85183296      -0.00163043      -0.00116739       0.00026067
Cl       6.17760034       4.36822465       6.85183056       0.00493211       0.00346598       0.00026224
Cl       5.06666423       1.22640843       4.92794685       0.00103474      -0.00116754      -0.00126803
Cl       2.84505970       4.36823375       8.77588190      -0.00230062       0.00354159       0.00449604
Cl       2.84516007       4.36808997       4.92795222      -0.00070053       0.00127622      -0.00118756
Cl       5.06676770       1.22626493       8.77589019       0.00264466      -0.00344330       0.00458914
