9
Lattice="7.152711565021443 7.323706207524928e-08 4.1296199339984225 2.3842372188027725 6.743641221382131 4.129620000831805 -4.3128030600536325e-08 5.1357733532603425e-08 8.259239942696725" Properties=species:S:1:pos:R:3:forces:R:3 energy=-27.57678985595703 free_energy=-27.57678985595703 stress="-9.268712801713264e-07 -3.2272455818826984e-09 5.644227307755045e-09 -3.2272455818826984e-09 -9.215295335707197e-07 -8.21360401914717e-09 5.644227307755045e-09 -8.21360401914717e-09 -9.258894237973436e-07" pbc="T T T"
Ba       2.38423712       1.68591019       4.12961972      -0.00000048      -0.00000055      -0.00000108
Ba       7.15271177       5.05773090      12.38885995       0.00000045      -0.00000012       0.00000038
Bi      -0.00000016      -0.00000001       0.00000052      -0.00000085       0.00000096      -0.00000728
I        2.49700258       1.76564767       8.25923999      -0.00197077      -0.00139224       0.00000040
I        7.03994629       4.97799388       8.25923995       0.00196965       0.00139292       0.00000062
I        5.90421035       1.76564746       6.29208741       0.00098428      -0.00139160      -0.00170394
I        3.63273841       4.97799381      10.22639233      -0.00098504       0.00139268       0.00170632
I        3.63273841       4.97799384       6.29208762      -0.00098441       0.00139257      -0.00170389
I        5.90421018       1.76564763      10.22639203       0.00098715      -0.00139458       0.00170847
