9
Lattice="6.375872949339387 1.9837015122528283e-07 3.6811119135388934 2.125291164964653 6.011230692792735 3.6811119225000324 2.8512157263257305e-08 3.1136196538862725e-08 7.362223777693279" Properties=species:S:1:pos:R:3:forces:R:3 energy=-35.4066047668457 free_energy=-35.4066047668457 stress="0.0001081105656339787 4.501065831163942e-08 1.1057099236211343e-08 4.501065831163942e-08 0.0001080868678400293 -7.0350343328584586e-09 1.1057099236211343e-08 -7.0350343328584586e-09 0.00010803799523273483" pbc="T T T"
Ba       2.12529087       1.50280787       3.68111198      -0.00000030      -0.00000027      -0.00000052
Ba       6.37587324       4.50842328      11.04333567      -0.00000036       0.00000030       0.00000102
Bi       0.00000022       0.00000043      -0.00000026      -0.00000135      -0.00000400       0.00000554
Cl       2.21167596       1.56389108       7.36222389      -0.00089435      -0.00063254       0.00000017
Cl       6.28948808       4.44733954       7.36222396       0.00089744       0.00063407      -0.00000036
Cl       5.27003518       1.56389080       5.59647864       0.00044537      -0.00062905      -0.00077090
Cl       3.23112878       4.44734018       9.12796859      -0.00044426       0.00062841       0.00076984
Cl       3.23112874       4.44734004       5.59647911      -0.00044630       0.00063126      -0.00077306
Cl       5.27003558       1.56389052       9.12796893       0.00044413      -0.00062823       0.00076844
