9
Lattice="4.978574556435251 -9.826047179587787e-08 2.874381275858716 1.659524714492839 4.693845343491187 2.874381353820717 -7.920086487862842e-08 3.948009327107163e-08 5.748762688897372" Properties=species:S:1:pos:R:3:forces:R:3 energy=-47.832820892333984 free_energy=-47.832820892333984 stress="-3.228076093364507e-05 7.1632673126487134e-09 6.48889786347695e-09 7.1632673126487134e-09 -3.224138345103711e-05 -2.4491280115057634e-08 6.48889786347695e-09 -2.4491280115057634e-08 -3.2358246244257316e-05" pbc="T T T"
Ba       1.65952464       1.17346134       2.87438115      -0.00000069      -0.00000062      -0.00000127
Ba       4.97857421       3.52038389       8.62314372      -0.00000108       0.00000001      -0.00000309
B       -0.00000074       0.00000023      -0.00000152      -0.00000102       0.00000084      -0.00000050
F        1.48937724       1.05314889       5.74876259      -0.00051546      -0.00036514       0.00000053
F        5.14872266       3.64069707       5.74876271       0.00051737       0.00036591       0.00000025
F        4.23388584       1.05314869       4.16421968       0.00025904      -0.00036508      -0.00044698
F        2.40421289       3.64069696       7.33330626      -0.00025976       0.00036669       0.00044876
F        2.40421332       3.64069621       4.16422015      -0.00025737       0.00036377      -0.00044447
F        4.23388653       1.05314798       7.33330657       0.00025886      -0.00036681       0.00044799
