9
Lattice="5.146035854382241 2.776393736211916e-08 2.971064877642505 1.7153452567970546 4.851729784106084 2.971064971473087 -1.1021449300186348e-07 3.69851058435004e-08 5.9421299461821535" Properties=species:S:1:pos:R:3:forces:R:3 energy=-47.364768981933594 free_energy=-47.364768981933594 stress="0.0002914884826168418 -5.100918354372652e-09 9.767367004087646e-08 -5.100918354372652e-09 0.0002913149946834892 -9.02881858166893e-09 9.767367004087646e-08 -9.02881858166893e-09 0.00029144747531972826" pbc="T T T"
Ba       1.71534533       1.21293196       2.97106457       0.00000004       0.00000256       0.00000179
Ba       5.14603583       3.63879757       8.91319518       0.00000020      -0.00000024      -0.00000166
Ga       0.00000021       0.00000056       0.00000031      -0.00000169      -0.00001078      -0.00000936
F        1.59188275       1.12563098       5.94212984       0.00249964       0.00176841       0.00000113
F        5.26949824       3.72609875       5.94212977      -0.00249654      -0.00176537       0.00000061
F        4.35009408       1.12563096       4.34967547      -0.00125033       0.00176901       0.00216699
F        2.51128674       3.72609852       7.53458414       0.00124747      -0.00176436      -0.00216180
F        2.51128689       3.72609872       4.34967582       0.00124884      -0.00176561       0.00216550
F        4.35009383       1.12563112       7.53458419      -0.00124776       0.00176615      -0.00216347
