9
Lattice="6.0700256142635 -5.0282873248635084e-08 3.5045308361770107 2.0233418013886726 5.722875039191428 3.504530875365251 -6.093431934992412e-08 4.90855586394844e-09 7.009061777895365" Properties=species:S:1:pos:R:3:forces:R:3 energy=-35.64103317260742 free_energy=-35.64103317260742 stress="0.00014886073768138885 -2.6537433583939674e-08 1.0041127040949505e-08 -2.6537433583939674e-08 0.0001488979032728821 1.9732437905872757e-09 1.0041127040949505e-08 1.9732437905872757e-09 0.0001488913403591141" pbc="T T T"
Ba       2.02334176       1.43071866       3.50453097      -0.00000028      -0.00000003       0.00000021
Ba       6.07002562       4.29215630      10.51359266      -0.00000002       0.00000032      -0.00000045
Ga      -0.00000042       0.00000039      -0.00000128       0.00000299      -0.00000333       0.00001096
Cl       1.98625451       1.40449395       7.00906205      -0.00702155      -0.00496534      -0.00000091
Cl       6.10711300       4.31838092       7.00906172       0.00702210       0.00496569      -0.00000002
Cl       5.07689800       1.40449460       5.22467789       0.00351230      -0.00496849      -0.00608438
Cl       3.01646923       4.31838087       8.79344596      -0.00351077       0.00496551       0.00608124
Cl       3.01646965       4.31838025       5.22467800      -0.00351502       0.00497031      -0.00608657
Cl       5.07689807       1.40449406       8.79344594       0.00351032      -0.00496469       0.00608000
