9
Lattice="6.369807437045389 1.0243304091541773e-07 3.677610103456825 2.1232692163798275 6.005511834713962 3.6776101482766492 -7.373967650388078e-08 2.7510409766705234e-09 7.355220334634476" Properties=species:S:1:pos:R:3:forces:R:3 energy=-31.632049560546875 free_energy=-31.632049560546875 stress="-1.2164226063759997e-05 6.976602628938622e-10 -1.6084971132812598e-09 6.976602628938622e-10 -1.22002393254661e-05 2.3058817077981075e-09 -1.6084971132812598e-09 2.3058817077981075e-09 -1.2149702342867386e-05" pbc="T T T"
Ba       2.12326877       1.50137839       3.67761037      -0.00000070      -0.00000009      -0.00000102
Ba       6.36980770       4.50413346      11.03283017       0.00000109       0.00000022       0.00000088
Ga       0.00000066      -0.00000052      -0.00000011      -0.00000217       0.00000366       0.00000017
Br       2.11956000       1.49875504       7.35522028      -0.00679969      -0.00480651      -0.00000050
Br       6.37351670       4.50675722       7.35522033       0.00679866       0.00480535      -0.00000014
Br       5.31002728       1.49875499       5.51320314       0.00340004      -0.00480667      -0.00588942
Br       3.18304889       4.50675721       9.19723749      -0.00339874       0.00480585       0.00588818
Br       3.18304896       4.50675712       5.51320322      -0.00339900       0.00480523      -0.00588822
Br       5.31002735       1.49875486       9.19723744       0.00340059      -0.00480702       0.00589015
