9
Lattice="6.9282058243589955 2.3051925434572698e-07 4.00000128989549 2.3094021207471673 6.531975189756538 4.000001355785215 -9.655048817007999e-08 1.2426617663399648e-08 8.000002747021245" Properties=species:S:1:pos:R:3:forces:R:3 energy=-27.091053009033203 free_energy=-27.091053009033203 stress="-8.393045573029667e-05 -6.848456024499683e-09 -2.2826229795214203e-09 -6.848456024499683e-09 -8.392551535507664e-05 3.939418125042948e-09 -2.2826229795214203e-09 3.939418125042948e-09 -8.39236963656731e-05" pbc="T T T"
Ba       2.30940178       1.63299369       4.00000058       0.00000110      -0.00000001      -0.00000060
Ba       6.92820593       4.89898174      12.00000477      -0.00000175      -0.00000022       0.00000101
Ga      -0.00000010       0.00000009       0.00000002       0.00000006       0.00000041      -0.00000013
I        2.32839497       1.64642397       8.00000280      -0.00651879      -0.00461035      -0.00000007
I        6.90921301       4.88555138       8.00000256       0.00651898       0.00461040      -0.00000075
I        5.76400842       1.64642402       6.01645036       0.00325949      -0.00460940      -0.00564598
I        3.47359951       4.88555140       9.98355513      -0.00326022       0.00460978       0.00564585
I        3.47359953       4.88555124       6.01645036      -0.00325859       0.00461005      -0.00564559
I        5.76400834       1.64642421       9.98355498       0.00325977      -0.00461066       0.00564630
