9
Lattice="6.070042418709732 5.52181674322651e-08 3.5045405557008684 2.0233475376445336 5.722890839820188 3.5045405337365243 4.050561071050978e-08 1.7410263640132262e-09 7.009081041244011" Properties=species:S:1:pos:R:3:forces:R:3 energy=-39.08172607421875 free_energy=-39.08172607421875 stress="8.455412171315402e-05 4.3991114750951965e-08 -5.333713470889734e-10 4.3991114750951965e-08 8.452000474790111e-05 -1.1674822886220682e-08 -5.333713470889734e-10 -1.1674822886220682e-08 8.447407890344039e-05" pbc="T T T"
Ba       2.02334753       1.43072281       3.50454062      -0.00000025      -0.00000019       0.00000035
Ba       6.07004235       4.29216820      10.51362154       0.00000043       0.00000018       0.00000025
Ir       0.00000004       0.00000040      -0.00000145      -0.00000277      -0.00001398       0.00004969
Cl       1.95519185       1.38252944       7.00908091      -0.00742225      -0.00524845      -0.00000221
Cl       6.13819848       4.34036131       7.00908105       0.00742688       0.00525349      -0.00000245
Cl       5.09244657       1.38252927       5.19778615       0.00371325      -0.00525126      -0.00643584
Cl       3.00094307       4.34036181       8.82037678      -0.00370612       0.00524310       0.00641586
Cl       3.00094324       4.34036134       5.19778615      -0.00371474       0.00525644      -0.00643965
Cl       5.09244687       1.38252902       8.82037676       0.00370554      -0.00523932       0.00641409
