9
Lattice="6.346136567244765 2.2099327092837566e-07 3.6639433754476487 2.1153790604338525 5.983194843384475 3.66394338180236 -4.96894132609785e-08 -2.7352898956539157e-08 7.327886836960035" Properties=species:S:1:pos:R:3:forces:R:3 energy=-35.789371490478516 free_energy=-35.789371490478516 stress="4.0404644096270204e-05 2.633364282189632e-08 1.6083831155810913e-08 2.633364282189632e-08 4.0377784898737445e-05 -2.34276082977658e-08 1.6083831155810913e-08 -2.34276082977658e-08 4.037098551634699e-05" pbc="T T T"
Ba       2.11537932       1.49579886       3.66394388       0.00000002       0.00000012      -0.00000010
Ba       6.34613622       4.48739614      10.99182981       0.00000005      -0.00000006      -0.00000059
Ir      -0.00000041       0.00000022       0.00000232       0.00001069      -0.00000262      -0.00004441
Br       2.05249973       1.45133650       7.32788649      -0.00715593      -0.00505950       0.00000351
Br       6.40901580       4.53185868       7.32788629       0.00715160       0.00505616       0.00000353
Br       5.31988726       1.45133593       5.44145931       0.00357050      -0.00504892      -0.00618038
Br       3.14162856       4.53185877       9.21431329      -0.00358096       0.00506243       0.00620323
Br       3.14162898       4.53185864       5.44145975      -0.00357495       0.00505392      -0.00618683
Br       5.31988687       1.45133637       9.21431328       0.00357904      -0.00506151       0.00620191
