9
Lattice="5.119161560780938 -7.359491179847158e-08 2.9555494142717627 1.7063871212216792 4.8263917146088495 2.955549407896748 -5.055765908006927e-08 -4.355744550686542e-08 5.911098916111902" Properties=species:S:1:pos:R:3:forces:R:3 energy=-49.24733352661133 free_energy=-49.24733352661133 stress="9.164209041045979e-05 -6.096543359035422e-08 -1.688723649806434e-08 -6.096543359035422e-08 9.166033123619854e-05 4.791712981955243e-08 -1.688723649806434e-08 4.791712981955243e-08 9.172878344543278e-05" pbc="T T T"
Ba       1.70638722       1.20659799       2.95554932       0.00000082      -0.00000064      -0.00000059
Ba       5.11916162       3.61979348       8.86664799      -0.00000106       0.00000056       0.00000076
Ir       0.00000011       0.00000011       0.00000006      -0.00000299      -0.00000149       0.00000005
F        1.70906158       1.20848894       5.91109888       0.00129539       0.00091568       0.00000031
F        5.11648713       3.61790273       5.91109887      -0.00129306      -0.00091472      -0.00000064
F        4.26463043       1.20848914       4.43564050      -0.00064385       0.00091150       0.00111657
F        2.56091807       3.61790246       7.38655742       0.00064436      -0.00091174      -0.00111687
F        2.56091797       3.61790240       4.43564049       0.00064605      -0.00091299       0.00111932
F        4.26463060       1.20848914       7.38655746      -0.00064543       0.00091353      -0.00111902
