9
Lattice="5.274552856102745 2.1953491190867902e-08 3.0452644414843157 1.7581843052082653 4.972896086059087 3.0452644429691373 -5.743993242691268e-08 -3.879764437403105e-08 6.090528982457577" Properties=species:S:1:pos:R:3:forces:R:3 energy=-50.66119384765625 free_energy=-50.66119384765625 stress="0.00036415873910300434 1.491782164464439e-08 -1.9674331053209926e-09 1.491782164464439e-08 0.00036419692332856357 2.0146542212273744e-08 -1.9674331053209926e-09 2.0146542212273744e-08 0.00036416761577129364" pbc="T T T"
Ba       1.75818442       1.24322402       3.04526457      -0.00000019       0.00000046       0.00000108
Ba       5.27455259       3.72967227       9.13579340      -0.00000016      -0.00000019       0.00000014
Mo      -0.00000018       0.00000002       0.00000032       0.00000233      -0.00000261      -0.00002397
F        1.73999407       1.23036135       6.09052890       0.00070053       0.00049561       0.00000063
F        5.29274310       3.74253458       6.09052888      -0.00070107      -0.00049582       0.00000037
F        4.40455585       1.23036131       4.55214326      -0.00035354       0.00049996       0.00061274
F        2.62818138       3.74253457       7.62891448       0.00034708      -0.00049061      -0.00060052
F        2.62818134       3.74253482       4.55214309       0.00035343      -0.00049958       0.00061291
F        4.40455581       1.23036145       7.62891453      -0.00034860       0.00049263      -0.00060332
