9
Lattice="6.416738046297718 2.4413069978852965e-07 3.704705197192056 2.138912778765527 6.049758770112845 3.7047054284247327 -1.43486685571915e-07 1.8174075709555707e-07 7.409410642910251" Properties=species:S:1:pos:R:3:forces:R:3 energy=-38.08232879638672 free_energy=-38.08232879638672 stress="-1.4673751138616353e-05 7.167037097133289e-08 -2.292080658605755e-08 7.167037097133289e-08 -1.4720645594934467e-05 3.2279441342097925e-08 -2.292080658605755e-08 3.2279441342097925e-08 -1.4785568055231124e-05" pbc="T T T"
Ba       2.13891287       1.51244030       3.70470564       0.00000098      -0.00000012      -0.00000021
Ba       6.41673775       4.53731892      11.11411549      -0.00000084      -0.00000008       0.00000028
Mo       0.00000037       0.00000043      -0.00000012      -0.00000601      -0.00000685       0.00000457
Br       2.15194565       1.52165563       7.40941065      -0.00152477      -0.00107793      -0.00000045
Br       6.40370450       4.52810312       7.40941068       0.00153218       0.00108318       0.00000059
Br       5.34076547       1.52165536       5.56834451       0.00076180      -0.00107782      -0.00131964
Br       3.21488530       4.52810386       9.25047679      -0.00076144       0.00107711       0.00131862
Br       3.21488513       4.52810410       5.56834409      -0.00076089       0.00107519      -0.00131722
Br       5.34076570       1.52165502       9.25047733       0.00075895      -0.00107266       0.00131345
