9
Lattice="5.913606243236731 -1.1174224720976786e-07 3.414222158429931 1.971202067780048 5.5754015842661895 3.4142219989900084 1.7105918943584953e-07 -7.431615698263992e-08 6.828444020576599" Properties=species:S:1:pos:R:3:forces:R:3 energy=-31.98354721069336 free_energy=-31.98354721069336 stress="6.97638388373889e-05 -2.960006240115831e-09 -5.977796480038933e-09 -2.960006240115831e-09 6.979180034250021e-05 2.601299620152986e-08 -5.977796480038933e-09 2.601299620152986e-08 6.975771975703537e-05" pbc="T T T"
Ba       1.97120215       1.39385041       3.41422188       0.00000021      -0.00000069      -0.00000034
Ba       5.91360613       4.18155121      10.24266577       0.00000160       0.00000030       0.00000019
N       -0.00000482      -0.00000703      -0.00000610      -0.00005017      -0.00007431      -0.00006504
Cl       1.94805669       1.37748426       6.82844416      -0.00511621      -0.00361736       0.00000399
Cl       5.93675756       4.19792106       6.82844365       0.00517426       0.00366224       0.00000084
Cl       4.93957890       1.37748374       5.10128909       0.00256276      -0.00362036      -0.00443377
Cl       2.94522812       4.19792157       8.55560402      -0.00258260       0.00365661       0.00447699
Cl       2.94522938       4.19791861       5.10128756      -0.00256830       0.00363557      -0.00444818
Cl       4.93957985       1.37748178       8.55560267       0.00257853      -0.00364189       0.00446554
