9
Lattice="4.964988092045048 1.0061501766982263e-08 2.86653722807474 1.6549960442246812 4.681035806659698 2.8665372210480213 1.9808116694424647e-08 5.400461060541692e-09 5.733074421840861" Properties=species:S:1:pos:R:3:forces:R:3 energy=-44.536495208740234 free_energy=-44.536495208740234 stress="8.874049512996862e-07 4.424683286430309e-09 2.6226756322245137e-09 4.424683286430309e-09 9.525497830509266e-07 -2.4672299758776717e-09 2.6226756322245137e-09 -2.4672299758776717e-09 9.070614623851725e-07" pbc="T T T"
Ba       1.65499604       1.17025949       2.86653718       0.00000038      -0.00000305       0.00000109
Ba       4.96498810       3.51077645       8.59961189      -0.00000001       0.00000256      -0.00000221
N       -0.00000010       0.00000006      -0.00000011       0.00000252      -0.00000482       0.00000040
F        1.59194287       1.12567405       5.73307448      -0.00061245      -0.00043542      -0.00000065
F        5.02804135       3.55536171       5.73307448       0.00061239       0.00043561      -0.00000029
F        4.16901668       1.12567391       4.24519973       0.00030435      -0.00043242      -0.00052669
F        2.45096727       3.55536185       7.22094876      -0.00030560       0.00043565       0.00052994
F        2.45096753       3.55536172       4.24520009      -0.00030670       0.00043610      -0.00053099
F        4.16901674       1.12567398       7.22094890       0.00030522      -0.00043421       0.00052933
