9
Lattice="6.197879707866013 -1.0893654902891071e-07 3.57834750274703 2.06595982774549 5.843416890310054 3.578347454544208 2.270387719267664e-08 -4.298197308180096e-08 7.156694966169676" Properties=species:S:1:pos:R:3:forces:R:3 energy=-34.081851959228516 free_energy=-34.081851959228516 stress="3.253054092056118e-05 -5.745385833755279e-10 8.973996545869056e-11 -5.745385833755279e-10 3.252063106629066e-05 2.17844209338125e-09 8.973996545869056e-11 2.17844209338125e-09 3.2534513593418524e-05" pbc="T T T"
Ba       2.06595968       1.46085392       3.57834728      -0.00000039      -0.00000023       0.00000008
Ba       6.19787978       4.38256267      10.73504259       0.00000030       0.00000041      -0.00000011
P       -0.00000006      -0.00000005       0.00000043      -0.00000161      -0.00000044      -0.00000088
Cl       2.10750455       1.49023033       7.15669489       0.00603387       0.00426680       0.00000069
Cl       6.15633554       4.35318668       7.15669482      -0.00603288      -0.00426625       0.00000045
Cl       5.14412750       1.49023016       5.40349941      -0.00301591       0.00426616       0.00522539
Cl       3.11971195       4.35318635       8.90989050       0.00301680      -0.00426693      -0.00522557
Cl       3.11971189       4.35318640       5.40349933       0.00301658      -0.00426665       0.00522622
Cl       5.14412742       1.49023039       8.90989039      -0.00301674       0.00426719      -0.00522628
