9
Lattice="6.448177397762329 1.3899762530010944e-07 3.722856900482185 2.14939254162821 6.079399955787369 3.7228569963352425 -3.069841723647067e-08 9.568846844789366e-08 7.445713854135551" Properties=species:S:1:pos:R:3:forces:R:3 energy=-31.439115524291992 free_energy=-31.439115524291992 stress="0.00019494109437800944 6.679348629745618e-09 2.435027512959209e-09 6.679348629745618e-09 0.00019494166190270334 -8.948672913788869e-09 2.435027512959209e-09 -8.948672913788869e-09 0.00019493073341436684" pbc="T T T"
Ba       2.14939217       1.51984986       3.72285679       0.00000008       0.00000056       0.00000075
Ba       6.44817762       4.55955023      11.16857114       0.00000014       0.00000001      -0.00000051
P        0.00000020       0.00000014      -0.00000032      -0.00000161       0.00000063       0.00000072
Br       2.20639131       1.56015437       7.44571395      -0.00711820      -0.00503352      -0.00000018
Br       6.39117864       4.51924595       7.44571391       0.00711761       0.00503200      -0.00000013
Br       5.34498191       1.56015421       5.63364760       0.00355909      -0.00503281      -0.00616385
Br       3.25258796       4.51924596       9.25778004      -0.00355805       0.00503236       0.00616403
Br       3.25258797       4.51924598       5.63364773      -0.00355837       0.00503333      -0.00616464
Br       5.34498190       1.56015404       9.25778012       0.00355918      -0.00503260       0.00616392
