9
Lattice="6.920411489905629 3.5872435481746635e-08 3.9955014040339667 2.3068037959003727 6.5246265751604255 3.9955015216212435 -6.399684725810485e-08 9.876176810780645e-08 7.991002918913806" Properties=species:S:1:pos:R:3:forces:R:3 energy=-27.898284912109375 free_energy=-27.898284912109375 stress="-1.869159677880816e-05 2.618883776506209e-09 1.649336889286701e-09 2.618883776506209e-09 -1.8694410755415447e-05 1.4205298048963755e-09 1.649336889286701e-09 1.4205298048963755e-09 -1.8695316612138413e-05" pbc="T T T"
Ba       2.30680433       1.63115751       3.99550147      -0.00000033      -0.00000105       0.00000020
Ba       6.92041114       4.89346907      11.98650433      -0.00000025       0.00000115      -0.00000048
P       -0.00000019      -0.00000015       0.00000030       0.00000013       0.00000017      -0.00000055
I        2.33593453       1.65175552       7.99100290      -0.00089948      -0.00063561      -0.00000029
I        6.89128076       4.87287137       7.99100290       0.00089921       0.00063546       0.00000019
I        5.75244418       1.65175538       6.01848019       0.00045002      -0.00063618      -0.00077851
I        3.47477108       4.87287118       9.96352557      -0.00044975       0.00063609       0.00077912
I        3.47477105       4.87287139       6.01848020      -0.00044948       0.00063549      -0.00077911
I        5.75244398       1.65175557       9.96352552       0.00044997      -0.00063555       0.00077946
