9
Lattice="6.051761741481887 -8.481401480102689e-09 3.493986229279779 2.01725391977663 5.705655703690837 3.493986205125063 -5.470648329072653e-09 -3.345165128783261e-08 6.987972468035003" Properties=species:S:1:pos:R:3:forces:R:3 energy=-39.712890625 free_energy=-39.712890625 stress="0.00014923584240023047 6.099283744731565e-09 5.998868957135528e-09 6.099283744731565e-09 0.00014923102571628988 -4.363554406694448e-09 5.998868957135528e-09 -4.363554406694448e-09 0.00014923453272785991" pbc="T T T"
Ba       2.01725385       1.42641349       3.49398590      -0.00000091      -0.00000020      -0.00000081
Ba       6.05176178       4.27924216      10.48195901       0.00000046      -0.00000001       0.00000103
Ru       0.00000039      -0.00000017      -0.00000076      -0.00000813       0.00000102       0.00001954
Cl       1.96886263       1.39219616       6.98797262      -0.00626177      -0.00442841      -0.00000046
Cl       6.10015242       4.31345888       6.98797261       0.00626894       0.00443342      -0.00000107
Cl       5.06733038       1.39219665       5.19907174       0.00313459      -0.00443475      -0.00543120
Cl       3.00168528       4.31345968       8.77687353      -0.00312969       0.00442549       0.00541995
Cl       3.00168549       4.31345939       5.19907165      -0.00313374       0.00443185      -0.00542888
Cl       5.06733040       1.39219640       8.77687328       0.00313025      -0.00442852       0.00542198
