9
Lattice="5.1055811934177315 7.622813281799343e-08 2.9477087159771114 1.7018604542075295 4.8135880639830075 2.9477087427666313 -1.8095389722840658e-08 2.001498186004968e-08 5.895417463296332" Properties=species:S:1:pos:R:3:forces:R:3 energy=-50.09231948852539 free_energy=-50.09231948852539 stress="0.00017389502318110317 -2.4284492639026212e-08 -3.333618892042978e-08 -2.4284492639026212e-08 0.0001739523868309334 3.4754941979908693e-11 -3.333618892042978e-08 3.4754941979908693e-11 0.00017393862071912736" pbc="T T T"
Ba       1.70186045       1.20339688       2.94770881      -0.00000027      -0.00000008      -0.00000108
Ba       5.10558114       3.61019130       8.84312551       0.00000032      -0.00000006       0.00000112
Ru      -0.00000006      -0.00000002       0.00000020       0.00000259       0.00000021      -0.00000089
F        1.70505565       1.20565645       5.89541747       0.00117403       0.00083050      -0.00000024
F        5.10238633       3.60793195       5.89541764      -0.00117719      -0.00083196       0.00000005
F        4.25305315       1.20565645       4.42433031      -0.00058752       0.00083128       0.00101739
F        2.55438828       3.60793145       7.36650461       0.00058734      -0.00082958      -0.00101677
F        2.55438821       3.60793190       4.42433027       0.00058773      -0.00083098       0.00101763
F        4.25305336       1.20565651       7.36650485      -0.00058711       0.00083080      -0.00101736
