9
Lattice="6.825817499538659 1.1540763546347731e-07 3.9408874656061887 2.275272592874031 6.4354422451942455 3.940887492937249 2.0131547967695033e-08 4.77086960424049e-08 7.881774896343578" Properties=species:S:1:pos:R:3:forces:R:3 energy=-31.966604232788086 free_energy=-31.966604232788086 stress="9.286553904530592e-06 2.637744955791277e-08 -7.841193250257561e-10 2.637744955791277e-08 9.269897418562323e-06 -3.0406062112575682e-09 -7.841193250257561e-10 -3.0406062112575682e-09 9.247926755051594e-06" pbc="T T T"
Ba       2.27527260       1.60886083       3.94088757       0.00000105       0.00000046       0.00000043
Ba       6.82581767       4.82658180      11.82266215      -0.00000035       0.00000018      -0.00000007
Ru       0.00000009      -0.00000027      -0.00000002      -0.00000080       0.00000088      -0.00000064
I        2.23253557       1.57864108       7.88177495      -0.00661766      -0.00467957       0.00000002
I        6.86855452       4.85680122       7.88177510       0.00661796       0.00468054      -0.00000070
I        5.70954954       1.57864123       5.87432005       0.00330913      -0.00468031      -0.00573204
I        3.39154055       4.85680109       9.88923002      -0.00330963       0.00468015       0.00573147
I        3.39154023       4.85680130       5.87431982      -0.00330861       0.00467893      -0.00573068
I        5.70954967       1.57864138       9.88922977       0.00330892      -0.00468127       0.00573219
