9
Lattice="6.826874204972744 -1.0091888888456386e-07 3.941497613491712 2.2756246843766506 6.436438515938258 3.9414975363582845 3.8200924411326255e-08 -6.745661079725563e-08 7.882995160817468" Properties=species:S:1:pos:R:3:forces:R:3 energy=-31.36404037475586 free_energy=-31.36404037475586 stress="1.2288685866224114e-05 -1.5679955112091193e-09 5.48415535206459e-09 -1.5679955112091193e-09 1.2291573511902243e-05 1.358480411495222e-10 5.48415535206459e-09 1.358480411495222e-10 1.2288002835703082e-05" pbc="T T T"
Ba       2.27562512       1.60910947       3.94149763       0.00000046      -0.00000016      -0.00000096
Ba       6.82687367       4.82732904      11.82449288      -0.00000115       0.00000048       0.00000069
Rh      -0.00000036      -0.00000004      -0.00000055       0.00000541       0.00000051       0.00000631
I        2.21220770       1.56426670       7.88299520      -0.00351097      -0.00248275      -0.00000028
I        6.89029186       4.87217181       7.88299506       0.00350564       0.00247899       0.00000001
I        5.72077029       1.56426685       5.85732553       0.00175534      -0.00248194      -0.00303999
I        3.38172830       4.87217160       9.90866499      -0.00175310       0.00248096       0.00303813
I        3.38172859       4.87217139       5.85732539      -0.00175507       0.00248291      -0.00304114
I        5.72077050       1.56426655       9.90866513       0.00175341      -0.00247899       0.00303723
