9
Lattice="6.055736788301718 3.4323472386418105e-08 3.4962812511330337 2.0185789577815534 5.709403394762065 3.496281258083461 -7.136411622761341e-09 3.4662861865440793e-09 6.992562514626705" Properties=species:S:1:pos:R:3:forces:R:3 energy=-38.53333282470703 free_energy=-38.53333282470703 stress="-0.00016870797844603658 -5.804386749019841e-09 4.057198133011752e-09 -5.804386749019841e-09 -0.0001687115291133523 -5.198347530210867e-09 4.057198133011752e-09 -5.198347530210867e-09 -0.00016873719869181514" pbc="T T T"
Ba       2.01857888       1.42735089       3.49628130       0.00000013      -0.00000054      -0.00000067
Ba       6.05573685       4.28205254      10.48884374      -0.00000037       0.00000015       0.00000021
Rh       0.00000002       0.00000017       0.00000019      -0.00000117      -0.00000106      -0.00000089
Cl       1.95601113       1.38310875       6.99256251      -0.00118967      -0.00084106       0.00000012
Cl       6.11830451       4.32629455       6.99256253       0.00119046       0.00084183      -0.00000051
Cl       5.07773126       1.38310873       5.19023655       0.00059528      -0.00084094      -0.00102961
Cl       2.99658457       4.32629457       8.79488833      -0.00059582       0.00084231       0.00103078
Cl       2.99658453       4.32629465       5.19023661      -0.00059474       0.00084167      -0.00103039
Cl       5.07773120       1.38310887       8.79488835       0.00059593      -0.00084238       0.00103093
