9
Lattice="5.138309704808597 5.5579787480056e-08 2.96660456994647 1.7127699391177127 4.844444831845274 2.966604595730267 -6.14531870734814e-08 -1.1875389841023977e-08 5.9332092463330115" Properties=species:S:1:pos:R:3:forces:R:3 energy=-49.15309524536133 free_energy=-49.15309524536133 stress="0.0005034363130107522 -1.1497665042270455e-08 -5.637999578311792e-08 -1.1497665042270455e-08 0.0005035054055042565 4.723543156615051e-08 -5.637999578311792e-08 4.723543156615051e-08 0.0005035237409174442" pbc="T T T"
Ba       1.71277006       1.21111132       2.96660422      -0.00000060      -0.00000023       0.00000077
Ba       5.13830959       3.63333361       8.89981460       0.00000033       0.00000020      -0.00000182
Rh      -0.00000008       0.00000016       0.00000007       0.00000724      -0.00000692      -0.00001188
F        1.67947470       1.18756799       5.93320919      -0.00014949      -0.00010458       0.00000065
F        5.17160492       3.65687670       5.93320901       0.00014693       0.00010508       0.00000073
F        4.29857249       1.18756790       4.42107254       0.00007331      -0.00010413      -0.00012761
F        2.55250729       3.65687665       7.44534591      -0.00007915       0.00011230       0.00013739
F        2.55250717       3.65687703       4.42107246      -0.00007311       0.00010401      -0.00012752
F        4.29857206       1.18756813       7.44534575       0.00007460      -0.00010574       0.00012964
