9
Lattice="6.338621209833814 -8.654400816000513e-08 3.6596047008704056 2.1128736547457128 5.976109345939086 3.659604701339905 -2.3164606420468594e-08 -1.580479550246907e-08 7.31920944186311" Properties=species:S:1:pos:R:3:forces:R:3 energy=-35.156280517578125 free_energy=-35.156280517578125 stress="-2.000961103476584e-05 4.987597002070743e-09 -1.740757094026435e-09 4.987597002070743e-09 -2.000470703933388e-05 -1.033332530653297e-09 -1.740757094026435e-09 -1.033332530653297e-09 -2.0006853446830064e-05" pbc="T T T"
Ba       2.11287356       1.49402710       3.65960496      -0.00000036      -0.00000037       0.00000069
Ba       6.33862138       4.48208206      10.97881404       0.00000067       0.00000018      -0.00000056
Rh      -0.00000030       0.00000026       0.00000031       0.00000572      -0.00000530      -0.00000428
Br       2.05539269       1.45338231       7.31920949      -0.00060405      -0.00042821       0.00000013
Br       6.39610218       4.52272702       7.31920947       0.00060347       0.00042820       0.00000008
Br       5.31092492       1.45338195       5.43962719       0.00029925      -0.00042520      -0.00052156
Br       3.14056992       4.52272687       9.19879125      -0.00030305       0.00042924       0.00052597
Br       3.14057002       4.52272720       5.43962724      -0.00030231       0.00042818      -0.00052427
Br       5.31092498       1.45338218       9.19879144       0.00030065      -0.00042669       0.00052382
