9
Lattice="6.355450764915828 4.171815719265232e-08 3.6693212986442862 2.118483610939172 5.991976473549419 3.6693213275665797 -9.101436111456107e-08 -2.893442921586615e-08 7.338642754930028" Properties=species:S:1:pos:R:3:forces:R:3 energy=-35.06785583496094 free_energy=-35.06785583496094 stress="-5.366736149881035e-05 -1.1626841711631641e-08 3.052510688661414e-09 -1.1626841711631641e-08 -5.366506957216188e-05 -2.9369884302354876e-09 3.052510688661414e-09 -2.9369884302354876e-09 -5.366236291592941e-05" pbc="T T T"
Ba       2.11848295       1.49799391       3.66932206       0.00000047      -0.00000119      -0.00000028
Ba       6.35545121       4.49398246      11.00796333      -0.00000086       0.00000105      -0.00000079
Sb      -0.00000023      -0.00000053      -0.00000077       0.00000106       0.00000481       0.00000544
Cl       2.20487110       1.55907898       7.33864289      -0.00509849      -0.00360547      -0.00000092
Cl       6.26906349       4.43289743       7.33864279       0.00509682       0.00360341       0.00000002
Cl       5.25301518       1.55907934       5.57879605       0.00255004      -0.00360689      -0.00441700
Cl       3.22091914       4.43289727       9.09848976      -0.00254871       0.00360465       0.00441414
Cl       3.22091908       4.43289744       5.57879600      -0.00255033       0.00360514      -0.00441587
Cl       5.25301517       1.55907952       9.09848956       0.00254999      -0.00360543       0.00441518
