9
Lattice="5.360336494628067 -1.6304028292714487e-07 3.0947916430066646 1.786778792079843 5.053772936502147 3.0947914451146006 1.6014405448107042e-07 -1.291283062102522e-07 6.189583008635672" Properties=species:S:1:pos:R:3:forces:R:3 energy=-45.724998474121094 free_energy=-45.724998474121094 stress="0.0001683011942077428 1.9149842600540978e-08 5.641985989512932e-09 1.9149842600540978e-08 0.00016830881941132247 1.3588548952725432e-08 5.641985989512932e-09 1.3588548952725432e-08 0.00016827417130116373" pbc="T T T"
Ba       1.78677897       1.26344307       3.09479162       0.00000104       0.00000021      -0.00000074
Ba       5.36033639       3.79032974       9.28437460      -0.00000019      -0.00000007      -0.00000108
Sb       0.00000004      -0.00000028       0.00000006       0.00000335       0.00000496       0.00000160
F        1.85590013       1.31231909       6.18958299       0.00132450       0.00093578       0.00000007
F        5.29121544       3.74145356       6.18958297      -0.00132807      -0.00093880       0.00000036
F        4.43238649       1.31231905       4.70204797      -0.00066395       0.00093848       0.00114994
F        2.71472892       3.74145362       7.67711813       0.00066432      -0.00093964      -0.00115113
F        2.71472879       3.74145374       4.70204776       0.00066429      -0.00093973       0.00115090
F        4.43238663       1.31231905       7.67711825      -0.00066514       0.00093892      -0.00115003
