9
Lattice="6.623597479031809 6.933133043131834e-08 3.824135797553193 2.2078659079449796 6.244787700735354 3.8241357694335387 2.7671794199401408e-08 -1.4872481314037055e-08 7.648271547177488" Properties=species:S:1:pos:R:3:forces:R:3 energy=-31.606504440307617 free_energy=-31.606504440307617 stress="6.366504385368899e-05 1.4251646973661991e-08 -3.2715536946170687e-09 1.4251646973661991e-08 6.368900358211249e-05 -3.853522834162959e-09 -3.2715536946170687e-09 -3.853522834162959e-09 6.367897003656253e-05" pbc="T T T"
Ba       2.20786560       1.56119687       3.82413546      -0.00000008       0.00000068      -0.00000018
Ba       6.62359822       4.68359089      11.47240767       0.00000067      -0.00000074      -0.00000014
Sb       0.00000046       0.00000006      -0.00000023      -0.00000371       0.00000043       0.00000009
Br       2.30834051       1.63224339       7.64827164      -0.00098899      -0.00069882       0.00000022
Br       6.52312263       4.61254432       7.64827147       0.00099036       0.00069901      -0.00000001
Br       5.46942704       1.63224326       5.82321753       0.00049505      -0.00069872      -0.00085643
Br       3.36203601       4.61254443       9.47332604      -0.00049403       0.00069860       0.00085504
Br       3.36203610       4.61254468       5.82321726      -0.00049402       0.00069840      -0.00085513
Br       5.46942705       1.63224319       9.47332554       0.00049484      -0.00069866       0.00085647
