9
Lattice="7.1110706612480055 -2.5180975015121888e-08 4.105578516068473 2.3703569189502005 6.704381594678236 4.105578419751921 4.996549535987137e-09 -1.1443005441488162e-07 8.211157023482606" Properties=species:S:1:pos:R:3:forces:R:3 energy=-27.541954040527344 free_energy=-27.541954040527344 stress="6.73008689773269e-05 2.8261606388468863e-08 1.1813718892028646e-08 2.8261606388468863e-08 6.728590960847214e-05 -1.9174933640897507e-08 1.1813718892028646e-08 -1.9174933640897507e-08 6.727317668264732e-05" pbc="T T T"
Ba       2.37035700       1.67609463       4.10557784      -0.00000059      -0.00000098       0.00000172
Ba       7.11107063       5.02828665      12.31673601       0.00000029       0.00000027      -0.00000097
Sb      -0.00000004      -0.00000013       0.00000025      -0.00000300       0.00000037      -0.00000175
I        2.46453010       1.74268556       8.21115698      -0.00499302      -0.00353028       0.00000002
I        7.01689742       4.96169573       8.21115704       0.00499490       0.00353280      -0.00000050
I        5.87880570       1.74268569       6.23992403       0.00249613      -0.00352982      -0.00432338
I        3.60262209       4.96169583      10.18239007      -0.00249635       0.00352956       0.00432251
I        3.60262205       4.96169574       6.23992388      -0.00249583       0.00353020      -0.00432254
I        5.87880536       1.74268612      10.18238973       0.00249754      -0.00353217       0.00432494
