9
Lattice="6.3969409040928715 4.870678265332585e-08 3.693275550997426 2.1323136370331093 6.031093754287695 3.693275626490018 4.940284479305823e-08 1.2739227112081258e-07 7.386551016426552" Properties=species:S:1:pos:R:3:forces:R:3 energy=-38.81187057495117 free_energy=-38.81187057495117 stress="-2.7635642254608683e-05 -8.287834418752027e-09 3.2375577219134755e-10 -8.287834418752027e-09 -2.7694288291968405e-05 -1.5401420583316394e-08 3.2375577219134755e-10 -1.5401420583316394e-08 -2.770188257272821e-05" pbc="T T T"
Ba       2.13231398       1.50777337       3.69327511      -0.00000041       0.00000026       0.00000010
Ba       6.39694069       4.52332062      11.07982660      -0.00000006       0.00000057      -0.00000019
Ta       0.00000086      -0.00000087       0.00000045      -0.00000503       0.00000122       0.00000067
Br       2.16376588       1.53001357       7.38655060      -0.00132751      -0.00093842       0.00000057
Br       6.36548828       4.50108018       7.38655116       0.00132960       0.00094175      -0.00000050
Br       5.31505755       1.53001455       5.56715171       0.00066459      -0.00094074      -0.00115055
Br       3.21419660       4.50108057       9.20595076      -0.00066268       0.00093645       0.00114751
Br       3.21419608       4.50108002       5.56715178      -0.00066125       0.00093776      -0.00114721
Br       5.31505834       1.53001372       9.20595055       0.00066283      -0.00093848       0.00114965
