9
Lattice="5.269213443447453 -2.2386962589122435e-07 3.042182083760843 1.7564043027605971 4.967861376218775 3.0421820271613247 -9.432220624497979e-08 -1.3601585407897094e-07 6.084364330892558" Properties=species:S:1:pos:R:3:forces:R:3 energy=-52.73417282104492 free_energy=-52.73417282104492 stress="0.000534825783688575 3.0256213534585186e-08 -2.4127690068098673e-08 3.0256213534585186e-08 0.0005349423736333847 9.724576699454701e-09 -2.4127690068098673e-08 9.724576699454701e-09 0.0005348923150449991" pbc="T T T"
Ba       1.75640450       1.24196520       3.04218180      -0.00000087      -0.00000065      -0.00000113
Ba       5.26921332       3.72589587       9.12654617       0.00000027      -0.00000032       0.00000028
Ta      -0.00000002      -0.00000042       0.00000003      -0.00000369       0.00000227       0.00000193
F        1.75605284       1.24171668       6.08436431       0.00220573       0.00155848       0.00000002
F        5.26956483       3.72614447       6.08436432      -0.00220382      -0.00155759       0.00000050
F        4.39118675       1.24171657       4.56296887      -0.00110143       0.00155640       0.00190818
F        2.63443080       3.72614455       7.60575958       0.00110322      -0.00155932      -0.00191057
F        2.63443102       3.72614451       4.56296913       0.00110185      -0.00155747       0.00190973
F        4.39118650       1.24171670       7.60575938      -0.00110108       0.00155735      -0.00190842
