9
Lattice="7.057065019236396 3.897616609464124e-08 4.074398384231549 2.352355049051761 6.653464708516891 4.074398374025374 1.6201467284601337e-08 -1.0437928148270932e-09 8.148796740401325" Properties=species:S:1:pos:R:3:forces:R:3 energy=-34.251155853271484 free_energy=-34.251155853271484 stress="2.1450208805617876e-05 8.82617001707331e-09 -2.3879134225524012e-09 8.82617001707331e-09 2.1442816432681866e-05 4.079860893568821e-09 -2.3879134225524012e-09 4.079860893568821e-09 2.143137862731237e-05" pbc="T T T"
Ba       2.35235506       1.66336608       4.07439843       0.00000021       0.00000007      -0.00000203
Ba       7.05706505       4.99009858      12.22319507       0.00000045      -0.00000013       0.00000172
Ta      -0.00000002       0.00000014       0.00000015       0.00000033      -0.00000022      -0.00000326
I        2.35560002       1.66566083       8.14879676       0.00044274       0.00031322      -0.00000061
I        7.05382003       4.98780387       8.14879676      -0.00044364      -0.00031373       0.00000019
I        5.87926505       1.66566069       6.11440774      -0.00022124       0.00031343       0.00038359
I        3.53015512       4.98780397      10.18318565       0.00021978      -0.00031099      -0.00038171
I        3.53015505       4.98780405       6.11440774       0.00022124      -0.00031361       0.00038400
I        5.87926498       1.66566077      10.18318571      -0.00021979       0.00031182      -0.00038177
