9
Lattice="7.029864797313937 -5.503403007758894e-08 4.05869434293818 2.3432881247407287 6.627820232356177 4.058694497340239 -9.260800632793975e-08 1.2361937402763963e-07 8.117388846278107" Properties=species:S:1:pos:R:3:forces:R:3 energy=-25.85227394104004 free_energy=-25.85227394104004 stress="-4.662809442379512e-05 -2.5527943647851714e-10 -2.7097533106257288e-09 -2.5527943647851714e-10 -4.661049388232641e-05 9.304494064110713e-09 -2.7097533106257288e-09 9.304494064110713e-09 -4.661230559577234e-05" pbc="T T T"
Ba       2.34328850       1.65695505       4.05869465       0.00000499      -0.00000139       0.00000007
Ba       7.02986418       4.97086524      12.17608314      -0.00000522       0.00000125      -0.00000046
Tl      -0.00000016      -0.00000007       0.00000075       0.00000095       0.00000064      -0.00000345
I        2.47628957       1.75100174       8.11738830      -0.00067195      -0.00047404      -0.00000083
I        6.89686361       4.87681864       8.11738940       0.00067070       0.00047258      -0.00000027
I        5.79171965       1.75100089       6.20322394       0.00033387      -0.00047279      -0.00057924
I        3.58143380       4.87681866      10.03155321      -0.00033634       0.00047659       0.00058267
I        3.58143334       4.87681919       6.20322404      -0.00033340       0.00047418      -0.00058020
I        5.79171882       1.75100184      10.03155334       0.00033631      -0.00047708       0.00058172
