9
Lattice="5.352821104285346 -1.2092806368121389e-07 3.090452919173249 1.7842735762145345 5.046688211207781 3.090452938575477 1.506346848965313e-07 1.3027754136495457e-07 6.180905577439701" Properties=species:S:1:pos:R:3:forces:R:3 energy=-43.575347900390625 free_energy=-43.575347900390625 stress="0.00035373802529647946 -5.969102545577698e-08 2.1969519536924054e-08 -5.969102545577698e-08 0.00035377967287786305 2.7088290721621888e-08 2.1969519536924054e-08 2.7088290721621888e-08 0.0003538403252605349" pbc="T T T"
Ba       1.78427396       1.26167218       3.09045356      -0.00000065      -0.00000099       0.00000001
Ba       5.35282087       3.78501612       9.27135815       0.00000004       0.00000036       0.00000020
Tl      -0.00000031      -0.00000022       0.00000082       0.00000798       0.00000593      -0.00001120
F        1.86588462       1.31937966       6.18090551      -0.00703388      -0.00497403      -0.00000107
F        5.27121089       3.72730899       6.18090554       0.00702429       0.00496723       0.00000021
F        4.41987847       1.31937996       4.70635680       0.00351659      -0.00497302      -0.00609144
F        2.71721611       3.72730820       7.65545416      -0.00351959       0.00497970       0.00609695
F        2.71721613       3.72730816       4.70635670      -0.00351509       0.00497220      -0.00609059
F        4.41987860       1.31937987       7.65545458       0.00352043      -0.00497733       0.00609703
