9
Lattice="6.244241814640803 1.8130039136501085e-09 3.6051147306711573 2.0814139286576303 5.887127716432819 3.6051147501832235 -1.8753571044530182e-08 1.0636510872337385e-08 7.210229493824466" Properties=species:S:1:pos:R:3:forces:R:3 energy=-33.48994064331055 free_energy=-33.48994064331055 stress="-0.00025746665778569877 6.014468478809931e-09 -2.2841624147673656e-09 6.014468478809931e-09 -0.000257463805610314 -2.8086646342018184e-09 -2.2841624147673656e-09 -2.8086646342018184e-09 -0.00025747870677150786" pbc="T T T"
Ba       2.08141385       1.47178193       3.60511476       0.00000003      -0.00000103       0.00000016
Ba       6.24424187       4.41534587      10.81534421      -0.00000010       0.00000028      -0.00000044
Tl       0.00000000       0.00000004      -0.00000004      -0.00000024      -0.00000044       0.00000331
Cl       2.16594869       1.53155697       7.21022945      -0.00546382      -0.00386366       0.00000055
Cl       6.15970705       4.35557069       7.21022945       0.00546439       0.00386452      -0.00000012
Cl       5.16126745       1.53155698       5.48088122       0.00273241      -0.00386439      -0.00473185
Cl       3.16438822       4.35557080       8.93957774      -0.00273134       0.00386277       0.00473040
Cl       3.16438825       4.35557070       5.48088128      -0.00273211       0.00386395      -0.00473176
Cl       5.16126752       1.53155693       8.93957780       0.00273082      -0.00386195       0.00472984
