9
Lattice="5.370787603827816 2.400098020269918e-07 3.100826069381778 1.79026300164452 5.06362651053226 3.1008256523875217 1.3495022309198372e-07 -4.1528744215213505e-07 6.201651905022961" Properties=species:S:1:pos:R:3:forces:R:3 energy=-23.403379440307617 free_energy=-23.403379440307617 stress="0.00014583337178919464 -8.852834909589546e-09 -2.6329507463174195e-08 -8.852834909589546e-09 0.00014571369683835655 2.3940350146745004e-08 -2.6329507463174195e-08 2.3940350146745004e-08 0.0001457904581911862" pbc="T T T"
Be       1.79026254       1.26590667       3.10082681       0.00000012       0.00000039       0.00000134
Be       5.37078698       3.79771989       9.30247914      -0.00000600      -0.00000023       0.00000444
B        0.00000009       0.00000006      -0.00000627      -0.00000058       0.00000193      -0.00007458
Cl       1.65245152       1.16845873       6.20165235       0.00188315       0.00133181       0.00000254
Cl       5.50859966       3.89516737       6.20165192      -0.00188148      -0.00133143       0.00000205
Cl       4.54456181       1.16846059       4.53189121      -0.00094794       0.00134374       0.00164428
Cl       2.61648822       3.89516793       7.87141408       0.00093481      -0.00132498      -0.00161320
Cl       2.61648924       3.89516606       4.53189125       0.00095116      -0.00134411       0.00164649
Cl       4.54456290       1.16845792       7.87141428      -0.00093359       0.00132276      -0.00161314
