9
Lattice="4.099481881852358 0.0003251099789990461 2.366662012014384 1.3666089874779483 3.866215253554351 2.3669936701537235 1.621098651881497e-05 0.0004176677295222002 4.733295946367984" Properties=species:S:1:pos:R:3:forces:R:3 energy=-41.162757873535156 free_energy=-41.162757873535156 stress="-0.00015583785716444254 -5.454651272884803e-06 2.12546692637261e-05 -5.454651272884803e-06 1.4056890904612374e-05 1.7793332517612725e-05 2.12546692637261e-05 1.7793332517612725e-05 -0.0001744949258863926" pbc="T T T"
Be       1.36651861       0.96822978       2.36792221       0.00041264       0.00172166       0.00185564
Be       4.09893324       2.89941569       7.09871950      -0.00051147      -0.00163462      -0.00190993
B        0.00008843      -0.00003552       0.00011232      -0.00003233      -0.00000698      -0.00009670
F        1.26479031       0.89418799       4.73322299       0.00126526      -0.00072470      -0.00030984
F        4.20158813       2.97258270       4.73395963      -0.00133030       0.00091622       0.00040327
F        3.46787159       0.89431070       3.46217055       0.00222384       0.00008279       0.00187132
F        1.99844500       2.97247247       6.00501445      -0.00200265       0.00000852      -0.00181139
F        1.99899660       2.97176055       3.46165665       0.00085934      -0.00172345      -0.00100977
F        3.46738065       0.89509733       6.00556854      -0.00088529       0.00136063       0.00100704
