9
Lattice="5.917267859287148 9.240823295327863e-08 3.4163361912315366 1.9724227318706657 5.578853923328644 3.4163361479563052 -8.434772684820582e-08 -1.1264397057891687e-07 6.832672528557555" Properties=species:S:1:pos:R:3:forces:R:3 energy=-20.11931800842285 free_energy=-20.11931800842285 stress="-0.000144245641422458 3.0679971896319103e-09 -1.760322732025088e-08 3.0679971896319103e-09 -0.00014424730034079403 1.264861548833096e-09 -1.760322732025088e-08 1.264861548833096e-09 -0.00014432170428335667" pbc="T T T"
Be       1.97242278       1.39471350       3.41633605       0.00000016      -0.00000111      -0.00000032
Be       5.91726718       4.18414044      10.24900879      -0.00000175      -0.00000083      -0.00000017
B       -0.00000159      -0.00000298      -0.00000043      -0.00001376      -0.00002012      -0.00000094
Br       1.84953359       1.30781748       6.83267261      -0.00156430      -0.00110607      -0.00000031
Br       6.04015917       4.27103807       6.83267245       0.00157205       0.00111265      -0.00000064
Br       4.99250149       1.30781774       5.01807829       0.00078590      -0.00110372      -0.00135599
Br       2.89718909       4.27103673       8.64726682      -0.00078329       0.00111512       0.00136097
Br       2.89718895       4.27103728       5.01807837      -0.00078201       0.00111167      -0.00135902
Br       4.99250145       1.30781746       8.64726642       0.00078688      -0.00110742       0.00135647
