9
Lattice="5.4072297912022345 -1.5029178540286318e-07 3.121865520783911 1.8024098623978746 5.097984839411436 3.1218653931429197 1.3325766605845212e-07 -6.210026089805918e-08 6.243730810758826" Properties=species:S:1:pos:R:3:forces:R:3 energy=-20.238590240478516 free_energy=-20.238590240478516 stress="0.0005182402092032135 8.030012210724635e-09 5.329503505180355e-09 8.030012210724635e-09 0.0005182282766327262 3.790576297291182e-09 5.329503505180355e-09 3.790576297291182e-09 0.0005182340391911566" pbc="T T T"
Be       1.80241000       1.27449676       3.12186558       0.00000027       0.00000238       0.00000079
Be       5.40722973       3.82348836       9.36559695       0.00000002       0.00000090       0.00000300
N       -0.00000062       0.00000136       0.00000005      -0.00000185       0.00000442       0.00000024
Cl       1.78400105       1.26147886       6.24373060      -0.00198820      -0.00140855       0.00000024
Cl       5.42563847       3.83650545       6.24373076       0.00198993       0.00140482       0.00000287
Cl       4.51522927       1.26147886       4.66685520       0.00099631      -0.00140879      -0.00172564
Cl       2.69440986       3.83650506       7.82060596      -0.00099173       0.00140303       0.00172201
Cl       2.69441101       3.83650537       4.66685577      -0.00099543       0.00140569      -0.00172481
Cl       4.51523032       1.26147831       7.82060609       0.00099064      -0.00140396       0.00172162
