9
Lattice="4.38861157234708 3.4302135754402435e-08 2.5337672992402474 1.462870343212977 4.137623778214721 2.533767668588056 -4.441288042209862e-07 1.3831038711984436e-07 5.067535367734071" Properties=species:S:1:pos:R:3:forces:R:3 energy=-38.89892578125 free_energy=-38.89892578125 stress="0.0008437152719125152 6.111781658546533e-08 1.518996040061893e-09 6.111781658546533e-08 0.0008433206239715219 4.527361152639742e-09 1.518996040061893e-09 4.527361152639742e-09 0.000843432208057493" pbc="T T T"
Be       1.46286925       1.03440674       2.53376658      -0.00000458       0.00000086      -0.00000087
Be       4.38861289       3.10321868       7.60130537       0.00000203       0.00000070       0.00000018
P        0.00000004      -0.00000009      -0.00000007      -0.00000505      -0.00000281      -0.00000966
F        1.31961743       0.93311055       5.06753509      -0.00204110      -0.00144267       0.00000204
F        4.53186392       3.20451327       5.06753441       0.00204986       0.00144458       0.00000052
F        3.72880268       0.93311096       3.67658934       0.00102064      -0.00144321      -0.00176394
F        2.12267862       3.20451302       6.45848004      -0.00102139       0.00144154       0.00177222
F        2.12267915       3.20451312       3.67659004      -0.00102121       0.00144222      -0.00176805
F        3.72880240       0.93311021       6.45847925       0.00102082      -0.00144148       0.00176772
