9
Lattice="6.514366779160963 -7.50882615426997e-08 3.761071257813158 2.171455576901603 6.141803499006013 3.761071163170727 -1.1887174053966236e-08 -1.2431835286137594e-07 7.522142536215512" Properties=species:S:1:pos:R:3:forces:R:3 energy=-16.72519302368164 free_energy=-16.72519302368164 stress="0.00021231695427559316 -7.218623615523612e-11 -2.749450667138831e-09 -7.218623615523612e-11 0.0002122953737853095 5.671585423527858e-10 -2.749450667138831e-09 5.671585423527858e-10 0.00021230289712548256" pbc="T T T"
Be       2.17145534       1.53545093       3.76107130      -0.00000092      -0.00000014       0.00000005
Be       6.51436645       4.60635243      11.28321377       0.00000001       0.00000012       0.00000015
P       -0.00000014      -0.00000022       0.00000009       0.00000087       0.00000055       0.00000002
I        2.24646017       1.58848732       7.52214250      -0.00436702      -0.00308798       0.00000025
I        6.43936200       4.55331630       7.52214237       0.00436716       0.00308819      -0.00000012
I        5.39113688       1.58848697       5.70656294       0.00218374      -0.00308800      -0.00378242
I        3.29468574       4.55331622       9.33772213      -0.00218368       0.00308789       0.00378200
I        3.29468585       4.55331607       5.70656255      -0.00218345       0.00308730      -0.00378194
I        5.39113696       1.58848712       9.33772220       0.00218327      -0.00308794       0.00378194
