9
Lattice="5.508773365704203 -6.333450884860269e-08 3.1804918509340108 1.8362577215029432 5.193721324680575 3.180491863669399 -2.746773442222235e-08 -3.82500845892419e-09 6.360983749443498" Properties=species:S:1:pos:R:3:forces:R:3 energy=-22.50055694580078 free_energy=-22.50055694580078 stress="7.837767043383792e-05 -3.906850309931542e-08 1.3971888535024846e-08 -3.906850309931542e-08 7.840360194677487e-05 1.9930984862526202e-08 1.3971888535024846e-08 1.9930984862526202e-08 7.84238800406456e-05" pbc="T T T"
Be       1.83625774       1.29843042       3.18049181      -0.00000063       0.00000129       0.00000037
Be       5.50877347       3.89529117       9.54147520       0.00000113       0.00000055      -0.00000220
P       -0.00000015      -0.00000003       0.00000013       0.00000027       0.00000015      -0.00000023
Cl       1.79837335       1.27164187       6.36098384       0.00210924       0.00149115      -0.00000015
Cl       5.54665782       3.92207935       6.36098400      -0.00210960      -0.00149269       0.00000104
Cl       4.60958694       1.27164187       4.73792894      -0.00105424       0.00149099       0.00182653
Cl       2.73544431       3.92207917       7.98403844       0.00105331      -0.00149052      -0.00182565
Cl       2.73544428       3.92207933       4.73792883       0.00105516      -0.00149182       0.00182585
Cl       4.60958646       1.27164200       7.98403863      -0.00105457       0.00149097      -0.00182575
