9
Lattice="6.059681047285726 1.7155559304406941e-07 3.498558734654955 2.019893893490697 5.713122469842344 3.4985586492336758 9.700095724773742e-08 -3.602920454843217e-08 6.997117301299303" Properties=species:S:1:pos:R:3:forces:R:3 energy=-19.097103118896484 free_energy=-19.097103118896484 stress="0.00024728765129111707 -2.1705315322861907e-09 -5.918283640937716e-09 -2.1705315322861907e-09 0.00024729821598157287 4.507090256566926e-09 -5.918283640937716e-09 4.507090256566926e-09 0.00024729236611165106" pbc="T T T"
Be       2.01989319       1.42828044       3.49855827      -0.00000141      -0.00000033      -0.00000123
Be       6.05968191       4.28484244      10.49567552       0.00000134       0.00000097      -0.00000233
P       -0.00000009       0.00000004      -0.00000080      -0.00000052      -0.00000050      -0.00000023
Br       2.00933477       1.42081457       6.99711745       0.00132316       0.00093623       0.00000037
Br       6.07024037       4.29230794       6.99711732      -0.00132270      -0.00093594       0.00000072
Br       5.05501384       1.42081398       5.23869404      -0.00066123       0.00093469       0.00114685
Br       3.02456110       4.29230859       8.75554162       0.00066185      -0.00093462      -0.00114593
Br       3.02456147       4.29230815       5.23869414       0.00066122      -0.00093520       0.00114720
Br       5.05501362       1.42081425       8.75554140      -0.00066166       0.00093465      -0.00114544
