9
Lattice="4.665233553608429 7.518423573637091e-08 2.6934737697765034 1.555077948795971 4.398424071367633 2.6934737235155297 1.2890049428281982e-07 3.448852243180838e-08 5.386947316290794" Properties=species:S:1:pos:R:3:forces:R:3 energy=-50.57928466796875 free_energy=-50.57928466796875 stress="-2.249535646114964e-05 -1.946148486808852e-08 2.1419685580781334e-08 -1.946148486808852e-08 -2.2558147975360043e-05 -2.6344515902110288e-08 2.1419685580781334e-08 -2.6344515902110288e-08 -2.236783257103525e-05" pbc="T T T"
Bi       1.55507802       1.09960597       2.69347364       0.00000015       0.00000012      -0.00000021
Bi       4.66523349       3.29881821       8.08042124      -0.00000069      -0.00000036       0.00000009
As       0.00000005       0.00000012      -0.00000006       0.00000231      -0.00000319       0.00000009
O        1.50614390       1.06500426       5.38694726      -0.00004554      -0.00003207       0.00000024
O        4.71416806       3.33341997       5.38694747       0.00004303       0.00003052      -0.00000014
O        3.91216179       1.06500454       3.99783245       0.00002444      -0.00003052      -0.00003958
O        2.30814993       3.33341972       6.77606264      -0.00002289       0.00003207       0.00004029
O        2.30814974       3.33341964       3.99783244      -0.00002313       0.00003350      -0.00004089
O        3.91216176       1.06500441       6.77606256       0.00002176      -0.00003004       0.00003874
