9
Lattice="6.607210131534269 1.0617814389144541e-08 3.8146745976193253 2.2024034160637123 6.229337449275805 3.814674547606244 5.66316611099255e-08 -2.1208628078365042e-08 7.629349097149728" Properties=species:S:1:pos:R:3:forces:R:3 energy=-23.707151412963867 free_energy=-23.707151412963867 stress="-2.8675089197349735e-05 -3.2154272577855636e-09 -2.5173620965546206e-09 -3.2154272577855636e-09 -2.867626244551502e-05 5.100225131116076e-09 -2.5173620965546206e-09 5.100225131116076e-09 -2.8672371627180837e-05" pbc="T T T"
Bi       2.20240335       1.55733453       3.81467461      -0.00000020       0.00000042      -0.00000023
Bi       6.60721004       4.67200362      11.44402384      -0.00000011       0.00000186       0.00000067
As       0.00000010      -0.00000030      -0.00000007       0.00000165       0.00000265      -0.00000010
Br       2.16849703       1.53335863       7.62934907      -0.00690155      -0.00488077       0.00000006
Br       6.64111696       4.69597864       7.62934922       0.00690018       0.00487852      -0.00000033
Br       5.52296164       1.53335867       5.69264798       0.00345081      -0.00488093      -0.00597690
Br       3.28665189       4.69597848       9.56605037      -0.00345100       0.00487962       0.00597674
Br       3.28665185       4.69597862       5.69264778      -0.00345033       0.00487950      -0.00597653
Br       5.52296161       1.53335882       9.56605018       0.00345054      -0.00488088       0.00597662
