9
Lattice="4.924134389067917 -3.7821274710323934e-08 2.842950293814041 1.6413781271207033 4.642518079074498 2.8429502365011214 -6.987717353743119e-08 -1.1960428717652762e-07 5.685900708658827" Properties=species:S:1:pos:R:3:forces:R:3 energy=-34.82982635498047 free_energy=-34.82982635498047 stress="0.00012324145063757896 -2.0396214495121967e-08 7.04096621007011e-08 -2.0396214495121967e-08 0.00012326068826951087 1.8960923497957083e-08 7.04096621007011e-08 1.8960923497957083e-08 0.0001231157366419211" pbc="T T T"
Bi       1.64137752       1.16062862       2.84295033      -0.00000499      -0.00000574       0.00000133
Bi       4.92413498       3.48188928       8.52884925       0.00000542       0.00000496      -0.00000943
Ag      -0.00000002      -0.00000022       0.00000076      -0.00000245       0.00000279      -0.00000643
F        1.74986564       1.23734125       5.68590061      -0.00060532      -0.00043042      -0.00000001
F        4.81564687       3.40517666       5.68590122       0.00060606       0.00043166       0.00000387
F        4.04920145       1.23734168       4.35837878       0.00030319      -0.00043202      -0.00052202
F        2.51631104       3.40517654       7.01342270      -0.00030416       0.00043257       0.00052486
F        2.51631077       3.40517608       4.35837878      -0.00030590       0.00042856      -0.00052074
F        4.04920175       1.23734179       7.01342239       0.00030785      -0.00043227       0.00052867
