9
Lattice="5.790071083381695 -1.3927886666341344e-07 3.342899027297139 1.9300235789467493 5.458931342364488 3.3428989999314025 -1.4887074590001297e-08 -4.404276723682434e-08 6.685798080379339" Properties=species:S:1:pos:R:3:forces:R:3 energy=-32.90080642700195 free_energy=-32.90080642700195 stress="-0.00022994625032879412 1.0250947646284203e-08 1.0978124187488447e-08 1.0250947646284203e-08 -0.00022995394829194993 1.4744046872294803e-08 1.0978124187488447e-08 1.4744046872294803e-08 -0.00022992466983851045" pbc="T T T"
Bi       1.93002428       1.36473146       3.34289879       0.00000344      -0.00000702      -0.00000025
Bi       5.79007199       4.09420095      10.02869785       0.00000485       0.00001215       0.00000223
As      -0.00000014      -0.00000005      -0.00000011       0.00000029      -0.00000106      -0.00000106
Se       2.04497740       1.44601673       6.68579815      -0.00786413      -0.00556294      -0.00000023
Se       5.67511725       4.01291444       6.68579759       0.00786265       0.00556277      -0.00000127
Se       4.76758191       1.44601637       5.11390154       0.00393041      -0.00556324      -0.00680935
Se       2.95251182       4.01291428       8.25769447      -0.00393413       0.00556200       0.00681061
Se       2.95251214       4.01291447       5.11390148      -0.00393316       0.00556076      -0.00680985
Se       4.76758196       1.44601605       8.25769466       0.00392984      -0.00556336       0.00680917
