9
Lattice="5.501320276172593 -2.958991944235794e-07 3.176189283332997 1.8337732475678494 5.186693862102072 3.176189108130184 -2.8098652174805446e-07 -4.132662958876382e-07 6.352379053348982" Properties=species:S:1:pos:R:3:forces:R:3 energy=-35.81526184082031 free_energy=-35.81526184082031 stress="-0.00023418142518494278 -2.2104932995148374e-08 -4.265160225003228e-09 -2.2104932995148374e-08 -0.00023435204639099538 -5.408034198239875e-08 -4.265160225003228e-09 -5.408034198239875e-08 -0.00023412321752402931" pbc="T T T"
Bi       1.83377973       1.29664331       3.17621026       0.00000963      -0.00004561       0.00002931
Bi       5.50130065       3.89004459       9.52857404      -0.00003076       0.00003747       0.00000674
As      -0.00000043       0.00000135      -0.00000249       0.00002912      -0.00001288      -0.00000720
F        1.65792727       1.17231858       6.35236921       0.00138649       0.00095593      -0.00002106
F        5.67716539       4.01437430       6.35237519      -0.00140783      -0.00096574      -0.00000937
F        4.67235396       1.17232190       4.61199124      -0.00071131       0.00098399       0.00120233
F        2.66274320       4.01437656       8.09275973       0.00069935      -0.00094137      -0.00119811
F        2.66274406       4.01436998       4.61199139       0.00070991      -0.00097088       0.00119445
F        4.67235954       1.17232193       8.09276101      -0.00068460       0.00095904      -0.00119700
