9
Lattice="6.7654513843683235 -6.232745770045197e-08 3.9060351669651094 2.2551504031639946 6.3785287552037575 3.90603516614966 -9.033329745957423e-10 -1.6374443695482114e-09 7.8120703354948065" Properties=species:S:1:pos:R:3:forces:R:3 energy=-19.377859115600586 free_energy=-19.377859115600586 stress="-6.724168633809313e-05 1.9702768305762675e-09 3.2215645706656915e-09 1.9702768305762675e-09 -6.725041021127254e-05 -4.386512930665276e-09 3.2215645706656915e-09 -4.386512930665276e-09 -6.72573660267517e-05" pbc="T T T"
Bi       2.25515020       1.59463247       3.90603523      -0.00000048       0.00000080      -0.00000004
Bi       6.76545158       4.78389667      11.71810537       0.00000057      -0.00000016      -0.00000038
Au       0.00000021       0.00000008      -0.00000013       0.00000010       0.00000005      -0.00000021
I        2.33877487       1.65376360       7.81207033      -0.00232496      -0.00164372       0.00000008
I        6.68182679       4.72476486       7.81207044       0.00232502       0.00164370       0.00000020
I        5.59606402       1.65376358       5.93147385       0.00116264      -0.00164428      -0.00201346
I        3.42453773       4.72476500       9.69266688      -0.00116294       0.00164378       0.00201374
I        3.42453773       4.72476488       5.93147376      -0.00116280       0.00164348      -0.00201336
I        5.59606401       1.65376362       9.69266693       0.00116283      -0.00164367       0.00201341
