9
Lattice="6.95875332902412 -4.332117181605232e-08 4.0176381475048135 2.3195843875310196 6.560775669461601 4.0176381728507495 -4.224097770267086e-09 2.8055367170900937e-08 8.035276302326016" Properties=species:S:1:pos:R:3:forces:R:3 energy=-21.583553314208984 free_energy=-21.583553314208984 stress="0.0001412015553796664 -9.417815860501833e-09 1.9720794441902e-10 -9.417815860501833e-09 0.00014121616550255567 1.2274847804860656e-09 1.9720794441902e-10 1.2274847804860656e-09 0.0001412157143931836" pbc="T T T"
Bi       2.31958460       1.64019428       4.01763804       0.00000003       0.00000081       0.00000001
Bi       6.95875309       4.92058181      12.05291452      -0.00000000      -0.00000011       0.00000002
As       0.00000001       0.00000007       0.00000015      -0.00000034      -0.00000057      -0.00000006
I        2.32659728       1.64515272       8.03527633      -0.00174950      -0.00123688       0.00000007
I        6.95174036       4.91562284       8.03527630       0.00175031       0.00123765       0.00000005
I        5.79545442       1.64515293       6.03253068       0.00087536      -0.00123793      -0.00151625
I        3.48288333       4.91562249      10.03802187      -0.00087559       0.00123745       0.00151614
I        3.48288329       4.91562257       6.03253077      -0.00087553       0.00123743      -0.00151626
I        5.79545449       1.64515291      10.03802185       0.00087531      -0.00123790       0.00151630
