9
Lattice="6.242746164283844 3.883059541097192e-07 3.604250726298232 2.080915538784505 5.88571737042569 3.604251099396713 -1.5501124482802023e-07 3.4734097930048165e-07 7.20850172108376" Properties=species:S:1:pos:R:3:forces:R:3 energy=-26.837635040283203 free_energy=-26.837635040283203 stress="0.0001353837869828567 -5.011577819402646e-10 -1.796388815478167e-08 -5.011577819402646e-10 0.00013532246521208435 5.702108651917115e-08 -1.796388815478167e-08 5.702108651917115e-08 0.00013538525672629476" pbc="T T T"
Bi       2.08091632       1.47142563       3.60424988       0.00000254      -0.00000820      -0.00000226
Bi       6.24274697       4.41428907      10.81275327       0.00000190      -0.00000097       0.00000092
As      -0.00000055       0.00000162       0.00000205       0.00000112      -0.00000769      -0.00001631
Cl       1.99625467       1.41156554       7.20850275       0.00112185       0.00079586       0.00000251
Cl       6.32740635       4.47415317       7.20850142      -0.00112343      -0.00079008       0.00000097
Cl       5.24461780       1.41156573       5.33305762      -0.00056155       0.00079448       0.00097284
Cl       3.07904345       4.47415246       9.08394365       0.00055751      -0.00078590      -0.00096516
Cl       3.07904219       4.47415335       5.33305791       0.00056294      -0.00079400       0.00097850
Cl       5.24461902       1.41156582       9.08394561      -0.00056291       0.00079653      -0.00097199
