9
Lattice="6.726016303904625 -6.006847389423258e-08 3.8832672969793247 2.2420053511420432 6.341349044348386 3.8832673435016254 -6.182846879765755e-08 1.3258739802711693e-08 7.766534701048708" Properties=species:S:1:pos:R:3:forces:R:3 energy=-19.069936752319336 free_energy=-19.069936752319336 stress="-0.00011383726086933166 2.825953693275096e-09 -2.598523618502213e-09 2.825953693275096e-09 -0.00011382328375475481 2.2717050462972566e-09 -2.598523618502213e-09 2.2717050462972566e-09 -0.00011382390221115202" pbc="T T T"
Bi       2.24200566       1.58533760       3.88326727       0.00000039       0.00000093      -0.00000018
Bi       6.72601621       4.75601211      11.64980180      -0.00000016       0.00000078      -0.00000013
Ag      -0.00000017       0.00000019       0.00000009       0.00000026      -0.00000057      -0.00000059
I        2.32022696       1.64064810       7.76653462      -0.00254527      -0.00180000       0.00000025
I        6.64779474       4.70070066       7.76653470       0.00254545       0.00179972      -0.00000005
I        5.56590263       1.64064810       5.89264284       0.00127216      -0.00180003      -0.00220415
I        3.40211888       4.70070054       9.64042656      -0.00127262       0.00179972       0.00220492
I        3.40211874       4.70070060       5.89264293      -0.00127253       0.00179965      -0.00220446
I        5.56590270       1.64064810       9.64042651       0.00127230      -0.00180020       0.00220437
