9
Lattice="5.091839805324019 -2.0118074218424216e-07 2.939775127418865 1.6972797806004152 4.800632398693716 2.9397750665072153 -4.953776598762266e-07 -4.24886250325251e-07 5.8795511128569995" Properties=species:S:1:pos:R:3:forces:R:3 energy=-32.99580001831055 free_energy=-32.99580001831055 stress="1.872714165074285e-05 1.06335651395284e-08 1.9620389934971172e-07 1.06335651395284e-08 1.8869743144023232e-05 1.309705481844503e-07 1.9620389934971172e-07 1.309705481844503e-07 1.8750331946648657e-05" pbc="T T T"
Bi       1.69727949       1.20015578       2.93977768      -0.00000250      -0.00001000       0.00001060
Bi       5.09183710       3.60047607       8.81931536      -0.00001061       0.00001064      -0.00005675
Au       0.00000046      -0.00000003       0.00000102      -0.00000197       0.00000017       0.00000214
F        1.79110841       1.26650469       5.87955155      -0.00039436      -0.00028419      -0.00000084
F        4.99801167       3.53412684       5.87955352       0.00039952       0.00028300       0.00002105
F        4.19628354       1.26650258       4.49092177       0.00019019      -0.00029498      -0.00033853
F        2.59283622       3.53412866       7.26818134      -0.00018205       0.00028959       0.00034951
F        2.59283316       3.53412735       4.49092214      -0.00020381       0.00028190      -0.00033770
F        4.19628626       1.26650528       7.26818137       0.00020583      -0.00027615       0.00035053
