9
Lattice="6.041830226914256 -1.5950468070964158e-07 3.4882520491773907 2.0139432280904424 5.696291985234271 3.488252102002294 7.438946669301658e-08 1.1729836146208246e-07 6.976503969508412" Properties=species:S:1:pos:R:3:forces:R:3 energy=-24.355634689331055 free_energy=-24.355634689331055 stress="8.55379767017439e-05 -4.365948935713959e-09 -1.6631258148436245e-08 -4.365948935713959e-09 8.55265388963744e-05 -2.5314632168260687e-08 -1.6631258148436245e-08 -2.5314632168260687e-08 8.552620420232415e-05" pbc="T T T"
Bi       2.01394242       1.42407287       3.48825222      -0.00000705      -0.00000010       0.00000069
Bi       6.04183011       4.27221976      10.46475662      -0.00000021       0.00000293       0.00000537
Ag       0.00000029       0.00000013       0.00000020      -0.00000046      -0.00000057      -0.00000119
Cl       2.06269364       1.45854431       6.97650393      -0.00062387      -0.00044357      -0.00000035
Cl       5.99308031       4.23774702       6.97650352       0.00062722       0.00044388      -0.00000314
Cl       5.01048376       1.45854418       5.27459675       0.00031360      -0.00044341      -0.00054248
Cl       3.04528993       4.23774731       8.67841112      -0.00031316       0.00044300       0.00054120
Cl       3.04528960       4.23774751       5.27459720      -0.00031260       0.00044232      -0.00054030
Cl       5.01048404       1.45854468       8.67841091       0.00031660      -0.00044461       0.00054036
