9
Lattice="6.111633580863758 -9.887711055885122e-08 3.5285531236201457 2.0372111264436734 5.762103045954645 3.528553078509528 -2.663750027202021e-08 -7.408459849618419e-08 7.057106293377787" Properties=species:S:1:pos:R:3:forces:R:3 energy=-24.18062400817871 free_energy=-24.18062400817871 stress="0.00011528041795827448 1.5227310523613369e-09 3.0746400980774524e-09 1.5227310523613369e-09 0.00011528423783602193 7.164405735338164e-10 3.0746400980774524e-09 7.164405735338164e-10 0.00011528642062330619" pbc="T T T"
Bi       2.03721068       1.44052589       3.52855454      -0.00000123       0.00000152       0.00000490
Bi       6.11163345       4.32157833      10.58565899      -0.00000043       0.00000479      -0.00000090
Au      -0.00000005      -0.00000014      -0.00000105      -0.00000038       0.00000036       0.00000917
Cl       2.04395307       1.44529205       7.05710592       0.00052929       0.00037159      -0.00000176
Cl       6.10489235       4.31681029       7.05710642      -0.00052955      -0.00037396       0.00000107
Cl       5.08965661       1.44529284       5.29866857      -0.00026292       0.00036967       0.00045554
Cl       3.05918699       4.31681029       8.81554442       0.00026645      -0.00037626      -0.00046182
Cl       3.05918773       4.31680952       5.29866803       0.00026334      -0.00037313       0.00045514
Cl       5.08965786       1.44529244       8.81554416      -0.00026462       0.00037546      -0.00046135
