9
Lattice="5.590981578418929 -3.7375186984467294e-08 3.2279542847719496 1.8636605473318264 5.2712277740320825 3.22795418703253 3.06329835326379e-08 -9.804499748216695e-08 6.455908516486061" Properties=species:S:1:pos:R:3:forces:R:3 energy=-35.86771011352539 free_energy=-35.86771011352539 stress="-0.00013760357978753746 -8.435090848024629e-09 -2.0057209226820305e-08 -8.435090848024629e-09 -0.00013762274465989321 -1.025329865456115e-08 -2.0057209226820305e-08 -1.025329865456115e-08 -0.00013758493878412992" pbc="T T T"
Bi       1.86366156       1.31780586       3.22795435       0.00000618      -0.00000739       0.00000041
Bi       5.59098044       3.95342105       9.68386125      -0.00000766       0.00000231      -0.00001121
As       0.00000008      -0.00000013       0.00000006      -0.00000126       0.00000081      -0.00000030
S        1.90589294       1.34766884       6.45590847       0.00184840       0.00130382       0.00000034
S        5.54874938       3.92355862       6.45590866      -0.00184852      -0.00130251       0.00000457
S        4.63803468       1.34766911       4.87850583      -0.00092602       0.00130421       0.00159803
S        2.81660747       3.92355842       8.03331154       0.00092804      -0.00130475      -0.00159842
S        2.81660708       3.92355864       4.87850556       0.00092313      -0.00130442       0.00160164
S        4.63803510       1.34767034       8.03331206      -0.00092199       0.00130761      -0.00159526
