9
Lattice="4.730978222693379 -5.547929230695456e-08 2.731431382508284 1.5769926413389086 4.460409562855492 2.7314314643521125 -4.004983643810286e-08 7.191828136325059e-08 5.4628628343848336" Properties=species:S:1:pos:R:3:forces:R:3 energy=-38.064449310302734 free_energy=-38.064449310302734 stress="-0.0002635122218634933 -4.767211692069395e-08 -2.0259982580483893e-09 -4.767211692069395e-08 -0.00026358195464126766 9.23090226478962e-09 -2.0259982580483893e-09 9.23090226478962e-09 -0.0002636008139234036" pbc="T T T"
Bi       1.57699176       1.11510353       2.73143247      -0.00001338       0.00001053       0.00001177
Bi       4.73097483       3.34530717       8.19429544      -0.00003352       0.00000082       0.00001676
B       -0.00000007      -0.00000019       0.00000093      -0.00000161       0.00000033       0.00000512
F        1.47202703       1.04087971       5.46286245      -0.00158459      -0.00113064      -0.00000535
F        4.83594498       3.41952930       5.46286260       0.00159711       0.00112134      -0.00000699
F        3.99496580       1.04088007       4.00624271       0.00080237      -0.00112295      -0.00138301
F        2.31300661       3.41952967       6.91948231      -0.00078616       0.00112367       0.00137794
F        2.31300663       3.41952942       4.00624228      -0.00078428       0.00112325      -0.00138968
F        3.99496599       1.04087977       6.91948147       0.00080350      -0.00112611       0.00137281
