9
Lattice="6.141685535373121 2.1408692122210924e-08 3.5459037841677485 2.047228531081432 5.790436619801 3.5459037857161233 -3.106847878379661e-09 -3.005176593968148e-10 7.0918075737167925" Properties=species:S:1:pos:R:3:forces:R:3 energy=-24.336355209350586 free_energy=-24.336355209350586 stress="9.115933789871633e-05 2.799697362831921e-09 -2.7336172436775996e-08 2.799697362831921e-09 9.118462912738323e-05 -2.0423357227628003e-08 -2.7336172436775996e-08 -2.0423357227628003e-08 9.117047738982365e-05" pbc="T T T"
Bi       2.04722870       1.44760985       3.54590367       0.00000003       0.00000286      -0.00000019
Bi       6.14168530       4.34282704      10.63770994      -0.00000052      -0.00000196      -0.00000746
Be      -0.00000004       0.00000001       0.00000004       0.00000007       0.00000042      -0.00000038
Br       1.97985823       1.39997139       7.09180770       0.00808112       0.00571626       0.00000122
Br       6.20905591       4.39046522       7.09180811      -0.00808218      -0.00571443       0.00000189
Br       5.15175619       1.39997108       5.26051167      -0.00404128       0.00571429       0.00699819
Br       3.03715797       4.39046551       8.92310398       0.00404245      -0.00571634      -0.00699883
Br       3.03715747       4.39046514       5.26051160       0.00404086      -0.00571641       0.00700148
Br       5.15175656       1.39997131       8.92310380      -0.00404041       0.00571533      -0.00699598
