9
Lattice="7.329970799444678 1.9691091938316004e-07 4.231960613596698 2.4433237535526353 6.91076289197655 4.231960668869357 2.720674275059882e-08 8.693289472577122e-08 8.463921180069969" Properties=species:S:1:pos:R:3:forces:R:3 energy=-22.025474548339844 free_energy=-22.025474548339844 stress="1.2241561307746451e-05 -1.5286476084952483e-08 6.237338645576074e-09 -1.5286476084952483e-08 1.225912001245888e-05 -1.0166226083185848e-08 6.237338645576074e-09 -1.0166226083185848e-08 1.2254557987034786e-05" pbc="T T T"
Bi       2.44332369       1.72769085       4.23196067       0.00000157      -0.00000080      -0.00000123
Bi       7.32997097       5.18307234      12.69588195      -0.00000182       0.00000067       0.00000231
Ba      -0.00000033      -0.00000070      -0.00000134       0.00000266       0.00000356       0.00000428
I        2.71275953       1.91821071       8.46392098      -0.00024536      -0.00017362      -0.00000011
I        7.06053579       4.99255291       8.46392100       0.00024223       0.00017151      -0.00000034
I        5.97359121       1.91821091       6.58127907       0.00012302      -0.00017432      -0.00021257
I        3.79970257       4.99255335      10.34656451      -0.00012066       0.00017060       0.00020950
I        3.79970304       4.99255257       6.58127875      -0.00012252       0.00017358      -0.00021182
I        5.97359182       1.91820981      10.34656430       0.00012085      -0.00017115       0.00021000
