9
Lattice="6.44585290269528 4.001103296597173e-08 3.7215149056016164 2.148617672822087 6.077208408669372 3.7215149040989695 2.116111278705251e-07 1.477912827089738e-07 7.443029444682038" Properties=species:S:1:pos:R:3:forces:R:3 energy=-26.845434188842773 free_energy=-26.845434188842773 stress="0.000253396516200155 1.0482280821122458e-08 -3.2994250886986265e-08 1.0482280821122458e-08 0.0002533455262891948 -6.457315571140043e-09 -3.2994250886986265e-08 -6.457315571140043e-09 0.00025339736021123827" pbc="T T T"
Bi       2.14861756       1.51930275       3.72151570      -0.00000156       0.00000106       0.00000349
Bi       6.44585181       4.55790486      11.16454737      -0.00000414      -0.00000621       0.00001036
Ba       0.00000021      -0.00000013       0.00000015       0.00000131      -0.00000196      -0.00000115
Cl       2.36454539       1.67198637       7.44302942      -0.00000631      -0.00000395      -0.00000172
Cl       6.22992513       4.40522235       7.44302840       0.00000854       0.00000474      -0.00000557
Cl       5.26358036       1.67198685       5.76927027       0.00000403       0.00000015      -0.00000821
Cl       3.33089069       4.40522283       9.11678727      -0.00000524       0.00000536       0.00000692
Cl       3.33089119       4.40522232       5.76927057      -0.00000004       0.00000252      -0.00000833
Cl       5.26358090       1.67198615       9.11678793       0.00000345      -0.00000166       0.00000415
