9
Lattice="6.646585084121544 -8.568123351074157e-08 3.837408374868579 2.2155285729151513 6.2664614027641345 3.837407868551336 5.118741245283524e-07 -2.5815970224214343e-07 7.67481586314509" Properties=species:S:1:pos:R:3:forces:R:3 energy=-23.630352020263672 free_energy=-23.630352020263672 stress="-0.00010434447176521644 3.443732410346456e-08 -9.072850915003983e-09 3.443732410346456e-08 -0.0001043165975715965 5.179020323708983e-09 -9.072850915003983e-09 5.179020323708983e-09 -0.00010428163659526035" pbc="T T T"
Bi       2.21552862       1.56661408       3.83740879      -0.00000062      -0.00000231       0.00000146
Bi       6.64658292       4.69984666      11.51222548      -0.00000300       0.00000159       0.00000155
B        0.00000121       0.00001174       0.00003889       0.00000366       0.00004464       0.00014885
Br       1.85428631       1.31117791       7.67481347       0.00035100       0.00023864      -0.00001585
Br       7.00782513       4.95527945       7.67481261      -0.00036065      -0.00025573      -0.00001575
Br       5.71944592       1.31117281       5.44325932      -0.00016918       0.00023109       0.00027154
Br       3.14267681       4.95527503       9.90635250       0.00019040      -0.00026786      -0.00033651
Br       3.14267019       4.95528355       5.44326201       0.00017377      -0.00024478       0.00027626
Br       5.71943957       1.31118285       9.90635520      -0.00018531       0.00025489      -0.00033136
