9
Lattice="6.68182092824508 1.665427478049965e-08 3.857751177369167 2.2272736497187755 6.2996812416679635 3.8577511924922625 2.190949836080855e-08 3.401447898208922e-08 7.7155023167897285" Properties=species:S:1:pos:R:3:forces:R:3 energy=-21.066747665405273 free_energy=-21.066747665405273 stress="-0.00013554067118093371 -4.2170564817922696e-09 1.4485561639077105e-09 -4.2170564817922696e-09 -0.00013552771997638047 -3.0362898861824306e-09 1.4485561639077105e-09 -3.0362898861824306e-09 -0.00013553998724091798" pbc="T T T"
Bi       2.22727368       1.57492061       3.85775088       0.00000030       0.00000068      -0.00000070
Bi       6.68182104       4.72476055      11.57325321      -0.00000038      -0.00000052       0.00000015
Be       0.00000022      -0.00000011       0.00000006      -0.00000106       0.00000084       0.00000076
I        2.14518514       1.51687503       7.71550242       0.00666941       0.00471651       0.00000046
I        6.76390926       4.78280612       7.71550242      -0.00666973      -0.00471587      -0.00000004
I        5.60922814       1.51687507       5.71553637      -0.00333414       0.00471581       0.00577475
I        3.29986616       4.78280639       9.71546889       0.00333543      -0.00471749      -0.00577786
I        3.29986645       4.78280641       5.71553619       0.00333493      -0.00471615       0.00577729
I        5.60922831       1.51687512       9.71546832      -0.00333469       0.00471625      -0.00577476
