9
Lattice="6.83202857127878 -2.73463739731741e-08 3.944473289409228 2.277342878069081 6.441298101979934 3.9444732084210234 2.375563193993088e-08 -8.239211782759998e-08 7.88894653767245" Properties=species:S:1:pos:R:3:forces:R:3 energy=-23.89895248413086 free_energy=-23.89895248413086 stress="7.116431515896693e-05 8.61484039660354e-09 -7.748500507887002e-09 8.61484039660354e-09 7.116748747648671e-05 -9.525293442891325e-09 -7.748500507887002e-09 -9.525293442891325e-09 7.117513450793922e-05" pbc="T T T"
Bi       2.27734338       1.61032433       3.94447289       0.00000171      -0.00000164      -0.00000155
Bi       6.83202768       4.83097343      11.83342019      -0.00000206       0.00000129       0.00000062
Ba       0.00000008       0.00000017       0.00000065       0.00000045      -0.00000064      -0.00000571
Br       2.52093796       1.78257198       7.88894672      -0.00088679      -0.00062861       0.00000040
Br       6.58843339       4.65872606       7.88894631       0.00088692       0.00062889       0.00000026
Br       5.57156010       1.78257203       6.12766890       0.00044243      -0.00062584      -0.00076737
Br       3.53781189       4.65872589       9.65022386      -0.00044398       0.00062844       0.00077122
Br       3.53781202       4.65872613       6.12766895      -0.00044193       0.00062739      -0.00076771
Br       5.57155934       1.78257190       9.65022366       0.00044326      -0.00062928       0.00076995
