9
Lattice="6.139356643431361 -7.982301552247969e-07 3.544558572162389 2.0464516103829062 5.788241239911746 3.54455831497994 -2.1917233576414762e-07 -4.699612625377212e-07 7.089117523942573" Properties=species:S:1:pos:R:3:forces:R:3 energy=-27.07978057861328 free_energy=-27.07978057861328 stress="3.0080318538239226e-05 -7.341639474134354e-08 -1.3726120684509624e-08 -7.341639474134354e-08 3.0095114198047668e-05 3.346912791357681e-08 -1.3726120684509624e-08 3.346912791357681e-08 2.9867867851862684e-05" pbc="T T T"
Bi       2.04645423       1.44706021       3.54455751       0.00000284      -0.00000107       0.00000091
Bi       6.13936023       4.34118130      10.63367835       0.00000521       0.00000186       0.00000562
B        0.00002878       0.00001199      -0.00000311       0.00029576       0.00011279      -0.00003696
Cl       1.69545219       1.19886649       7.08911633       0.00028311       0.00020492       0.00000674
Cl       6.49033350       4.58935943       7.08911766      -0.00051202      -0.00035378       0.00000021
Cl       5.29162066       1.19887500       5.01287427      -0.00021193       0.00028580       0.00036851
Cl       2.89417987       4.58936720       9.16536398       0.00017319      -0.00026518      -0.00033300
Cl       2.89418168       4.58936545       5.01287186       0.00017971      -0.00026549       0.00034612
Cl       5.29162093       1.19887267       9.16536078      -0.00021615       0.00028037      -0.00035787
