9
Lattice="5.456956300171212 2.7710008609332964e-07 3.150575400599778 1.8189856978290915 5.144866945536766 3.150575395081087 5.339345159154056e-07 3.707897162977763e-07 6.3011498763978615" Properties=species:S:1:pos:R:3:forces:R:3 energy=-36.09181594848633 free_energy=-36.09181594848633 stress="0.00012165832595201209 1.337708166460061e-08 -2.9050923444629007e-07 1.337708166460061e-08 0.0001223356375703588 -1.9891757574441726e-07 -2.9050923444629007e-07 -1.9891757574441726e-07 0.00012184376828372478" pbc="T T T"
Bi       1.81898640       1.28621579       3.15057270       0.00000755      -0.00001031      -0.00002058
Bi       5.45695585       3.85865572       9.45172965      -0.00001161       0.00004127       0.00003245
Ba      -0.00000025       0.00000034       0.00000008       0.00000471       0.00000092       0.00000054
F        1.97029949       1.39320867       6.30115071       0.00343533       0.00240239       0.00000941
F        5.30564463       3.75165697       6.30114926      -0.00342727      -0.00241843      -0.00001595
F        4.47180739       1.39321059       4.85690321      -0.00171229       0.00241867       0.00296944
F        2.80413441       3.75165635       7.74539762       0.00170507      -0.00242203      -0.00296342
F        2.80413635       3.75165745       4.85690329       0.00172546      -0.00241054       0.00296173
F        4.47180592       1.39320875       7.74539610      -0.00172681       0.00239805      -0.00297347
