9
Lattice="5.693963510802109 -3.296687117197403e-08 3.287411641848543 1.8979880151417936 5.368319682873561 3.2874112793488477 3.6323281649728447e-07 -1.8712517004999857e-07 6.5748226545591955" Properties=species:S:1:pos:R:3:forces:R:3 energy=-28.425683975219727 free_energy=-28.425683975219727 stress="-0.00010643223504303023 -1.0540666117719866e-09 1.0679062967255959e-07 -1.0540666117719866e-09 -0.00010644504800438881 8.059504352786462e-08 1.0679062967255959e-07 8.059504352786462e-08 -0.00010635287617333233" pbc="T T T"
Bi       1.89798886       1.34207647       3.28740875       0.00000495      -0.00001611      -0.00001131
Bi       5.69396084       4.02623740       9.86223510      -0.00001532      -0.00001319       0.00000311
Be       0.00000019       0.00000058       0.00000058       0.00000083       0.00000311      -0.00000013
Cl       1.81101163       1.28057824       6.57482226       0.00141660       0.00099927       0.00000409
Cl       5.78094060       4.08774305       6.57482190      -0.00142301      -0.00099500      -0.00000243
Cl       4.78845942       1.28057879       4.85579325      -0.00070653       0.00100862       0.00122437
Cl       2.80349382       4.08774090       8.29385376       0.00071291      -0.00099674      -0.00122634
Cl       2.80349339       4.08774326       4.85579317       0.00071620      -0.00099654       0.00123114
Cl       4.78845869       1.28057917       8.29385346      -0.00070645       0.00100623      -0.00122253
