9
Lattice="4.796679463574962 2.041975989990889e-07 2.769364212007226 1.5988932410975276 4.522353073815421 2.769364395512448 -1.031461145916743e-07 1.5181180848386117e-07 5.538728602668729" Properties=species:S:1:pos:R:3:forces:R:3 energy=-41.84971618652344 free_energy=-41.84971618652344 stress="0.00043105860822834074 2.618907757323541e-09 -7.86215093029341e-09 2.618907757323541e-09 0.0004310968506615609 -1.1577260039530302e-08 -7.86215093029341e-09 -1.1577260039530302e-08 0.0004311217344366014" pbc="T T T"
Bi       1.59889274       1.13058881       2.76936436      -0.00000187       0.00000119      -0.00000018
Bi       4.79667957       3.39176483       8.30809327      -0.00000020       0.00000061       0.00000129
Be       0.00000025       0.00000015       0.00000007      -0.00000239      -0.00000106      -0.00000025
F        1.45253044       1.02709422       5.53872858      -0.00285632      -0.00201871       0.00000047
F        4.94304206       3.49525875       5.53872826       0.00285761       0.00202175       0.00000073
F        4.07041428       1.02709430       4.02729286       0.00142961      -0.00202166      -0.00247697
F        2.32515841       3.49525908       7.05016451      -0.00142633       0.00201795       0.00247299
F        2.32515849       3.49525926       4.02729259      -0.00142854       0.00201949      -0.00247340
F        4.07041437       1.02709435       7.05016424       0.00142836      -0.00201949       0.00247527
