9
Lattice="6.681711359226936 9.577523741381216e-09 3.857687808496514 2.2272372238984137 6.299577873189924 3.8576876437327186 1.51211520177726e-07 -9.487090647272728e-08 7.715375355086927" Properties=species:S:1:pos:R:3:forces:R:3 energy=-21.035505294799805 free_energy=-21.035505294799805 stress="0.00027145937201566994 -1.0289647356387377e-08 -8.488566294317934e-09 -1.0289647356387377e-08 0.0002714685979299247 -3.239376822339324e-10 -8.488566294317934e-09 -3.239376822339324e-10 0.00027146656066179276" pbc="T T T"
Bi       2.22723729       1.57489384       3.85768757      -0.00000007      -0.00000047      -0.00000062
Bi       6.68171181       4.72468310      11.57306238       0.00000029      -0.00000028      -0.00000200
B       -0.00000041       0.00000068       0.00000030      -0.00000074      -0.00000055       0.00000018
I        2.04315050       1.44472550       7.71537554      -0.00559220      -0.00395326       0.00000065
I        6.86579874       4.85485259       7.71537525       0.00558964       0.00395443       0.00000054
I        5.66013603       1.44472531       5.62710765       0.00279669      -0.00395480      -0.00484354
I        3.24881246       4.85485234       9.80364410      -0.00279494       0.00395453       0.00484140
I        3.24881207       4.85485263       5.62710717      -0.00279507       0.00395430      -0.00483980
I        5.66013647       1.44472514       9.80364321       0.00279641      -0.00395383       0.00484307
