9
Lattice="6.044178107098002 -3.793544047104245e-08 3.4896079043383144 2.0147260145856287 5.698506231362548 3.4896078789599962 -1.941156796812007e-07 -1.6834250812440884e-07 6.979216144894833" Properties=species:S:1:pos:R:3:forces:R:3 energy=-24.395294189453125 free_energy=-24.395294189453125 stress="5.4199215810513124e-05 8.420215635851491e-10 -2.08991246530843e-09 8.420215635851491e-10 5.420108209364116e-05 -4.718956336802194e-09 -2.08991246530843e-09 -4.718956336802194e-09 5.4218991863308474e-05" pbc="T T T"
Bi       2.01472490       1.42462781       3.48960908      -0.00000330       0.00000561       0.00000278
Bi       6.04417704       4.27387925      10.46882314      -0.00000426      -0.00000117      -0.00000233
Cd       0.00000034      -0.00000006      -0.00000049      -0.00000058       0.00000129       0.00000452
Cl       2.06238029       1.45832255       6.97921588      -0.00002302      -0.00001593      -0.00000133
Cl       5.99652448       4.24018273       6.97921609       0.00002478       0.00001221       0.00000149
Cl       5.01298804       1.45832303       5.27568154       0.00001360      -0.00001672      -0.00002059
Cl       3.04591621       4.24018338       8.68275058      -0.00000872       0.00001432       0.00001838
Cl       3.04591612       4.24018270       5.27568125      -0.00001167       0.00001380      -0.00002103
Cl       5.01298831       1.45832270       8.68275070       0.00001317      -0.00001335       0.00001807
