9
Lattice="6.853356649863462 4.517228466797798e-08 3.9567873991069953 2.2844522382744747 6.461406603631021 3.956787435368426 -1.2869072900452749e-09 4.350102591097582e-08 7.91357480044295" Properties=species:S:1:pos:R:3:forces:R:3 energy=-27.306360244750977 free_energy=-27.306360244750977 stress="6.262077658902854e-05 -1.4974556705737996e-08 3.2957410134315523e-09 -1.4974556705737996e-08 6.263358955038711e-05 7.953595559939686e-10 3.2957410134315523e-09 7.953595559939686e-10 6.264344847295433e-05" pbc="T T T"
Bi       2.28445196       1.61535188       3.95678734      -0.00000030       0.00000031      -0.00000070
Bi       6.85335698       4.84605516      11.87036235       0.00000066       0.00000011       0.00000028
Cr       0.00000017       0.00000081      -0.00000010      -0.00000184      -0.00000669       0.00000017
I        2.19692813       1.55346298       7.91357501      -0.00164299      -0.00116179      -0.00000025
I        6.94088004       4.90794303       7.91357481       0.00164757       0.00116508       0.00000037
I        5.75489249       1.55346331       5.85938387       0.00082252      -0.00116407      -0.00142534
I        3.38291651       4.90794336       9.96776563      -0.00082335       0.00116488       0.00142724
I        3.38291669       4.90794315       5.85938394      -0.00082474       0.00116541      -0.00142737
I        5.75489256       1.55346309       9.96776577       0.00082246      -0.00116326       0.00142556
