9
Lattice="6.339262527919192 1.6578467364708041e-09 3.6599749352586364 2.1130875150298905 5.976713943001038 3.6599749280524714 8.449385615944614e-08 5.092042728489816e-08 7.31994972416962" Properties=species:S:1:pos:R:3:forces:R:3 energy=-22.496089935302734 free_energy=-22.496089935302734 stress="-9.66184088611044e-05 2.7208127306721508e-08 -1.2350129807714438e-08 2.7208127306721508e-08 -9.659036732045934e-05 1.8894028008809016e-10 -1.2350129807714438e-08 1.8894028008809016e-10 -9.662917727837339e-05" pbc="T T T"
Bi       2.11308674       1.49417910       3.65997537      -0.00000249       0.00000320       0.00000087
Bi       6.33926272       4.48253458      10.97992464      -0.00000066      -0.00000520      -0.00000157
C       -0.00000034      -0.00000015      -0.00000001       0.00000097       0.00000156       0.00000191
Br       2.08562158       1.47475719       7.31994943      -0.00159724      -0.00112873      -0.00000090
Br       6.36672900       4.50195690       7.31994985       0.00159661       0.00112788       0.00000061
Br       5.29645230       1.47475705       5.46617568       0.00079867      -0.00112696      -0.00138050
Br       3.15589831       4.50195697       9.17372380      -0.00079709       0.00112690       0.00138058
Br       3.15589781       4.50195690       5.46617579      -0.00079849       0.00112779      -0.00138110
Br       5.29645237       1.47475743       9.17372380       0.00079979      -0.00112644       0.00138004
