9
Lattice="5.430306240872703 3.8853286311575196e-08 3.135188976858489 1.8101021241428734 5.119741584682853 3.1351889643516944 -4.325317103846049e-08 -4.590217058330906e-08 6.270378028633657" Properties=species:S:1:pos:R:3:forces:R:3 energy=-39.69390869140625 free_energy=-39.69390869140625 stress="6.887612471473403e-06 -1.0513628190267355e-08 2.399648479922689e-08 -1.0513628190267355e-08 6.853807008155854e-06 -1.731205223620691e-08 2.399648479922689e-08 -1.731205223620691e-08 6.89529542796663e-06" pbc="T T T"
Bi       1.81010117       1.27993494       3.13519085      -0.00000327      -0.00000270       0.00000909
Bi       5.43030879       3.83980731       9.40556555       0.00001166       0.00000581      -0.00000718
Co       0.00000002       0.00000009      -0.00000071      -0.00000103      -0.00000072       0.00000376
S        1.80584043       1.27692255       6.27037753       0.00054923       0.00039025      -0.00000351
S        5.43456733       3.84281915       6.27037828      -0.00054979      -0.00038922       0.00000229
S        4.52738526       1.27692142       4.69909352      -0.00027747       0.00038417       0.00047749
S        2.71302224       3.84281972       7.84166284       0.00027463      -0.00038752      -0.00048044
S        2.71302193       3.84281907       4.69909360       0.00026828      -0.00038770       0.00047699
S        4.52738611       1.27692214       7.84166252      -0.00027236       0.00038758      -0.00047877
