9
Lattice="4.6242291871302825 -1.1973432045117607e-07 2.669799950426556 1.541409684130668 4.359764769388789 2.6697998326924 -1.4330484587736704e-08 -1.5432744656004162e-07 5.339599925674197" Properties=species:S:1:pos:R:3:forces:R:3 energy=-48.45518493652344 free_energy=-48.45518493652344 stress="-4.596804501488805e-05 6.833067800471326e-08 1.0298461639024481e-08 6.833067800471326e-08 -4.5851953473174945e-05 5.846936801390257e-08 1.0298461639024481e-08 5.846936801390257e-08 -4.583214831654914e-05" pbc="T T T"
Bi       1.54141031       1.08994071       2.66979994       0.00000103      -0.00000145       0.00000147
Bi       4.62422923       3.26982288       8.00939980       0.00000143      -0.00000174      -0.00000174
Co       0.00000012       0.00000017      -0.00000015      -0.00000128      -0.00000144      -0.00000073
O        1.47026188       1.03963255       5.33959980       0.00042027       0.00029874      -0.00000089
O        4.69537662       3.32013249       5.33960001      -0.00042117      -0.00029659       0.00000099
O        3.88909783       1.03963219       3.94308403      -0.00021154       0.00029942       0.00036508
O        2.27654080       3.32013232       6.73611561       0.00021100      -0.00029799      -0.00036615
O        2.27654070       3.32013241       3.94308407       0.00021067      -0.00029784       0.00036556
O        3.88909806       1.03963220       6.73611564      -0.00021031       0.00029844      -0.00036365
