9
Lattice="6.195137123123374 4.8830956889232765e-08 3.576764093312089 2.065045783708197 5.840831050778254 3.576764041416124 3.384799766880003e-08 -3.9625172464030405e-08 7.1535281279978005" Properties=species:S:1:pos:R:3:forces:R:3 energy=-35.2585334777832 free_energy=-35.2585334777832 stress="-0.000172396597918123 -7.0307843991201935e-09 3.5879346160783143e-09 -7.0307843991201935e-09 -0.00017240410670638084 -1.5470096315084447e-08 3.5879346160783143e-09 -1.5470096315084447e-08 -0.0001723925379337743" pbc="T T T"
Bi       2.06504592       1.46020758       3.57676479      -0.00000046      -0.00000102       0.00000358
Bi       6.19513701       4.38062440      10.73029026      -0.00000033       0.00000471      -0.00000882
Cr      -0.00000020      -0.00000012       0.00000018       0.00000075      -0.00000092      -0.00000119
Te       2.13316670       1.50837574       7.15352825       0.00004590       0.00003117      -0.00000023
Te       6.12701642       4.33245515       7.15352952      -0.00004676      -0.00003234       0.00000279
Te       5.12855366       1.50837556       5.42414088      -0.00002319       0.00003178       0.00004187
Te       3.13162957       4.33245518       8.88291547       0.00002306      -0.00003078      -0.00003888
Te       3.13162865       4.33245434       5.42414029       0.00002240      -0.00003368       0.00003897
Te       5.12855406       1.50837640       8.88291541      -0.00002128       0.00003102      -0.00003807
