9
Lattice="5.892420761493275 9.251584646837228e-08 3.4019904279802464 1.9641404582681852 5.555426877691665 3.4019902249626175 5.124349342462386e-08 -2.1241021040140725e-07 6.803980767204202" Properties=species:S:1:pos:R:3:forces:R:3 energy=-29.681060791015625 free_energy=-29.681060791015625 stress="0.00019985043036285788 6.684399700418453e-09 -3.1963264035539396e-08 6.684399700418453e-09 0.00019987425184808671 -2.5271123860193256e-08 -3.1963264035539396e-08 -2.5271123860193256e-08 0.00019991434237454087" pbc="T T T"
Bi       1.96414147       1.38885589       3.40199122       0.00000507      -0.00000648       0.00000422
Bi       5.89242497       4.16656355      10.20597017       0.00002058      -0.00003035      -0.00000650
Co      -0.00000078      -0.00000015       0.00000046       0.00000488       0.00000920      -0.00000197
Cl       1.88918625       1.33585657       6.80398037      -0.00744997      -0.00525042      -0.00000174
Cl       5.96737495       4.21957268       6.80398120       0.00742857       0.00526101       0.00000209
Cl       4.94782759       1.33585738       5.03807257       0.00371794      -0.00524661      -0.00644507
Cl       2.90873139       4.21957156       8.56988771      -0.00372260       0.00525677       0.00643589
Cl       2.90873128       4.21957182       5.03807394      -0.00372617       0.00525875      -0.00643490
Cl       4.94782802       1.33585775       8.56988813       0.00372181      -0.00525180       0.00644808
