9
Lattice="6.62273165989664 -2.460363891932222e-08 3.8236357911961005 2.2075772177328026 6.24397103299929 3.8236357548856126 2.0867871306568614e-08 -2.9715169007924634e-08 7.6472715462478265" Properties=species:S:1:pos:R:3:forces:R:3 energy=-20.563278198242188 free_energy=-20.563278198242188 stress="3.487036519800313e-05 3.445808971491715e-09 -5.037179562350502e-09 3.445808971491715e-09 3.486557034193538e-05 5.0544075591574256e-09 -5.037179562350502e-09 5.0544075591574256e-09 3.48704015777912e-05" pbc="T T T"
Bi       2.20757730       1.56099199       3.82363583      -0.00000021      -0.00000242       0.00000009
Bi       6.62273169       4.68297887      11.47090675       0.00000036       0.00000224      -0.00000096
Cu       0.00000003      -0.00000005      -0.00000003      -0.00000024       0.00000024       0.00000007
I        2.22178917       1.57104219       7.64727161       0.00206219       0.00145767      -0.00000012
I        6.60851960       4.67292893       7.64727188      -0.00206169      -0.00145731       0.00000019
I        5.51183699       1.57104191       5.74776159      -0.00103133       0.00145754       0.00178575
I        3.31847175       4.67292900       9.54678142       0.00103065      -0.00145745      -0.00178562
I        3.31847200       4.67292910       5.74776161       0.00103118      -0.00145731       0.00178580
I        5.51183709       1.57104199       9.54678174      -0.00103092       0.00145683      -0.00178525
