9
Lattice="6.263696332717739 1.9904618491877498e-08 3.6163467064663384 2.0878987960743705 5.905469507453746 3.6163467069243636 1.567761769696068e-09 1.6695333327710853e-09 7.23269341021723" Properties=species:S:1:pos:R:3:forces:R:3 energy=-26.27251434326172 free_energy=-26.27251434326172 stress="2.8586271582753398e-05 1.4268261017136297e-09 5.164196847928793e-10 1.4268261017136297e-09 2.858005973394029e-05 -3.595118425181454e-09 5.164196847928793e-10 -3.595118425181454e-09 2.8579792342497967e-05" pbc="T T T"
Bi       2.08789866       1.47636729       3.61634675       0.00000020      -0.00000090      -0.00000007
Bi       6.26369641       4.42910225      10.84903956      -0.00000112       0.00000123      -0.00000046
Co       0.00000007      -0.00000010       0.00000030       0.00000052       0.00000104      -0.00000175
Br       2.03572098       1.43947183       7.23269353       0.00123217       0.00087077      -0.00000045
Br       6.31587420       4.46599759       7.23269349      -0.00123275      -0.00087121      -0.00000100
Br       5.24583587       1.43947201       5.37933259      -0.00061695       0.00087264       0.00106822
Br       3.10575943       4.46599732       9.08605421       0.00061506      -0.00087025      -0.00106670
Br       3.10575914       4.46599750       5.37933270       0.00061748      -0.00087287       0.00106861
Br       5.24583575       1.43947243       9.08605414      -0.00061464       0.00086951      -0.00106641
