9
Lattice="5.699535822905204 1.6973587573370052e-07 3.2906284535178463 1.899845423230278 5.373573876578809 3.290628472743611 8.87839841277928e-08 8.632639547048255e-08 6.5812567532573825" Properties=species:S:1:pos:R:3:forces:R:3 energy=-36.4933967590332 free_energy=-36.4933967590332 stress="-9.955636778613552e-05 6.7980079343499256e-09 1.3478417493217876e-08 6.7980079343499256e-09 -9.96152448351495e-05 -1.092803358915262e-08 1.3478417493217876e-08 -1.092803358915262e-08 -9.958188456948847e-05" pbc="T T T"
Bi       1.89984496       1.34339355       3.29062851      -0.00000097       0.00000012      -0.00000004
Bi       5.69953631       4.03018126       9.87188562       0.00000001      -0.00000003       0.00000039
Co      -0.00000024      -0.00000013      -0.00000012       0.00000202       0.00000239      -0.00000121
Se       1.90791126       1.34909666       6.58125675       0.00516721       0.00365329      -0.00000023
Se       5.69147046       4.02447725       6.58125683      -0.00516958      -0.00365516       0.00000012
Se       4.74558044       1.34909664       4.94292759      -0.00258486       0.00365537       0.00447696
Se       2.85380088       4.02447735       8.21958609       0.00258487      -0.00365521      -0.00447673
Se       2.85380066       4.02447743       4.94292754       0.00258460      -0.00365468       0.00447734
Se       4.74558062       1.34909652       8.21958587      -0.00258337       0.00365398      -0.00447679
