9
Lattice="6.151879500838495 2.5083810849670377e-08 3.5517890702845514 2.050626440816634 5.800046914209037 3.551789214238908 -3.736413592507898e-08 1.498869437720203e-07 7.103578205285641" Properties=species:S:1:pos:R:3:forces:R:3 energy=-28.612613677978516 free_energy=-28.612613677978516 stress="6.93303591106087e-05 8.760967951104703e-09 -1.1350975714918832e-09 8.760967951104703e-09 6.937645957805216e-05 3.483540345072811e-09 -1.1350975714918832e-09 3.483540345072811e-09 6.932288670213893e-05" pbc="T T T"
Bi       2.05062696       1.45000933       3.55178862       0.00000209      -0.00000769      -0.00000271
Bi       6.15187953       4.35003708      10.65536668      -0.00000004       0.00000807      -0.00000301
Ca      -0.00000022       0.00000002       0.00000016       0.00000104       0.00000512       0.00000100
Cl       2.13301156       1.50826665       7.10357819       0.00017961       0.00012450       0.00000074
Cl       6.06949499       4.29178055       7.10357847      -0.00018578      -0.00012805       0.00000120
Cl       5.08537334       1.50826614       5.39903176      -0.00009087       0.00012469       0.00015808
Cl       3.11713234       4.29178095       8.80812561       0.00009374      -0.00012677      -0.00016023
Cl       3.11713195       4.29178107       5.39903122       0.00009312      -0.00012551       0.00016106
Cl       5.08537314       1.50826659       8.80812517      -0.00009288       0.00012562      -0.00015621
