9
Lattice="6.375072545845392 -5.476626025634692e-08 3.680649916669321 2.1250241394426728 6.010476186345287 3.6806499008585547 -7.873034797076912e-09 -2.493126469879587e-08 7.36129984697511" Properties=species:S:1:pos:R:3:forces:R:3 energy=-30.271728515625 free_energy=-30.271728515625 stress="2.0123055946896784e-05 5.557513560461302e-09 8.675272056279937e-09 5.557513560461302e-09 2.010990101553034e-05 1.0048824883313046e-08 8.675272056279937e-09 1.0048824883313046e-08 2.015178142755758e-05" pbc="T T T"
Bi       2.12502451       1.50261890       3.68065025       0.00000104      -0.00000055       0.00000096
Bi       6.37507263       4.50785747      11.04195063       0.00000043       0.00000085       0.00000169
Cr       0.00000021       0.00000012      -0.00000041       0.00000016       0.00000005       0.00000115
Br       2.02212565       1.42985890       7.36129959       0.00725681       0.00513104      -0.00000032
Br       6.47797075       4.58061732       7.36129941      -0.00725730      -0.00513105       0.00000065
Br       5.36400949       1.42985907       5.43186224      -0.00362689       0.00512921       0.00628176
Br       3.13608674       4.58061731       9.29073736       0.00362776      -0.00513127      -0.00628370
Br       3.13608718       4.58061688       5.43186242       0.00362650      -0.00512919       0.00628163
Br       5.36400955       1.42985845       9.29073723      -0.00362859       0.00513090      -0.00628380
