9
Lattice="4.795088493840247 -3.6846233102702853e-08 2.768445668689939 1.5983627697035592 4.520853017094485 2.7684457151739696 -6.729768080321582e-08 9.344414736578554e-09 5.5368914539429" Properties=species:S:1:pos:R:3:forces:R:3 energy=-40.55881118774414 free_energy=-40.55881118774414 stress="0.0004420829936861992 5.530435487344221e-08 8.089367753427723e-08 5.530435487344221e-08 0.0004421827325131744 1.9001340945123957e-08 8.089367753427723e-08 1.9001340945123957e-08 0.0004420826444402337" pbc="T T T"
Bi       1.59836275       1.13021305       2.76844546      -0.00000107      -0.00000079      -0.00000194
Bi       4.79508804       3.39064032       8.30533537      -0.00000052       0.00000136      -0.00000970
Co      -0.00000005      -0.00000001      -0.00000036       0.00000107      -0.00000310       0.00000878
F        1.57992626       1.11717671       5.53689163      -0.00516042      -0.00365105       0.00000005
F        4.81352493       3.40367625       5.53689236       0.00516233       0.00365093       0.00000397
F        4.00512541       1.11717620       4.13670240       0.00257935      -0.00365098      -0.00446703
F        2.38832615       3.40367617       6.93708093      -0.00257698       0.00364779       0.00446913
F        2.38832601       3.40367615       4.13670266      -0.00258313       0.00365308      -0.00447269
F        4.00512515       1.11717704       6.93708083       0.00257924      -0.00364725       0.00446956
