9
Lattice="4.33928853299632 2.3039916678560103e-07 2.5052891810893287 1.446429538337008 4.091121477564139 2.505289509978326 -1.789010783443446e-07 2.7630296720408176e-07 5.010578672044363" Properties=species:S:1:pos:R:3:forces:R:3 energy=-49.9412956237793 free_energy=-49.9412956237793 stress="0.00036557187559083104 -2.5770526690394036e-07 2.712969404683463e-08 -2.5770526690394036e-07 0.00036594693665392697 2.4855879132701375e-08 2.712969404683463e-08 2.4855879132701375e-08 0.00036534405080601573" pbc="T T T"
Bi       1.44642957       1.02278028       2.50528932       0.00000092      -0.00000212       0.00000684
Bi       4.33928834       3.06834175       7.51586853       0.00000306      -0.00000387       0.00000122
C       -0.00000780       0.00000931      -0.00000994      -0.00018107       0.00021214      -0.00022576
O        1.32959395       0.94016517       5.01057877       0.00065982       0.00045782       0.00000399
O        4.45612476       3.15095726       5.01057905      -0.00063872      -0.00045186       0.00000104
O        3.67449201       0.94016489       3.65675086      -0.00030929       0.00043732       0.00055480
O        2.11122669       3.15095585       6.36440608       0.00032568      -0.00045931      -0.00057673
O        2.11122925       3.15095219       3.65675589       0.00039011      -0.00054163       0.00068223
O        3.67449454       0.94016140       6.36441114      -0.00025117       0.00035250      -0.00045061
