9
Lattice="6.138746897633902 -3.312037766204769e-07 3.5442070808948083 2.046248844634146 5.7876651595841455 3.544206750041776 -7.868535655418389e-08 -4.6084941903154145e-07 7.088414298076712" Properties=species:S:1:pos:R:3:forces:R:3 energy=-33.64207458496094 free_energy=-33.64207458496094 stress="1.585054815222975e-05 -1.3188930836349755e-08 6.6562417799787e-09 -1.3188930836349755e-08 1.587851693329867e-05 -2.1487210233317455e-08 6.6562417799787e-09 -2.1487210233317455e-08 1.588642226124648e-05" pbc="T T T"
Bi       2.04625014       1.44691588       3.54420668       0.00000089      -0.00000127      -0.00000161
Bi       6.13874880       4.34075010      10.63262295       0.00000565       0.00000404       0.00000436
Co      -0.00000040      -0.00000038      -0.00000042       0.00000498       0.00000504       0.00000168
Te       2.01444474       1.42442686       7.08841450       0.00215518       0.00152267      -0.00000042
Te       6.17055020       4.36323766       7.08841317      -0.00216147      -0.00152531      -0.00000054
Te       5.13152495       1.42442653       5.28876817      -0.00107938       0.00152429       0.00186733
Te       3.05346949       4.36323721       8.88805986       0.00107664      -0.00152657      -0.00187059
Te       3.05347054       4.36323757       5.28876758       0.00107615      -0.00152474       0.00186533
Te       5.13152428       1.42442581       8.88805995      -0.00107865       0.00152187      -0.00186559
