9
Lattice="6.205846731653965 4.362155721941499e-09 3.582947277434958 2.0686155993546027 5.850928408380651 3.582947246216528 -4.533618550785774e-09 -4.144030795426335e-08 7.165894562722399" Properties=species:S:1:pos:R:3:forces:R:3 energy=-23.229122161865234 free_energy=-23.229122161865234 stress="-2.868315641535446e-05 1.2122849391005275e-09 -1.6841568417635955e-10 1.2122849391005275e-09 -2.867934381356463e-05 -3.661477343541719e-09 -1.6841568417635955e-10 -3.661477343541719e-09 -2.8681379262707196e-05" pbc="T T T"
Bi       2.06861560       1.46273205       3.58294754       0.00000003      -0.00000042       0.00000210
Bi       6.20584650       4.38819586      10.74884297      -0.00000160      -0.00000133       0.00000534
Cu      -0.00000002       0.00000004       0.00000000      -0.00000009      -0.00000026       0.00000033
Br       2.05494817       1.45306788       7.16589424      -0.00127454      -0.00090171       0.00000024
Br       6.21951415       4.39786067       7.16589392       0.00127525       0.00090093      -0.00000211
Br       5.17837255       1.45306804       5.36258451       0.00063827      -0.00090098      -0.00110553
Br       3.09608970       4.39786082       8.96920433      -0.00063715       0.00090105       0.00110333
Br       3.09608986       4.39786050       5.36258438      -0.00063628       0.00090273      -0.00110663
Br       5.17837278       1.45306761       8.96920446       0.00063615      -0.00090007       0.00110291
