9
Lattice="4.775175289036541 1.2189285840203679e-08 2.756948777665504 1.5917250823384208 4.502078714165352 2.756948821831488 -3.9598681284836895e-08 2.609162394624234e-08 5.513897623917899" Properties=species:S:1:pos:R:3:forces:R:3 energy=-37.87377166748047 free_energy=-37.87377166748047 stress="0.000122151366667822 -9.374330645073314e-09 -9.121660760058603e-09 -9.374330645073314e-09 0.0001221319253090769 -1.8754446884372555e-08 -9.121660760058603e-09 -1.8754446884372555e-08 0.0001221009442815557" pbc="T T T"
Bi       1.59172518       1.12551998       2.75694886       0.00000037       0.00000010       0.00000056
Bi       4.77517539       3.37655924       8.27084705       0.00000220       0.00000114       0.00000327
Cu       0.00000003      -0.00000016       0.00000005       0.00000150       0.00000511       0.00000575
F        1.62473246       1.14885960       5.51389743      -0.00038304      -0.00027035      -0.00000018
F        4.74216803       3.35321950       5.51389740       0.00037873       0.00026724      -0.00000146
F        3.96280882       1.14885937       4.16400839       0.00019171      -0.00027040      -0.00033239
F        2.40409114       3.35321921       6.86378666      -0.00019053       0.00026734       0.00032702
F        2.40409137       3.35321923       4.16400842      -0.00019041       0.00026923      -0.00033056
F        3.96280895       1.14885917       6.86378662       0.00018929      -0.00026921       0.00032783
