9
Lattice="6.658178481743455 4.922868975342819e-08 3.8441011691389257 2.219392851083903 6.2773908701146155 3.844101208243814 1.579990954140896e-08 5.90656387970113e-08 7.688202310911742" Properties=species:S:1:pos:R:3:forces:R:3 energy=-23.53896141052246 free_energy=-23.53896141052246 stress="-6.622575376979967e-09 3.962939754131867e-09 -6.736139201990454e-09 3.962939754131867e-09 4.0344092511190865e-09 -2.4727098146826165e-09 -6.736139201990454e-09 -2.4727098146826165e-09 -1.4059568620439222e-08" pbc="T T T"
Bi       2.21939309       1.56934744       3.84410112       0.00000016       0.00000002       0.00000030
Bi       6.65817834       4.70804277      11.53230289      -0.00000052      -0.00000246      -0.00000273
Co      -0.00000015       0.00000019       0.00000007       0.00000117      -0.00000035      -0.00000055
I        2.17235900       1.53609010       7.68820232      -0.00126313      -0.00089276      -0.00000008
I        6.70521243       4.74130124       7.68820278       0.00126202       0.00089280       0.00000071
I        5.57199900       1.53608978       5.72541922       0.00063097      -0.00089179      -0.00109273
I        3.30557250       4.74130111       9.65098549      -0.00063113       0.00089367       0.00109418
I        3.30557218       4.74130119       5.72541928      -0.00063091       0.00089302      -0.00109304
I        5.57199903       1.53609015       9.65098560       0.00063142      -0.00089211       0.00109394
