9
Lattice="4.670222962828144 2.3471559495583805e-08 2.6963543075080416 1.5567410593323758 4.4031281519123695 2.696354221609011 1.2390282721873988e-07 -1.7591847096348982e-08 5.392708400410081" Properties=species:S:1:pos:R:3:forces:R:3 energy=-52.621707916259766 free_energy=-52.621707916259766 stress="0.0004667397297453135 -5.6185594843327635e-08 3.575389229126813e-08 -5.6185594843327635e-08 0.00046674968325532973 5.183551721188451e-08 3.575389229126813e-08 5.183551721188451e-08 0.00046666443813592196" pbc="T T T"
Bi       1.55673923       1.10078071       2.69635477      -0.00000682      -0.00000516       0.00000461
Bi       4.67022322       3.30234640       8.08906362      -0.00000445      -0.00000131       0.00000947
Cr      -0.00000013       0.00000010      -0.00000088       0.00000150      -0.00000214       0.00001712
O        1.49518319       1.05725367       5.39270834       0.00124466       0.00087941       0.00000179
O        4.73178163       3.34587435       5.39270790      -0.00124335      -0.00087985       0.00000048
O        3.92263169       1.05725439       3.99122007      -0.00061417       0.00087422       0.00107580
O        2.30433234       3.34587539       6.79419667       0.00062856      -0.00088373      -0.00109008
O        2.30433313       3.34587397       3.99122025       0.00061792      -0.00086915       0.00107303
O        3.92263252       1.05725326       6.79419652      -0.00062391       0.00088793      -0.00109208
