9
Lattice="6.890227682405483 1.0587579659158522e-07 3.9780746679399273 2.2967426477016164 6.496168894941726 3.9780746903193593 -2.732992831748576e-08 8.084006734947564e-09 7.956149383216653" Properties=species:S:1:pos:R:3:forces:R:3 energy=-18.392658233642578 free_energy=-18.392658233642578 stress="-9.38290759222582e-06 9.82007009042718e-09 -8.74557759544814e-09 9.82007009042718e-09 -9.393826076120604e-06 -4.1168365938482054e-10 -8.74557759544814e-09 -4.1168365938482054e-10 -9.403917829331476e-06" pbc="T T T"
Bi       2.29674292       1.62404211       3.97807497       0.00000081      -0.00000049       0.00000095
Bi       6.89022746       4.87212685      11.93422387      -0.00000039       0.00000050       0.00000004
Cd      -0.00000029      -0.00000044       0.00000000       0.00000175       0.00000258      -0.00000006
I        2.39890713       1.69628336       7.95614947      -0.00229615      -0.00162350       0.00000014
I        6.78806378       4.79988606       7.95614932       0.00229216       0.00162119      -0.00000039
I        5.69077418       1.69628278       6.05558834       0.00114715      -0.00162172      -0.00198627
I        3.49619599       4.79988606       9.85671050      -0.00114623       0.00162186       0.00198498
I        3.49619555       4.79988588       6.05558832      -0.00114645       0.00162132      -0.00198530
I        5.69077452       1.69628333       9.85671016       0.00114730      -0.00162172       0.00198595
