9
Lattice="5.383360240122183 -1.836039880137247e-07 3.1080845555091723 1.794453508039248 5.075480151188496 3.108084091720232 -4.487164960493556e-07 -8.853135691829168e-07 6.216169888218131" Properties=species:S:1:pos:R:3:forces:R:3 energy=-36.65052795410156 free_energy=-36.65052795410156 stress="6.707347893097904e-06 -8.604470735917857e-08 -8.208955648569827e-08 -8.604470735917857e-08 6.79589311403106e-06 3.825216410291432e-08 -8.208955648569827e-08 3.825216410291432e-08 6.886067239975091e-06" pbc="T T T"
Bi       1.79445818       1.26887352       3.10808342       0.00001441       0.00001693       0.00000010
Bi       5.38335846       3.80661030       9.32425016      -0.00000507       0.00000745      -0.00000883
C        0.00000080      -0.00000157      -0.00000736       0.00002634      -0.00003250      -0.00011806
S        1.60809160       1.13709149       6.21616960       0.00278908       0.00196914      -0.00001031
S        5.56972081       3.93838600       6.21616937      -0.00279444      -0.00197585      -0.00000575
S        4.57931267       1.13709205       4.50073648      -0.00143018       0.00200979       0.00245866
S        2.59849705       3.93838794       7.93161074       0.00136642      -0.00193486      -0.00236541
S        2.59849957       3.93838544       4.50073399       0.00141381      -0.00200643       0.00243700
S        4.57931414       1.13709060       7.93160818      -0.00138055       0.00194651      -0.00238729
