9
Lattice="6.497842984688693 -4.05554817812846e-08 3.7515313093274862 2.165947614174561 6.126225163629984 3.751531325179611 -3.612691321091203e-08 -6.1307260243344145e-09 7.503062681228645" Properties=species:S:1:pos:R:3:forces:R:3 energy=-24.96729278564453 free_energy=-24.96729278564453 stress="7.41317417123355e-05 -1.5814597409402609e-09 -2.2639810026703344e-09 -1.5814597409402609e-09 7.413260755129158e-05 4.197613368006614e-09 -2.2639810026703344e-09 4.197613368006614e-09 7.414685387630016e-05" pbc="T T T"
Bi       2.16594759       1.53155600       3.75153111       0.00000004      -0.00000138       0.00000018
Bi       6.49784258       4.59466885      11.25459340       0.00000008       0.00000052      -0.00000037
Ca       0.00000004      -0.00000057      -0.00000017       0.00000025       0.00000596       0.00000274
Br       2.26291520       1.60012239       7.50306252       0.00002172       0.00001600       0.00000058
Br       6.40087582       4.52610286       7.50306279      -0.00002616      -0.00001756       0.00000044
Br       5.36638511       1.60012285       5.71127370      -0.00000949       0.00001395       0.00001732
Br       3.29740517       4.52610291       9.29485256       0.00001309      -0.00001806      -0.00002265
Br       3.29740513       4.52610254       5.71127325       0.00001177      -0.00001638       0.00002111
Br       5.36638563       1.60012261       9.29485208      -0.00001129       0.00001698      -0.00001936
