9
Lattice="5.839185290959412 -3.155776168411999e-07 3.371254689652373 1.946394840300866 5.505235168684045 3.3712546189088997 1.4025705042053757e-07 1.2533938779538981e-08 6.7425091363724" Properties=species:S:1:pos:R:3:forces:R:3 energy=-26.325389862060547 free_energy=-26.325389862060547 stress="2.3826338292565197e-05 3.036200268979883e-08 6.945406916258889e-09 3.036200268979883e-08 2.3895483536762185e-05 1.0259582516880528e-08 6.945406916258889e-09 1.0259582516880528e-08 2.3891891032690182e-05" pbc="T T T"
Bi       1.94639503       1.37630738       3.37125472      -0.00000167      -0.00000367       0.00000350
Bi       5.83918659       4.12892475      10.11376339       0.00001007      -0.00001006      -0.00000123
Cu       0.00000017       0.00000002      -0.00000001       0.00000195       0.00000011       0.00000103
Cl       1.92763732       1.36304718       6.74250884      -0.00546843      -0.00386001       0.00000158
Cl       5.85794283       4.14218960       6.74250938       0.00546017       0.00385980      -0.00000050
Cl       4.87536599       1.36304473       5.04063725       0.00273006      -0.00386138      -0.00472705
Cl       2.91021317       4.14219085       8.44438082      -0.00273056       0.00386600       0.00472599
Cl       2.91021329       4.14218968       5.04063750      -0.00273134       0.00386600      -0.00473110
Cl       4.87536673       1.36304525       8.44438180       0.00272956      -0.00385667       0.00472763
