9
Lattice="6.089580784569299 5.3491556963948333e-08 3.5158212422418686 2.02986030164629 5.741311819283361 3.5158212600977805 1.9245793653089817e-07 1.5795726048604638e-07 7.031642151136775" Properties=species:S:1:pos:R:3:forces:R:3 energy=-33.81996536254883 free_energy=-33.81996536254883 stress="4.948354762746021e-05 -1.4600691322641524e-08 2.981511570965267e-08 -1.4600691322641524e-08 4.950892616761848e-05 8.672444096191612e-09 2.981511570965267e-08 8.672444096191612e-09 4.952279050485231e-05" pbc="T T T"
Bi       2.02986089       1.43532754       3.51581995       0.00000114      -0.00000030      -0.00000393
Bi       6.08957983       4.30598421      10.54746232      -0.00000072       0.00000043      -0.00000087
Cr       0.00000034      -0.00000004       0.00000106      -0.00000453      -0.00000009      -0.00001082
Cl       1.90117597       1.34433424       7.03164196       0.00147593       0.00104103       0.00000199
Cl       6.21826483       4.39697807       7.03164259      -0.00147222      -0.00103939       0.00000153
Cl       5.13899417       1.34433419       5.16228824      -0.00073756       0.00104182       0.00127677
Cl       2.98044855       4.39697691       8.90099732       0.00073494      -0.00103877      -0.00127126
Cl       2.98044751       4.39697770       5.16228815       0.00073745      -0.00104224       0.00127707
Cl       5.13899303       1.34433534       8.90099705      -0.00073445       0.00103746      -0.00127044
