9
Lattice="5.724292794195497 -5.622097161292592e-08 3.30492198207587 1.9080975883664677 5.396914938976685 3.304921907066025 7.437502772685617e-08 -3.927688130155751e-08 6.609843835330362" Properties=species:S:1:pos:R:3:forces:R:3 energy=-39.33256149291992 free_energy=-39.33256149291992 stress="-8.861385140335187e-05 1.1840520564021517e-08 -2.0653208920862198e-08 1.1840520564021517e-08 -8.862131653586403e-05 -6.431803978301787e-10 -2.0653208920862198e-08 -6.431803978301787e-10 -8.866969437804073e-05" pbc="T T T"
Bi       1.90809813       1.34922885       3.30492178       0.00000178       0.00000034       0.00000058
Bi       5.72429267       4.04768612       9.91476563      -0.00000007       0.00000018      -0.00000161
Cr      -0.00000003      -0.00000000      -0.00000017      -0.00000044      -0.00000107       0.00000198
Se       1.94495480       1.37529073       6.60984373      -0.00104646      -0.00073979       0.00000065
Se       5.68743561       4.02162414       6.60984393       0.00104606       0.00074023       0.00000093
Se       4.75181534       1.37529068       4.98930224       0.00052261      -0.00074043      -0.00090634
Se       2.88057522       4.02162397       8.23038571      -0.00052150       0.00073871       0.00090520
Se       2.88057488       4.02162420       4.98930234      -0.00052346       0.00073940      -0.00090566
Se       4.75181518       1.37529069       8.23038571       0.00052164      -0.00073750       0.00090433
