9
Lattice="5.081571109387904 9.00943086595608e-09 2.933846594622259 1.6938570466587353 4.790950943579196 2.9338465916743655 1.7662089711966773e-07 1.212794147859234e-07 5.86769288332814" Properties=species:S:1:pos:R:3:forces:R:3 energy=-40.271121978759766 free_energy=-40.271121978759766 stress="0.0003069738741032779 4.516309104474203e-08 -5.772248101720834e-08 4.516309104474203e-08 0.0003071371465921402 -9.055769822907678e-08 -5.772248101720834e-08 -9.055769822907678e-08 0.00030701584182679653" pbc="T T T"
Bi       1.69385744       1.19773698       2.93384649       0.00000287      -0.00000530      -0.00000124
Bi       5.08157085       3.59321394       8.80154154      -0.00000453       0.00000375       0.00001479
Ca      -0.00000007       0.00000009      -0.00000007       0.00000225      -0.00000032       0.00000558
F        1.74290718       1.23242121       5.86769289       0.00140151       0.00098684      -0.00000045
F        5.03252125       3.55852991       5.86769216      -0.00140178      -0.00098798      -0.00000582
F        4.21011759       1.23242171       4.44324795      -0.00070077       0.00099182       0.00121096
F        2.56531032       3.55852983       7.29213780       0.00070077      -0.00099073      -0.00121608
F        2.56531133       3.55852983       4.44324804       0.00070322      -0.00098567       0.00120795
F        4.21011750       1.23242075       7.29213758      -0.00070345       0.00098735      -0.00121602
