9
Lattice="6.025575238530827 -4.0088933574754105e-08 3.478867606946814 2.0085250384457547 5.680968130778392 3.4788676126077327 -1.5592507046715122e-07 -1.0332249118879226e-07 6.957735483963812" Properties=species:S:1:pos:R:3:forces:R:3 energy=-24.66329574584961 free_energy=-24.66329574584961 stress="-0.00010601345275063068 -2.1193908850136722e-09 -1.497054746835147e-08 -2.1193908850136722e-09 -0.00010603192640701309 2.284751055015022e-08 -1.497054746835147e-08 2.284751055015022e-08 -0.00010602975817164406" pbc="T T T"
Bi       2.00852740       1.42024374       3.47886598       0.00001227       0.00001080      -0.00000754
Bi       6.02557499       4.26072593      10.43659890       0.00000082      -0.00000214      -0.00002171
C       -0.00000016      -0.00000009      -0.00000006      -0.00000183      -0.00000209       0.00000320
Cl       2.01709220       1.42629984       6.95773681      -0.00317749      -0.00224831       0.00000719
Cl       6.01700787       4.25466735       6.95773694       0.00317831       0.00224634       0.00000806
Cl       5.01702804       1.42630028       5.22572017       0.00158513      -0.00224987      -0.00275159
Cl       3.01707146       4.25466821       8.68975113      -0.00158517       0.00224225       0.00275837
Cl       3.01706926       4.25466696       5.22572156      -0.00159480       0.00224405      -0.00274965
Cl       5.01702936       1.42629974       8.68975132       0.00158272      -0.00224101       0.00275376
