9
Lattice="5.814517157982998 1.4105883038942643e-07 3.357012768332206 1.9381724854238453 5.481979347696751 3.357012826463399 -3.81999949893779e-08 4.418434052757873e-08 6.7140256028287535" Properties=species:S:1:pos:R:3:forces:R:3 energy=-37.97449493408203 free_energy=-37.97449493408203 stress="-4.661972707253881e-05 1.613247668785789e-08 1.5192222591053905e-08 1.613247668785789e-08 -4.660608101403341e-05 -5.125256663518485e-09 1.5192222591053905e-08 -5.125256663518485e-09 -4.6673230826854706e-05" pbc="T T T"
Bi       1.93817250       1.37049513       3.35701296       0.00000032      -0.00000027      -0.00000045
Bi       5.81451717       4.11148462      10.07103783       0.00000037       0.00000093       0.00000005
Fe       0.00000022       0.00000028      -0.00000043       0.00000072      -0.00000569       0.00001201
Se       1.88555886       1.33329119       6.71402550       0.00144412       0.00102136       0.00000003
Se       5.86713075       4.14868815       6.71402569      -0.00144210      -0.00102103      -0.00000019
Se       4.87173792       1.33329108       4.98995398      -0.00072367       0.00102393       0.00125425
Se       2.88095147       4.14868847       8.43809752       0.00072594      -0.00102711      -0.00125720
Se       2.88095150       4.14868819       4.98995426       0.00072112      -0.00102040       0.00125067
Se       4.87173805       1.33329109       8.43809748      -0.00072709       0.00102823      -0.00125913
