9
Lattice="4.790599914783065 4.929006684112397e-08 2.765854134050051 1.596866633522354 4.516621007868553 2.7658542227480356 -4.678599627816394e-08 7.554968430971472e-08 5.531708349135806" Properties=species:S:1:pos:R:3:forces:R:3 energy=-41.54090881347656 free_energy=-41.54090881347656 stress="0.0005014563212171197 -7.042453287198214e-09 -2.1037537933921158e-08 -7.042453287198214e-09 0.0005015325150452554 4.339102943617945e-08 -2.1037537933921158e-08 4.339102943617945e-08 0.0005014591733925045" pbc="T T T"
Bi       1.59686655       1.12915521       2.76585432      -0.00000026       0.00000059       0.00000035
Bi       4.79060016       3.38746647       8.29756258       0.00000240       0.00000230       0.00000138
Fe       0.00000015       0.00000016      -0.00000014       0.00000037      -0.00000481       0.00000313
F        1.61788353       1.14401650       5.53170841      -0.00728301      -0.00515099       0.00000028
F        4.76958273       3.37260447       5.53170827       0.00728668       0.00515212      -0.00000020
F        3.98165796       1.14401645       4.16698262       0.00364301      -0.00515412      -0.00630943
F        2.40580821       3.37260463       6.89643393      -0.00364475       0.00515238       0.00631007
F        2.40580848       3.37260436       4.16698256      -0.00364465       0.00515324      -0.00631143
F        3.98165815       1.14401628       6.89643418       0.00364012      -0.00515077       0.00630574
