9
Lattice="4.660440490548524 -2.0042698518253617e-08 2.690706637690764 1.553480130726809 4.393905420470615 2.690706661754 -3.4355414153197375e-08 5.178397281609606e-09 5.3814133348868305" Properties=species:S:1:pos:R:3:forces:R:3 energy=-49.09040832519531 free_energy=-49.09040832519531 stress="-3.2097170333145186e-05 -3.3613805072718606e-08 1.3143442778584813e-08 -3.3613805072718606e-08 -3.1988820410333574e-05 -4.303049305764972e-10 1.3143442778584813e-08 -4.303049305764972e-10 -3.194755481672473e-05" pbc="T T T"
Bi       1.55348038       1.09847688       2.69070758       0.00000131       0.00000407       0.00000835
Bi       4.66044034       3.29542944       8.07212132       0.00000075       0.00000233       0.00000924
Fe      -0.00000008      -0.00000003       0.00000011       0.00000042      -0.00000376      -0.00000697
O        1.48368075       1.04912056       5.38141291       0.00132358       0.00093573      -0.00000336
O        4.73023998       3.34478461       5.38141250      -0.00132221      -0.00093547      -0.00000392
O        3.91859979       1.04912069       3.97561154      -0.00066505       0.00093675       0.00114530
O        2.29532040       3.34478446       6.78721448       0.00065909      -0.00093272      -0.00114390
O        2.29532086       3.34478416       3.97561177       0.00066161      -0.00093761       0.00114146
O        3.91860003       1.04912074       6.78721446      -0.00065950       0.00093073      -0.00114515
