9
Lattice="5.496954821339915 -2.608528653600774e-08 3.1736685950279635 1.8323183588113086 5.182578597210387 3.173668405152244 1.2933055037800787e-07 -1.4109872843483707e-07 6.347336966048747" Properties=species:S:1:pos:R:3:forces:R:3 energy=-40.94509506225586 free_energy=-40.94509506225586 stress="-8.397165220230818e-05 -1.8232306331356085e-08 8.76381989201036e-09 -1.8232306331356085e-08 -8.400412480114028e-05 -3.421160954530933e-08 8.76381989201036e-09 -3.421160954530933e-08 -8.397961937589571e-05" pbc="T T T"
Bi       1.83231744       1.29564544       3.17366893      -0.00000402       0.00000395       0.00000058
Bi       5.49695618       3.88693486       9.52100526       0.00000718       0.00000437       0.00000074
Fe       0.00000037      -0.00000016      -0.00000016      -0.00000467       0.00000002       0.00000045
S        1.80366536       1.27538449       6.34733693       0.00512445       0.00362679      -0.00000082
S        5.52560754       3.90719370       6.34733703      -0.00512138      -0.00362659       0.00000006
S        4.59512194       1.27538343       4.73568929      -0.00256199       0.00362000       0.00444096
S        2.73415092       3.90719426       7.95898488       0.00256002      -0.00362551      -0.00444099
S        2.73415138       3.90719399       4.73568894       0.00256145      -0.00362307       0.00443727
S        4.59512197       1.27538378       7.95898484      -0.00256111       0.00361991      -0.00443831
