9
Lattice="6.7968368870672435 -2.5553693098063774e-07 3.9241551741445644 2.2656119680717217 6.408119782245084 3.9241553243042806 -3.4733658412170633e-07 -6.169676425750556e-08 7.848310949893812" Properties=species:S:1:pos:R:3:forces:R:3 energy=-25.385814666748047 free_energy=-25.385814666748047 stress="8.888709999155253e-06 1.8570050386301773e-08 -9.309673032475985e-09 1.8570050386301773e-08 8.921137123252265e-06 5.847586859175635e-09 -9.309673032475985e-09 5.847586859175635e-09 8.833914762362838e-06" pbc="T T T"
Bi       2.26561140       1.60202888       3.92415546       0.00000032       0.00000006       0.00000081
Bi       6.79683713       4.80608975      11.77246752       0.00000021      -0.00000035       0.00000012
Fe       0.00000039       0.00000086      -0.00000101      -0.00000823      -0.00001507       0.00001373
I        1.99271678       1.40906411       7.84831036      -0.00150837      -0.00106800       0.00000034
I        7.06973082       4.99905489       7.84831011       0.00152285       0.00107872       0.00000030
I        5.80047877       1.40906420       5.64989832       0.00075643      -0.00107387      -0.00131100
I        3.26197027       4.99905592      10.04672325      -0.00075614       0.00106981       0.00130627
I        3.26197021       4.99905543       5.64989855      -0.00075955       0.00107537      -0.00131316
I        5.80047830       1.40906382      10.04672308       0.00075259      -0.00106661       0.00130259
