9
Lattice="6.4982443018127 -2.3611174006096472e-07 3.751762899700669 2.16608136949243 6.126603105338773 3.751762625754277 -2.911729476164927e-07 -5.414049954202747e-07 7.503526303727678" Properties=species:S:1:pos:R:3:forces:R:3 energy=-28.623592376708984 free_energy=-28.623592376708984 stress="-1.3893233699491248e-05 5.71599549914481e-08 1.9156749075932566e-08 5.71599549914481e-08 -1.390247871313477e-05 -9.351140306534944e-08 1.9156749075932566e-08 -9.351140306534944e-08 -1.3972176930110436e-05" pbc="T T T"
Bi       2.16608185       1.53165003       3.75176316       0.00000053      -0.00000036      -0.00000030
Bi       6.49824403       4.59495221      11.25528990       0.00000042       0.00000037      -0.00000075
Fe       0.00000039      -0.00000051      -0.00000055      -0.00001458       0.00001543       0.00000875
Br       1.84711862       1.30611058       7.50352559      -0.00050996      -0.00036427       0.00000060
Br       6.81720657       4.82049275       7.50352588       0.00051007       0.00036064      -0.00000361
Br       5.57468496       1.30610920       5.35141409       0.00025198      -0.00035411      -0.00043561
Br       3.08964050       4.82049228       9.65563738      -0.00024751       0.00035070       0.00042547
Br       3.08964017       4.82049213       5.35141468      -0.00024799       0.00035742      -0.00043681
Br       5.57468438       1.30611059       9.65563724       0.00025710      -0.00036572       0.00044221
