9
Lattice="5.8140950151247655 -1.0362834852766815e-07 3.3567692962526445 1.9380315804947053 5.481581314946903 3.3567692850148023 -8.310064600330103e-08 -7.252444049022891e-08 6.713538736439725" Properties=species:S:1:pos:R:3:forces:R:3 energy=-33.17344284057617 free_energy=-33.17344284057617 stress="-1.0488029147381894e-05 1.5612627635164245e-08 2.9477529750465692e-08 1.5612627635164245e-08 -1.0505038517294452e-05 -5.429968918946315e-09 2.9477529750465692e-08 -5.429968918946315e-09 -1.0491553439351264e-05" pbc="T T T"
Bi       1.93803290       1.37039421       3.35676940       0.00000538      -0.00000465      -0.00000073
Bi       5.81409529       4.11118618      10.07030683       0.00000422       0.00000004      -0.00000468
Ge      -0.00000009       0.00000010       0.00000011       0.00000045      -0.00000004       0.00000136
Se       2.01472706       1.42462749       6.71353877       0.00048243       0.00034262       0.00000095
Se       5.73739896       4.05695422       6.71353933      -0.00048722      -0.00034173       0.00000239
Se       4.80673085       1.42462682       5.10157439      -0.00024473       0.00034258       0.00041999
Se       2.94539510       4.05695442       8.32550295       0.00024339      -0.00034207      -0.00042179
Se       2.94539504       4.05695394       5.10157439       0.00024059      -0.00034134       0.00042050
Se       4.80673091       1.42462719       8.32550319      -0.00024456       0.00034472      -0.00041809
