9
Lattice="5.584506837862884 -1.08790713765181e-08 3.224216491253207 1.8615022712602367 5.265122988323253 3.2242164873916805 5.0295643549811857e-08 3.083496925093368e-08 6.44843289539188" Properties=species:S:1:pos:R:3:forces:R:3 energy=-36.30258560180664 free_energy=-36.30258560180664 stress="-1.295087713515386e-05 -1.1244501996188205e-09 6.742229885503548e-09 -1.1244501996188205e-09 -1.2920305380248465e-05 -1.046095210455178e-09 6.742229885503548e-09 -1.046095210455178e-09 -1.2935323866258841e-05" pbc="T T T"
Bi       1.86150163       1.31628316       3.22421646      -0.00000406       0.00001602      -0.00000062
Bi       5.58450753       3.94884209       9.67264992       0.00000350      -0.00000305       0.00000511
Ge      -0.00000024       0.00000007      -0.00000014       0.00000281      -0.00000201       0.00000073
S        1.88718792       1.33444384       6.44843295       0.00025481       0.00018239       0.00000010
S        5.55882160       3.93067848       6.44843272      -0.00025275      -0.00018951      -0.00000196
S        4.64091297       1.33444343       4.85856912      -0.00012702       0.00018278       0.00022316
S        2.80509594       3.93067886       8.03829701       0.00012451      -0.00018486      -0.00021982
S        2.80509629       3.93067880       4.85856893       0.00012706      -0.00018293       0.00021830
S        4.64091296       1.33444331       8.03829657      -0.00012860       0.00018093      -0.00022534
