9
Lattice="6.249836746625 4.759022265085079e-07 3.6083451401936415 2.083279293325505 5.892400751933491 3.6083452629978154 -2.2147906595123733e-09 1.4883769776209088e-07 7.216690284223459" Properties=species:S:1:pos:R:3:forces:R:3 energy=-27.94437026977539 free_energy=-27.94437026977539 stress="-6.857290827610996e-06 1.0881506362636628e-08 1.621515033356502e-09 1.0881506362636628e-08 -6.867227966722567e-06 -1.5959365384787816e-08 1.621515033356502e-09 -1.5959365384787816e-08 -6.8685462792927865e-06" pbc="T T T"
Bi       2.08327915       1.47310081       3.60834710       0.00000096       0.00000067       0.00000220
Bi       6.24983909       4.41930248      10.82503776       0.00000155       0.00000005       0.00000219
Ge      -0.00000066      -0.00000056      -0.00000071       0.00000307      -0.00000292       0.00000392
Cl       1.90073755       1.34402465       7.21669043       0.00023013       0.00016088      -0.00000189
Cl       6.43237689       4.54837673       7.21668946      -0.00022379      -0.00016150      -0.00000196
Cl       5.29946748       1.34402427       5.25443174      -0.00011776       0.00016363       0.00020136
Cl       3.03364791       4.54837605       9.17894693       0.00011184      -0.00016164      -0.00019652
Cl       3.03364883       4.54837531       5.25443276       0.00011021      -0.00016148       0.00019243
Cl       5.29946791       1.34402575       9.17894724      -0.00011613       0.00016215      -0.00020164
