9
Lattice="6.3679954156726275 -8.973361164217018e-09 3.6765639043832956 2.122665126292826 6.003803606141235 3.67656391097297 5.116561401907589e-08 4.4250244986349705e-08 7.353127720145152" Properties=species:S:1:pos:R:3:forces:R:3 energy=-23.660741806030273 free_energy=-23.660741806030273 stress="6.775680958526209e-05 6.7947976134519195e-09 4.767573891228949e-09 6.7947976134519195e-09 6.774268695153296e-05 3.858764141551063e-10 4.767573891228949e-09 3.858764141551063e-10 6.773405038984492e-05" pbc="T T T"
Bi       2.12266502       1.50095135       3.67656375      -0.00000078       0.00000146      -0.00000080
Bi       6.36799530       4.50285315      11.02969196      -0.00000108       0.00000115       0.00000088
Ga       0.00000017       0.00000000      -0.00000006      -0.00000074      -0.00000156      -0.00000166
Br       2.09694952       1.48276687       7.35312774       0.00007629       0.00005376      -0.00000009
Br       6.39371115       4.52103618       7.35312769      -0.00007421      -0.00005317       0.00000019
Br       5.31952073       1.48276710       5.49257540      -0.00003835       0.00005358       0.00006678
Br       3.17113988       4.52103646       9.21368019       0.00003823      -0.00005414      -0.00006559
Br       3.17113997       4.52103654       5.49257535       0.00003817      -0.00005464       0.00006619
Br       5.31952066       1.48276691       9.21368011      -0.00003757       0.00005352      -0.00006583
