9
Lattice="5.49038275591157 -1.7299690115857e-07 3.169874186214474 1.8301275836967423 5.176381303070561 3.169873906495321 2.2383502852173168e-07 -1.843092884725473e-07 6.339747984735271" Properties=species:S:1:pos:R:3:forces:R:3 energy=-34.979156494140625 free_energy=-34.979156494140625 stress="-0.0003258937213104218 4.157046706865231e-09 -1.0078140988412088e-08 4.157046706865231e-09 -0.0003258910437580198 -4.630094530000406e-09 -1.0078140988412088e-08 -4.630094530000406e-09 -0.0003258165961597115" pbc="T T T"
Bi       1.83012726       1.29409575       3.16987231      -0.00000277       0.00000168      -0.00000888
Bi       5.49038285       3.88228445       9.50961960       0.00000016      -0.00000637      -0.00001423
Ga      -0.00000003      -0.00000014      -0.00000012      -0.00000085       0.00000136      -0.00000080
S        1.91810527       1.35630487       6.33974858      -0.00230116      -0.00162430       0.00000469
S        5.40240530       3.82007628       6.33974928       0.00230038       0.00162590       0.00000536
S        4.53133033       1.35630461       4.83100263       0.00115228      -0.00162643      -0.00199154
S        2.78918049       3.82007576       7.84849472      -0.00114965       0.00162311       0.00199616
S        2.78917977       3.82007644       4.83100257      -0.00115167       0.00162840      -0.00198960
S        4.53133094       1.35630565       7.84849474       0.00115331      -0.00162356       0.00199884
