9
Lattice="6.825563572925214 6.109277780339945e-08 3.9407409682965575 2.275187907488822 6.43520311568566 3.9407409817229473 2.4982453748724014e-08 3.410918090011447e-08 7.881481893322245" Properties=species:S:1:pos:R:3:forces:R:3 energy=-20.71737289428711 free_energy=-20.71737289428711 stress="6.653668242506683e-05 8.141073593037618e-09 -2.7819013759255995e-09 8.141073593037618e-09 6.651881994912401e-05 7.180449568267022e-09 -2.7819013759255995e-09 7.180449568267022e-09 6.652784941252321e-05" pbc="T T T"
Bi       2.27518795       1.60880071       3.94074092       0.00000047       0.00000040      -0.00000021
Bi       6.82556342       4.82640237      11.82222305      -0.00000044      -0.00000049      -0.00000034
Ga      -0.00000006       0.00000005      -0.00000073       0.00000079      -0.00000118       0.00000357
I        2.27781222       1.61065652       7.88148190      -0.00229566      -0.00162358       0.00000072
I        6.82293942       4.82454689       7.88148172       0.00229584       0.00162251       0.00000121
I        5.68665753       1.61065656       5.91338401       0.00114809      -0.00162376      -0.00198776
I        3.41409363       4.82454723       9.84958012      -0.00114645       0.00162175       0.00198773
I        3.41409404       4.82454665       5.91338408      -0.00114859       0.00162385      -0.00198949
I        5.68665789       1.61065587       9.84958031       0.00114593      -0.00161949       0.00198451
