9
Lattice="4.661359584470932 -7.71908434249505e-08 2.6912374004864312 1.5537865771248385 4.3947714861069365 2.6912371896194225 3.4576126372603505e-08 -2.33809234052136e-07 5.38247474108518" Properties=species:S:1:pos:R:3:forces:R:3 energy=-45.61582946777344 free_energy=-45.61582946777344 stress="0.0005744646186940372 -2.3592951592377176e-08 4.16957668392115e-08 -2.3592951592377176e-08 0.0005744174704886973 6.302376931444087e-08 4.16957668392115e-08 6.302376931444087e-08 0.0005745335365645587" pbc="T T T"
Bi       1.55378504       1.09869362       2.69123664      -0.00000961       0.00000257      -0.00000335
Bi       4.66135973       3.29607842       8.07370972       0.00000047       0.00000376      -0.00001513
Ga      -0.00000029       0.00000001       0.00000015      -0.00000008       0.00000203      -0.00000780
O        1.57127180       1.11105674       5.38247484       0.00620657       0.00438869       0.00000167
O        4.64387465       3.28371442       5.38247608      -0.00620639      -0.00439221       0.00000825
O        3.87572466       1.11105568       4.05199948      -0.00309992       0.00438541       0.00538301
O        2.33942299       3.28371434       6.71295111       0.00310615      -0.00438970      -0.00537133
O        2.33942149       3.28371424       4.05199882       0.00309917      -0.00439161       0.00537807
O        3.87572469       1.11105717       6.71295065      -0.00309676       0.00439155      -0.00537336
