9
Lattice="5.244811277520462 -8.17731862682996e-08 3.0280930907104318 1.7482704574020589 4.944854665756404 3.0280929025085057 -9.421713852524172e-08 -2.971208554271563e-07 6.056186344609643" Properties=species:S:1:pos:R:3:forces:R:3 energy=-38.22309494018555 free_energy=-38.22309494018555 stress="0.0002342499210499227 -2.5357556054927954e-09 -2.7826681403553266e-08 -2.5357556054927954e-09 0.0002342462248634547 9.030163283796355e-09 -2.7826681403553266e-08 9.030163283796355e-09 0.0002342606894671917" pbc="T T T"
Bi       1.74827137       1.23621363       3.02809569       0.00000182      -0.00000013       0.00000543
Bi       5.24481084       3.70864055       9.08427751      -0.00000019      -0.00000048      -0.00000455
Ga      -0.00000017       0.00000019       0.00000004       0.00000139      -0.00000452       0.00000002
F        1.57298478       1.11226773       6.05618572      -0.00417638      -0.00295308      -0.00000028
F        5.42009651       3.83258675       6.05618635       0.00417791       0.00295475       0.00000013
F        4.45831820       1.11226796       4.39033789       0.00208776      -0.00295310      -0.00361812
F        2.53476339       3.83258643       7.72203408      -0.00208979       0.00295462       0.00361970
F        2.53476267       3.83258603       4.39033796      -0.00208987       0.00295417      -0.00361940
F        4.45831900       1.11226809       7.72203407       0.00208732      -0.00295220       0.00361706
