9
Lattice="6.868282040532497 7.751793390074978e-08 3.9654044364804055 2.2894273962212006 6.4754784373040435 3.9654044775431423 -8.776337775109797e-09 4.408562460574471e-08 7.930808888161837" Properties=species:S:1:pos:R:3:forces:R:3 energy=-21.645832061767578 free_energy=-21.645832061767578 stress="0.00016923977818805724 7.428865300695975e-10 4.335097170127256e-09 7.428865300695975e-10 0.0001692451478447765 -5.408704151221855e-09 4.335097170127256e-09 -5.408704151221855e-09 0.00016923568909987807" pbc="T T T"
Bi       2.28942757       1.61886979       3.96540439       0.00000013       0.00000068      -0.00000043
Bi       6.86828187       4.85660887      11.89621358      -0.00000075      -0.00000043      -0.00000007
Ge      -0.00000005      -0.00000003       0.00000002       0.00000031      -0.00000063       0.00000033
I        2.36653991       1.67339638       7.93080898      -0.00428255      -0.00302836       0.00000009
I        6.79116971       4.80208217       7.93080879       0.00428221       0.00302820      -0.00000001
I        5.68501220       1.67339641       6.01488786       0.00214137      -0.00302810      -0.00370841
I        3.47269725       4.80208212       9.84672989      -0.00214107       0.00302861       0.00370862
I        3.47269725       4.80208214       6.01488778      -0.00214119       0.00302824      -0.00370958
I        5.68501202       1.67339636       9.84672995       0.00214152      -0.00302819       0.00370950
