9
Lattice="5.76440149650961 7.615330741153559e-08 3.3280787189133556 1.9214672233296235 5.43472991097939 3.3280787431129584 -3.995975661229178e-08 1.382565154412568e-09 6.656157507038943" Properties=species:S:1:pos:R:3:forces:R:3 energy=-31.889663696289062 free_energy=-31.889663696289062 stress="2.6050051928905305e-06 1.862355425430451e-08 -2.2028686430530797e-08 1.862355425430451e-08 2.6582608825265197e-06 -2.0835878800085084e-08 -2.2028686430530797e-08 -2.0835878800085084e-08 2.6309744498576038e-06" pbc="T T T"
Bi       1.92146628       1.35868230       3.32807924      -0.00000322      -0.00000058       0.00000151
Bi       5.76440117       4.07604757       9.98423541      -0.00000157      -0.00000021      -0.00000200
Ga       0.00000015       0.00000038      -0.00000001      -0.00000313      -0.00000454       0.00000378
Se       2.03710620       1.44045140       6.65615739      -0.00068235      -0.00048305      -0.00000041
Se       5.64876232       3.99427784       6.65615753       0.00068931       0.00048658       0.00000067
Se       4.74584858       1.44045178       5.09226469       0.00034353      -0.00048583      -0.00059236
Se       2.94002070       3.99427861       8.22005046      -0.00034036       0.00048424       0.00059249
Se       2.94002038       3.99427802       5.09226465      -0.00034471       0.00048503      -0.00059449
Se       4.74584895       1.44045201       8.22005054       0.00034254      -0.00048167       0.00059081
