9
Lattice="6.436487664756607 7.232323968066597e-08 3.716107843297352 2.145495902819169 6.068378790766442 3.7161079361698746 -6.009506967573327e-08 7.125163971959034e-08 7.4322157906822905" Properties=species:S:1:pos:R:3:forces:R:3 energy=-24.208221435546875 free_energy=-24.208221435546875 stress="8.550019265385345e-05 -1.0472921196935658e-08 -8.020202557634803e-11 -1.0472921196935658e-08 8.549607446184382e-05 -1.4035051766614348e-11 -8.020202557634803e-11 -1.4035051766614348e-11 8.548776531824842e-05" pbc="T T T"
Bi       2.14549653       1.51709451       3.71610793       0.00000219      -0.00000030      -0.00000122
Bi       6.43648737       4.55128499      11.14832224      -0.00000118       0.00000182      -0.00000499
Ge       0.00000024      -0.00000018       0.00000046      -0.00000166      -0.00000081      -0.00000065
Br       2.10823667       1.49074811       7.43221594       0.00038126       0.00026881      -0.00000073
Br       6.47374677       4.57763076       7.43221636      -0.00038105      -0.00026752       0.00000085
Br       5.38236955       1.49074772       5.54189448      -0.00019212       0.00027020       0.00033138
Br       3.19961445       4.57763012       9.32253750       0.00019060      -0.00026831      -0.00032882
Br       3.19961341       4.57763099       5.54189419       0.00019182      -0.00027210       0.00033261
Br       5.38236904       1.49074874       9.32253718      -0.00018985       0.00026818      -0.00032837
