9
Lattice="5.778031787010203 3.484184564083359e-07 3.335947518418061 1.9260108141240009 5.447580652113613 3.3359477090097855 -1.2844809920409526e-07 1.425996995090478e-07 6.671895259314744" Properties=species:S:1:pos:R:3:forces:R:3 energy=-38.396095275878906 free_energy=-38.396095275878906 stress="-8.989857633423526e-06 -3.870906084557646e-08 1.4767152833883301e-08 -3.870906084557646e-08 -8.915450052882079e-06 -7.695601489388082e-09 1.4767152833883301e-08 -7.695601489388082e-09 -8.963295840658247e-06" pbc="T T T"
Bi       1.92601437       1.36190031       3.33593862      -0.00000008       0.00000058       0.00000104
Bi       5.77802881       4.08567918      10.00786776      -0.00000024       0.00000016       0.00000024
Ge      -0.00000014       0.00000034      -0.00000115       0.00000097      -0.00000862      -0.00001722
F        1.49856437       1.05964655       6.67189296       0.00048620       0.00034253      -0.00000435
F        6.20547808       4.38793480       6.67189150      -0.00048465      -0.00033978       0.00000624
F        5.02874962       1.05964711       4.63374074      -0.00024474       0.00033846       0.00042228
F        2.67529215       4.38793513       8.71004514       0.00024095      -0.00033094      -0.00041321
F        2.67529533       4.38793522       4.63374028       0.00023770      -0.00034033       0.00041942
F        5.02874755       1.05964595       8.71004625      -0.00023605       0.00033771      -0.00041451
