9
Lattice="6.094085282206703 1.6381730173285354e-07 3.518422167579 2.0313619591781555 5.745558626432379 3.5184220913788566 -1.9006385424451324e-07 -2.277211365169244e-07 7.036844664358325" Properties=species:S:1:pos:R:3:forces:R:3 energy=-27.262704849243164 free_energy=-27.262704849243164 stress="1.1514259313116781e-05 -1.8529206613493443e-08 1.9938299899990852e-09 -1.8529206613493443e-08 1.1545374945853837e-05 -1.0796062710483056e-08 1.9938299899990852e-09 -1.0796062710483056e-08 1.1512674973346293e-05" pbc="T T T"
Bi       2.03136313       1.43639017       3.51842234       0.00000402       0.00000238      -0.00000088
Bi       6.09408551       4.30916861      10.55526518       0.00000083      -0.00000078      -0.00000333
Ga       0.00000012      -0.00000020       0.00000077      -0.00000204       0.00000174      -0.00000880
Cl       1.95414844       1.38179237       7.03684524       0.00060650       0.00042947       0.00000028
Cl       6.17129822       4.36376657       7.03684460      -0.00060830      -0.00043003      -0.00000002
Cl       5.11700976       1.38179183       5.21076497      -0.00030624       0.00043023       0.00052776
Cl       3.00843671       4.36376588       8.86292431       0.00030239      -0.00042712      -0.00052319
Cl       3.00843611       4.36376640       5.21076488       0.00030470      -0.00043096       0.00052927
Cl       5.11701020       1.38179267       8.86292342      -0.00030180       0.00042512      -0.00052112
