9
Lattice="4.660967253125453 1.1419766762921576e-07 2.6910104059432842 1.553655857637634 4.394402145283003 2.6910104077979233 7.945311108084058e-08 5.8453274994789946e-08 5.3820206742698025" Properties=species:S:1:pos:R:3:forces:R:3 energy=-49.266845703125 free_energy=-49.266845703125 stress="-3.1961699278326705e-05 3.894094646739177e-08 -4.555334953693091e-08 3.894094646739177e-08 -3.181486317771487e-05 1.1301224844828539e-08 -4.555334953693091e-08 1.1301224844828539e-08 -3.175896927132271e-05" pbc="T T T"
Bi       1.55365578       1.09860014       2.69101046       0.00000109      -0.00000251      -0.00000207
Bi       4.66096760       3.29580219       8.07303157       0.00000100       0.00000165       0.00000188
Ge      -0.00000019       0.00000010      -0.00000026       0.00000121      -0.00000109       0.00001049
O        1.54575251       1.09301208       5.38202075       0.00198579       0.00140357       0.00000140
O        4.66887060       3.30139021       5.38202025      -0.00198507      -0.00140333      -0.00000039
O        3.88809114       1.09301214       4.02967110      -0.00099301       0.00140154       0.00172114
O        2.32653202       3.30139065       6.73437041       0.00099587      -0.00140607      -0.00172484
O        2.32653199       3.30139017       4.02967131       0.00099105      -0.00140297       0.00172079
O        3.88809124       1.09301150       6.73437049      -0.00099754       0.00141001      -0.00172770
