9
Lattice="6.303716601906423 -4.183607278886248e-08 3.6394523950597675 2.1012388710565677 5.943200913010443 3.639452320238772 3.5120605776625614e-08 -6.680249745539811e-08 7.278904729288768" Properties=species:S:1:pos:R:3:forces:R:3 energy=-28.306028366088867 free_energy=-28.306028366088867 stress="2.164671241189353e-05 -6.813606567845909e-09 1.7770078741818907e-08 -6.813606567845909e-09 2.1630903574987315e-05 -1.7650334527274936e-08 1.7770078741818907e-08 -1.7650334527274936e-08 2.164847137464676e-05" pbc="T T T"
Bi       2.10123965       1.48580103       3.63945171       0.00000313       0.00000332      -0.00000255
Bi       6.30371533       4.45740203      10.91835792      -0.00000569       0.00000643       0.00000283
Ga      -0.00000000      -0.00000022      -0.00000001      -0.00000189       0.00000042      -0.00000030
Te       2.23896741       1.58318806       7.27890459       0.00331526       0.00234154      -0.00000000
Te       6.16598842       4.36001198       7.27890412      -0.00331278      -0.00234278      -0.00000114
Te       5.18423295       1.58318819       5.57845488      -0.00165703       0.00234124       0.00286973
Te       3.22072277       4.36001177       8.97935537       0.00165950      -0.00234703      -0.00286897
Te       3.22072312       4.36001228       5.57845428       0.00165820      -0.00234381       0.00286845
Te       5.18423241       1.58318814       8.97935494      -0.00165876       0.00234067      -0.00286803
