9
Lattice="6.424252265693084 -1.4144694399826384e-07 3.709043786304484 2.141417255206483 6.056843045104938 3.709043844040289 -8.831677905576935e-08 8.262264593806422e-09 7.418087725578144" Properties=species:S:1:pos:R:3:forces:R:3 energy=-36.93167495727539 free_energy=-36.93167495727539 stress="2.411309651506599e-05 -9.680385382182521e-09 4.115896068412894e-09 -9.680385382182521e-09 2.4121069145621732e-05 6.462801405149321e-09 4.115896068412894e-09 6.462801405149321e-09 2.4128816221491434e-05" pbc="T T T"
Bi       2.14141768       1.51421117       3.70904370       0.00000027       0.00000260      -0.00000086
Bi       6.42425307       4.54263282      11.12713146       0.00000512       0.00000160      -0.00000007
Hf      -0.00000013      -0.00000012      -0.00000031       0.00000028       0.00000282       0.00000278
Te       2.29554171       1.62319279       7.41808767       0.00054775       0.00038683       0.00000041
Te       6.27012765       4.43364980       7.41808761      -0.00055200      -0.00038733       0.00000054
Te       5.27648144       1.62319301       5.69704179      -0.00027286       0.00038527       0.00047125
Te       3.28918721       4.43364950       9.13913400       0.00027311      -0.00039107      -0.00047593
Te       3.28918742       4.43364983       5.69704172       0.00027226      -0.00038759       0.00047585
Te       5.27648166       1.62319283       9.13913385      -0.00027408       0.00038683      -0.00047398
