9
Lattice="5.563935763633029 6.857326676900209e-08 3.212339992176248 1.8546452578139094 5.245729395497129 3.212340098492804 7.271933222576347e-08 1.8163103775998424e-07 6.424679858398883" Properties=species:S:1:pos:R:3:forces:R:3 energy=-44.954463958740234 free_energy=-44.954463958740234 stress="0.00023598717234563082 -4.998389613319887e-08 1.472207777908352e-08 -4.998389613319887e-08 0.00023603002773597836 -3.86216925107874e-08 1.472207777908352e-08 -3.86216925107874e-08 0.00023606905597262084" pbc="T T T"
Bi       1.85464514       1.31143417       3.21234025       0.00000112       0.00001122       0.00000325
Bi       5.56393467       3.93429577       9.63701910      -0.00000516      -0.00000921      -0.00000578
Hf       0.00000019       0.00000008       0.00000051      -0.00000261      -0.00000045      -0.00000550
S        1.98847114       1.40606148       6.42467981      -0.00205702      -0.00145197      -0.00000033
S        5.43011004       3.83966775       6.42468047       0.00206205       0.00145413       0.00000065
S        4.56970013       1.40606183       4.93440646       0.00102874      -0.00145266      -0.00178340
S        2.84888136       3.83966775       7.91495349      -0.00102980       0.00145328       0.00178771
S        2.84888084       3.83966713       4.93440658      -0.00103169       0.00145180      -0.00178638
S        4.56970076       1.40606258       7.91495315       0.00103435      -0.00145606       0.00178978
