9
Lattice="4.7761265287080485 2.5553764759232638e-08 2.757498051164204 1.5920421726016916 4.502975470781502 2.7574980991881604 -3.9173014772369634e-08 3.111760364834131e-08 5.514996170178073" Properties=species:S:1:pos:R:3:forces:R:3 energy=-58.26528549194336 free_energy=-58.26528549194336 stress="-0.00012600061018019915 8.37120737173791e-08 -4.0687105240522214e-08 8.37120737173791e-08 -0.00012584000069182366 4.029813993611242e-08 -4.0687105240522214e-08 4.029813993611242e-08 -0.00012591319682542235" pbc="T T T"
Bi       1.59204281       1.12574451       2.75749871       0.00000506       0.00000393       0.00000441
Bi       4.77612653       3.37723169       8.27249534       0.00000008       0.00000053       0.00000917
Hf       0.00000013       0.00000004       0.00000027      -0.00000001       0.00000223      -0.00000438
O        1.65038761       1.16700044       5.51499591      -0.00204593      -0.00144720      -0.00000288
O        4.71778098       3.33597513       5.51499568       0.00204486       0.00144565      -0.00000234
O        3.95093239       1.16700063       4.18677544       0.00101838      -0.00144190      -0.00177324
O        2.41723571       3.33597505       6.84321641      -0.00102410       0.00144506       0.00177068
O        2.41723611       3.33597483       4.18677538      -0.00101954       0.00144035      -0.00177199
O        3.95093235       1.16699982       6.84321619       0.00102103      -0.00144869       0.00177073
