9
Lattice="6.478785114390154 3.4582664983768124e-08 3.740528352151508 2.159595058168815 6.108257207762119 3.740528373916635 2.1154749907992898e-09 2.8152554850622234e-08 7.481056700638965" Properties=species:S:1:pos:R:3:forces:R:3 energy=-18.940673828125 free_energy=-18.940673828125 stress="0.0002574627287685871 6.579771727466266e-10 4.778890616563558e-09 6.579771727466266e-10 0.00025745865423232317 4.4488079886662035e-10 4.778890616563558e-09 4.4488079886662035e-10 0.0002574728277977556" pbc="T T T"
Bi       2.15959520       1.52706450       3.74052848      -0.00000001       0.00000034       0.00000090
Bi       6.47878516       4.58119284      11.22158531       0.00000001       0.00000002       0.00000094
Hg       0.00000029       0.00000007      -0.00000004      -0.00000246      -0.00000175      -0.00000196
Br       2.25798263       1.59663492       7.48105667      -0.00593394      -0.00419510      -0.00000086
Br       6.38039713       4.51162185       7.48105663       0.00593667       0.00419779      -0.00000057
Br       5.34979371       1.59663501       5.69599880       0.00296704      -0.00419632      -0.00513981
Br       3.28858638       4.51162244       9.26611467      -0.00296830       0.00419733       0.00513978
Br       3.28858659       4.51162223       5.69599863      -0.00296745       0.00419594      -0.00513958
Br       5.34979361       1.59663525       9.26611455       0.00296845      -0.00419822       0.00514121
