9
Lattice="5.192336648322838 -1.7876449893593888e-07 2.9977970518130213 1.7307787939448187 4.895381898203122 2.9977969137489877 2.0129144042687605e-07 -2.675870790572417e-08 5.995593754979075" Properties=species:S:1:pos:R:3:forces:R:3 energy=-31.122913360595703 free_energy=-31.122913360595703 stress="4.51066580353654e-06 2.888747729912211e-08 -6.744539149394768e-08 2.888747729912211e-08 4.388057277537882e-06 -6.575870514780036e-08 -6.744539149394768e-08 -6.575870514780036e-08 4.628044280252652e-06" pbc="T T T"
Bi       1.73078078       1.22384854       2.99779721       0.00000698       0.00001623       0.00000222
Bi       5.19233610       3.67153597       8.99339346      -0.00000278      -0.00000086       0.00001476
Hg      -0.00000025      -0.00000017      -0.00000002       0.00000480       0.00000153       0.00000017
F        1.81998542       1.28692397       5.99559372       0.00080224       0.00056654      -0.00000086
F        5.10313042       3.60845693       5.99559277      -0.00080385      -0.00057360      -0.00000788
F        4.28234325       1.28692450       4.57395004      -0.00040467       0.00057189       0.00069172
F        2.64077160       3.60845671       7.41723721       0.00039779      -0.00057322      -0.00069294
F        2.64077196       3.60845661       4.57395013       0.00040293      -0.00057267       0.00068818
F        4.28234340       1.28692360       7.41723651      -0.00040352       0.00056396      -0.00069553
