9
Lattice="6.889265890030034 1.312892023813121e-07 3.9775194767072692 2.2964220747832975 6.495262204712022 3.9775194980820143 3.794684749468448e-10 2.6446946311922154e-08 7.955038952757267" Properties=species:S:1:pos:R:3:forces:R:3 energy=-16.721317291259766 free_energy=-16.721317291259766 stress="-2.1330546587705612e-05 -3.273960880179061e-09 -2.495454953788112e-09 -3.273960880179061e-09 -2.1321149688446894e-05 -2.6891400217721184e-10 -2.495454953788112e-09 -2.6891400217721184e-10 -2.13338753383141e-05" pbc="T T T"
Bi       2.29642193       1.62381526       3.97751979       0.00000038      -0.00000050       0.00000070
Bi       6.88926581       4.87144716      11.93255866      -0.00000031      -0.00000006       0.00000047
Hg       0.00000003       0.00000007      -0.00000015      -0.00000036       0.00000037       0.00000058
I        2.42547528       1.71506964       7.95503905      -0.00698876      -0.00494146      -0.00000040
I        6.76021267       4.78019245       7.95503888       0.00698911       0.00494200      -0.00000014
I        5.67652842       1.71506960       6.07804222       0.00349482      -0.00494203      -0.00605284
I        3.50915948       4.78019272       9.83203557      -0.00349466       0.00494173       0.00605185
I        3.50915962       4.78019276       6.07804204      -0.00349513       0.00494191      -0.00605215
I        5.67652861       1.71506979       9.83203568       0.00349493      -0.00494197       0.00605203
