9
Lattice="5.590979065970931 -1.6790489297392366e-09 3.227953111193165 1.8636596865517303 5.27122528112824 3.2279531120976612 2.3166360786205635e-07 1.6491868580803668e-07 6.455905821133184" Properties=species:S:1:pos:R:3:forces:R:3 energy=-41.395301818847656 free_energy=-41.395301818847656 stress="-8.48550844239071e-05 4.457712421412907e-09 4.0370484732932255e-09 4.457712421412907e-09 -8.486370643367991e-05 1.6999177177012825e-08 4.0370484732932255e-09 1.6999177177012825e-08 -8.485274156555533e-05" pbc="T T T"
Bi       1.86365965       1.31780545       3.22795292      -0.00000087      -0.00000450      -0.00000035
Bi       5.59097869       3.95341896       9.68385994      -0.00000244      -0.00000146       0.00000408
Ir      -0.00000015      -0.00000004      -0.00000001      -0.00000072      -0.00000117       0.00000066
S        1.90057616       1.34391046       6.45590580      -0.00054306      -0.00038338      -0.00000110
S        5.55406279       3.92731535       6.45590590       0.00054359       0.00038594      -0.00000253
S        4.64069127       1.34391033       4.87390003       0.00027078      -0.00038168      -0.00047195
S        2.81394807       3.92731547       8.03791179      -0.00027105       0.00038683       0.00047058
S        2.81394822       3.92731567       4.87390001      -0.00026831       0.00038424      -0.00047022
S        4.64069126       1.34391016       8.03791183       0.00027204      -0.00038466       0.00047064
