9
Lattice="5.834026206188107 -8.882885350082725e-09 3.368276576732467 1.944675402476101 5.500372755932775 3.3682765615106725 -6.253981151952226e-08 -6.28650692428615e-08 6.736553261786992" Properties=species:S:1:pos:R:3:forces:R:3 energy=-38.52549743652344 free_energy=-38.52549743652344 stress="-1.7060792742995545e-05 1.2631184986844346e-08 -1.8463829576376156e-08 1.2631184986844346e-08 -1.714262725727167e-05 3.789375568885589e-08 -1.8463829576376156e-08 3.789375568885589e-08 -1.715344660624396e-05" pbc="T T T"
Bi       1.94467519       1.37509358       3.36827664       0.00000061       0.00000175      -0.00000006
Bi       5.83402633       4.12527935      10.10482917       0.00000125       0.00000039      -0.00000268
Ir      -0.00000000      -0.00000006       0.00000018      -0.00000188       0.00000071      -0.00000182
Se       2.00306966       1.41638419       6.73655330       0.00023568       0.00016627      -0.00000003
Se       5.77563196       4.08398850       6.73655348      -0.00023603      -0.00016630       0.00000071
Se       4.83249139       1.41638404       5.10298576      -0.00011787       0.00016613       0.00020516
Se       2.94621022       4.08398832       8.37012072       0.00011769      -0.00016700      -0.00020450
Se       2.94621002       4.08398847       5.10298562       0.00011873      -0.00016876       0.00020741
Se       4.83249144       1.41638435       8.37012074      -0.00011825       0.00016674      -0.00020407
