9
Lattice="6.218078675641021 -3.215430744856789e-08 3.5900095943814723 2.0726928102153175 5.862459754353927 3.590009683321596 2.0156924742835816e-07 2.5145995279251827e-07 7.180018839634787" Properties=species:S:1:pos:R:3:forces:R:3 energy=-26.748023986816406 free_energy=-26.748023986816406 stress="0.0001000919655780308 3.122838654334714e-09 -3.280912652670054e-09 3.122838654334714e-09 0.00010010047844843939 3.73608255443969e-09 -3.280912652670054e-09 3.73608255443969e-09 0.00010010770347435027" pbc="T T T"
Bi       2.07269305       1.46561442       3.59001021       0.00000047      -0.00000041       0.00000226
Bi       6.21807780       4.39684665      10.77002977      -0.00000197       0.00000306       0.00000247
In      -0.00000008      -0.00000001       0.00000035       0.00000126      -0.00000173      -0.00000910
Cl       2.06321596       1.45891415       7.18001870       0.00044144       0.00030955      -0.00000190
Cl       6.22755595       4.40354568       7.18001938      -0.00044088      -0.00031150      -0.00000198
Cl       5.18647114       1.45891323       5.37680621      -0.00022350       0.00031492       0.00038515
Cl       3.10430142       4.40354593       8.98323063       0.00021846      -0.00030733      -0.00037862
Cl       3.10430079       4.40354588       5.37680643       0.00022398      -0.00031457       0.00038287
Cl       5.18647073       1.45891396       8.98323080      -0.00021932       0.00030802      -0.00038115
