9
Lattice="4.76695652567311 4.9465640569178776e-08 2.7522037529374015 1.588985504748723 4.494329880278444 2.7522038403118265 -5.0917249265616974e-08 7.100743872555452e-08 5.504407594066056" Properties=species:S:1:pos:R:3:forces:R:3 energy=-52.22319412231445 free_energy=-52.22319412231445 stress="-0.000494841777253896 -9.802601397268518e-09 -1.3754137384580645e-08 -9.802601397268518e-09 -0.0004947302513755858 3.588390740105751e-08 -1.3754137384580645e-08 3.588390740105751e-08 -0.0004947608103975654" pbc="T T T"
Bi       1.58898601       1.12358261       2.75220338       0.00000129      -0.00000075      -0.00000164
Bi       4.76695592       3.37074730       8.25661221      -0.00000279       0.00000003       0.00000293
Ir      -0.00000006       0.00000001       0.00000010      -0.00000402      -0.00000280       0.00000400
O        1.57088351       1.11078241       5.50440797       0.00607255       0.00429234      -0.00000019
O        4.78505817       3.38354737       5.50440719      -0.00606474      -0.00428689      -0.00000092
O        3.98151467       1.11078294       4.11262899      -0.00303537       0.00428900       0.00525108
O        2.37442747       3.38354723       6.89618584       0.00303397      -0.00429052      -0.00525311
O        2.37442788       3.38354748       4.11262913       0.00303477      -0.00429124       0.00525326
O        3.98151436       1.11078261       6.89618599      -0.00303568       0.00429076      -0.00525475
