9
Lattice="5.352970508306548 -5.610058834768695e-10 3.0905387969592524 1.7843234808007435 5.0468286498469155 3.0905388340929645 -5.4695500811965686e-08 6.8038200964965135e-09 6.181077688653881" Properties=species:S:1:pos:R:3:forces:R:3 energy=-37.06621170043945 free_energy=-37.06621170043945 stress="-1.67527705343673e-05 -1.1493455964739496e-08 9.544829510099717e-11 -1.1493455964739496e-08 -1.6732936273911037e-05 2.2832910673287188e-08 9.544829510099717e-11 2.2832910673287188e-08 -1.6724123270250857e-05" pbc="T T T"
Bi       1.78432375       1.26170727       3.09053895       0.00000020       0.00000005       0.00000018
Bi       5.35297008       3.78512196       9.27161505      -0.00000074       0.00000069      -0.00000355
In      -0.00000011       0.00000003       0.00000020      -0.00000009       0.00000400       0.00000401
F        1.73183347       1.22459092       6.18107776       0.00049137       0.00034748       0.00000010
F        5.40546075       3.82223735       6.18107809      -0.00049289      -0.00034897       0.00000134
F        4.48705329       1.22459093       4.59035100      -0.00024466       0.00034449       0.00042385
F        2.65024075       3.82223752       7.77180488       0.00024735      -0.00034859      -0.00042621
F        2.65024034       3.82223767       4.59035081       0.00024546      -0.00034769       0.00042583
F        4.48705340       1.22459111       7.77180467      -0.00024601       0.00034859      -0.00042580
