9
Lattice="6.691971623976884 1.2001066974727718e-07 3.8636115708239926 2.230657297830916 6.30925125345891 3.863611611195511 -4.837720559569484e-08 1.523696161553508e-08 7.7272232254397935" Properties=species:S:1:pos:R:3:forces:R:3 energy=-26.06930160522461 free_energy=-26.06930160522461 stress="-1.3477044376486447e-05 1.705925711803502e-08 -1.075778399695082e-08 1.705925711803502e-08 -1.348000114376191e-05 1.621593703760027e-08 -1.075778399695082e-08 1.621593703760027e-08 -1.3506110008165706e-05" pbc="T T T"
Bi       2.23065763       1.57731281       3.86361139       0.00000086       0.00000055      -0.00000054
Bi       6.69197177       4.73193865      11.59083493       0.00000073       0.00000062       0.00000008
Ir      -0.00000021      -0.00000002       0.00000064      -0.00000041      -0.00000153      -0.00001249
I        2.18498552       1.54501818       7.72722316      -0.00230246      -0.00162814       0.00000010
I        6.73764328       4.76423324       7.72722310       0.00230301       0.00162883       0.00000008
I        5.59947904       1.54501778       5.75586427       0.00114849      -0.00162525      -0.00198978
I        3.32314984       4.76423330       9.69858181      -0.00115300       0.00163014       0.00199652
I        3.32314976       4.76423358       5.75586434      -0.00114844       0.00162344      -0.00198853
I        5.59947885       1.54501803       9.69858199       0.00115118      -0.00162871       0.00199454
