9
Lattice="4.997848547680809 -1.5971906688581533e-07 2.8855086789605333 1.6659493995599155 4.7120160861979254 2.8855086196362647 -2.4359713702820558e-08 -8.988208265620702e-08 5.771017400113421" Properties=species:S:1:pos:R:3:forces:R:3 energy=-39.52471923828125 free_energy=-39.52471923828125 stress="-0.000294901808956638 -6.401878493988988e-08 1.2464097665088048e-07 -6.401878493988988e-08 -0.0002951625792775303 1.2509070757005247e-07 1.2464097665088048e-07 1.2509070757005247e-07 -0.0002949126937892288" pbc="T T T"
Bi       1.66594715       1.17800759       2.88551091      -0.00001049       0.00001616       0.00001109
Bi       4.99784739       3.53400854       8.65652037      -0.00000433      -0.00001503      -0.00002490
Ir       0.00000050      -0.00000003       0.00000016       0.00000232      -0.00000244       0.00000317
F        1.70434628       1.20515519       5.77101739       0.00671673       0.00475287      -0.00000200
F        4.95945248       3.50686019       5.77101954      -0.00671428      -0.00475606       0.00000883
F        4.14567490       1.20515514       4.36151538      -0.00335614       0.00474814       0.00581384
F        2.51812400       3.50686087       7.18051968       0.00336315      -0.00474861      -0.00580871
F        2.51812186       3.50686044       4.36151601       0.00335371      -0.00475070       0.00581455
F        4.14567707       1.20515551       7.18051896      -0.00335073       0.00475582      -0.00581568
