9
Lattice="6.1497990855643385 1.1183717608099144e-07 3.5505884353320187 2.0499330762116736 5.798085712859717 3.5505885353593745 1.3501123389890497e-07 2.179753866548934e-07 7.101176636817689" Properties=species:S:1:pos:R:3:forces:R:3 energy=-31.206178665161133 free_energy=-31.206178665161133 stress="6.0545455198735e-05 -6.074394320876308e-08 -1.433680285600758e-08 -6.074394320876308e-08 6.059836960048415e-05 2.0653839527540185e-08 -1.433680285600758e-08 2.0653839527540185e-08 6.064098488423042e-05" pbc="T T T"
Bi       2.04993125       1.44952023       3.55058850      -0.00000358      -0.00000225       0.00000080
Bi       6.14979684       4.34856292      10.65176594      -0.00000408      -0.00000316       0.00000121
Ir       0.00000070       0.00000091       0.00000005       0.00000608      -0.00001540      -0.00000818
Cl       1.91394468       1.35336230       7.10117646       0.00041664       0.00029530       0.00000025
Cl       6.28578919       4.44472469       7.10117652      -0.00041826      -0.00029323      -0.00000024
Cl       5.19282820       1.35336283       5.20811256      -0.00020447       0.00029705       0.00035822
Cl       3.00690503       4.44472331       8.99424077       0.00020429      -0.00028424      -0.00035049
Cl       3.00690528       4.44472325       5.20811236       0.00020798      -0.00028886       0.00035495
Cl       5.19282803       1.35336370       8.99424113      -0.00020458       0.00029485      -0.00035654
