9
Lattice="6.396483369262751 -9.286747067855719e-08 3.6930113938574105 2.1321610341020114 6.030662644731986 3.6930113963329747 -3.481296824949483e-08 -2.1584559232087818e-08 7.386022848012606" Properties=species:S:1:pos:R:3:forces:R:3 energy=-28.268756866455078 free_energy=-28.268756866455078 stress="3.9364244003081694e-05 -1.6034325867053667e-08 7.3651986731704255e-09 -1.6034325867053667e-08 3.937546716770157e-05 -1.2616016675792707e-08 7.3651986731704255e-09 -1.2616016675792707e-08 3.941139948437922e-05" pbc="T T T"
Bi       2.13216096       1.50766556       3.69301159       0.00000031       0.00000025      -0.00000001
Bi       6.39648324       4.52299719      11.07903487       0.00000035       0.00000121       0.00000097
Ir       0.00000046       0.00000035      -0.00000037      -0.00000948      -0.00000943       0.00000503
Br       2.03066815       1.43589934       7.38602277       0.00022135       0.00015648       0.00000001
Br       6.49797580       4.59476286       7.38602259      -0.00021248      -0.00015029      -0.00000030
Br       5.38114906       1.43589950       5.45162180      -0.00010685       0.00015156       0.00018567
Br       3.14749526       4.59476318       9.32042371       0.00010824      -0.00015318      -0.00018757
Br       3.14749557       4.59476300       5.45162186       0.00010657      -0.00014930       0.00018332
Br       5.38114899       1.43589911       9.32042373      -0.00010796       0.00015277      -0.00018720
