9
Lattice="6.516705922622617 5.104100432916145e-08 3.7624218674871166 2.1722353628519313 6.144009281996011 3.762421855035139 1.1283452978733757e-08 -7.2718992346235436e-09 7.52484371543066" Properties=species:S:1:pos:R:3:forces:R:3 energy=-23.26714515686035 free_energy=-23.26714515686035 stress="0.00023415108444169164 2.3374877589077414e-09 -3.62787244689855e-09 2.3374877589077414e-09 0.0002341439394513145 4.615913429262264e-09 -3.62787244689855e-09 4.615913429262264e-09 0.00023414913448505104" pbc="T T T"
Bi       2.17223471       1.53600247       3.76242191      -0.00000149       0.00000085      -0.00000009
Bi       6.51670619       4.60800687      11.28726543      -0.00000054      -0.00000004       0.00000018
In       0.00000017      -0.00000002      -0.00000040      -0.00000032       0.00000017       0.00000267
Br       2.19834036       1.55446150       7.52484359      -0.00320672      -0.00226744       0.00000066
Br       6.49060090       4.58954785       7.52484372       0.00320788       0.00226730       0.00000019
Br       5.41753586       1.55446136       5.66624044       0.00160497      -0.00226901      -0.00277834
Br       3.27140537       4.58954829       9.38344730      -0.00160290       0.00226611       0.00277678
Br       3.27140548       4.58954798       5.66624039      -0.00160383       0.00226837      -0.00277753
Br       5.41753615       1.55446102       9.38344736       0.00160297      -0.00226630       0.00277540
