9
Lattice="4.731688663674012 7.353677384225182e-08 2.731841665692987 1.5772295717152762 4.46107910586027 2.7318417560607524 -7.698888399283446e-08 5.6238086522935104e-08 5.463683464734701" Properties=species:S:1:pos:R:3:forces:R:3 energy=-53.67673873901367 free_energy=-53.67673873901367 stress="-6.0422469687182456e-05 4.226127714446193e-08 2.7778707334391584e-08 4.226127714446193e-08 -6.0362115618772805e-05 5.441748829326798e-09 2.7778707334391584e-08 5.441748829326798e-09 -6.0373036831151694e-05" pbc="T T T"
Bi       1.57723030       1.11527060       2.73184118       0.00000147       0.00000579      -0.00000576
Bi       4.73168736       3.34580936       8.19552257      -0.00000692      -0.00000077      -0.00002529
Mo      -0.00000018       0.00000004      -0.00000044       0.00000217       0.00000090       0.00000274
O        1.58364749       1.11980796       5.46368377       0.00017172       0.00011837       0.00000485
O        4.72527092       3.34127080       5.46368460      -0.00016844      -0.00012094       0.00000967
O        3.93986456       1.11980771       4.10332081      -0.00008941       0.00011861       0.00015289
O        2.36905425       3.34127105       6.82404725       0.00009403      -0.00012732      -0.00014389
O        2.36905309       3.34127091       4.10332105       0.00008282      -0.00011981       0.00014794
O        3.93986484       1.11980856       6.82404679      -0.00008780       0.00012469      -0.00014371
