9
Lattice="6.765270210601696 -9.76853811854949e-09 3.905930613305376 2.255090104779856 6.378357883422366 3.9059305374603257 -7.483338811144466e-09 -9.818233818876379e-08 7.811861239572284" Properties=species:S:1:pos:R:3:forces:R:3 energy=-26.714008331298828 free_energy=-26.714008331298828 stress="0.0002583246096037328 4.764875716212202e-10 1.498286827938955e-09 4.764875716212202e-10 0.0002583214081823826 -6.728624601937128e-11 1.498286827938955e-09 -6.728624601937128e-11 0.0002583205932751298" pbc="T T T"
Bi       2.25509043       1.59458922       3.90593037       0.00000094      -0.00000019      -0.00000097
Bi       6.76526992       4.78376900      11.71779176      -0.00000086       0.00000169      -0.00000090
Mn       0.00000009      -0.00000017      -0.00000048       0.00000049       0.00000017       0.00000438
I        2.22995853       1.57681852       7.81186123      -0.00122479      -0.00086735       0.00000042
I        6.79040192       4.80153922       7.81186135       0.00122377       0.00086561       0.00000089
I        5.65029081       1.57681864       5.83713152       0.00061307      -0.00086723      -0.00106151
I        3.37006911       4.80153916       9.78659132      -0.00061138       0.00086525       0.00106012
I        3.37006943       4.80153907       5.83713134      -0.00061272       0.00086765      -0.00106213
I        5.65029105       1.57681848       9.78659121       0.00061146      -0.00086563       0.00105969
