9
Lattice="5.613847194771539 -1.1334627527083243e-07 3.2411563141612376 1.8712821977759686 5.292786558177709 3.2411564763112 -2.0254565702367906e-07 5.53709708437098e-08 6.482312979141781" Properties=species:S:1:pos:R:3:forces:R:3 energy=-43.93074417114258 free_energy=-43.93074417114258 stress="-3.4491063161112834e-06 -3.703850737224457e-08 1.7861877255054281e-10 -3.703850737224457e-08 -3.4466518172848737e-06 2.942227084190563e-08 1.7861877255054281e-10 2.942227084190563e-08 -3.448633151492686e-06" pbc="T T T"
Bi       1.87128259       1.32319651       3.24115640       0.00000108      -0.00000149       0.00000109
Bi       5.61384612       3.96959015       9.72347037      -0.00000366       0.00000204       0.00000784
Mo      -0.00000002       0.00000004       0.00000055      -0.00000045      -0.00000127      -0.00000408
S        1.92044640       1.35796057       6.48231318       0.00029765       0.00020804      -0.00000065
S        5.56468287       3.93482540       6.48231214      -0.00029403      -0.00020883      -0.00000338
S        4.65362352       1.35796113       4.90431168      -0.00014789       0.00020746       0.00025272
S        2.83150559       3.93482579       8.06031341       0.00014455      -0.00020219      -0.00025205
S        2.83150609       3.93482578       4.90431167       0.00014984      -0.00020976       0.00025430
S        4.65362353       1.35796060       8.06031373      -0.00014734       0.00020595      -0.00025566
