9
Lattice="5.999830441930353 -1.09557617658623e-07 3.4640037364909277 1.999943439919663 5.656695097770268 3.4640036281198445 1.6683141471894988e-07 -1.4759270236457125e-08 6.928007184021263" Properties=species:S:1:pos:R:3:forces:R:3 energy=-33.1949348449707 free_energy=-33.1949348449707 stress="0.0001567160215927288 4.062262082271673e-09 -1.50837795587222e-08 4.062262082271673e-09 0.0001567300787428394 1.048331199626773e-08 -1.50837795587222e-08 1.048331199626773e-08 0.0001567850267747417" pbc="T T T"
Bi       1.99994490       1.41417404       3.46400261       0.00000454       0.00000036      -0.00000466
Bi       5.99983217       4.24252163      10.39201042       0.00000839       0.00000429      -0.00000324
Mn       0.00000078       0.00000109       0.00000296      -0.00001212      -0.00000992      -0.00002647
Cl       1.93525028       1.36842933       6.92800829      -0.00110782      -0.00078174      -0.00000151
Cl       6.06452138       4.28826495       6.92800873       0.00111933       0.00079295      -0.00000134
Cl       5.03220591       1.36842712       5.13997966       0.00054756      -0.00078005      -0.00095544
Cl       2.96756894       4.28826474       8.71603326      -0.00056612       0.00079452       0.00097358
Cl       2.96756808       4.28826711       5.13997918      -0.00055189       0.00077690      -0.00095479
Cl       5.03220379       1.36842990       8.71603314       0.00055808      -0.00079723       0.00097384
