9
Lattice="6.163454007423075 -1.9315633824197282e-07 3.558472000397361 2.054484619387455 5.810959957391983 3.558471771150024 1.4979628692256553e-07 -1.7484753095770153e-07 7.116943741339964" Properties=species:S:1:pos:R:3:forces:R:3 energy=-35.17904281616211 free_energy=-35.17904281616211 stress="9.111562576435972e-06 1.934866489250453e-09 1.210135991414063e-08 1.934866489250453e-09 9.10872950043995e-06 -1.4047202512301737e-08 1.210135991414063e-08 -1.4047202512301737e-08 9.110097380471416e-06" pbc="T T T"
Bi       2.05448589       1.45274002       3.55847202       0.00000451      -0.00000065       0.00000102
Bi       6.16345451       4.35821968      10.67541634       0.00000225       0.00000121       0.00000053
Mn      -0.00000022       0.00000004       0.00000033       0.00000292      -0.00000031      -0.00000275
Te       2.05399797       1.45239529       7.11694378       0.00017276       0.00012223       0.00000052
Te       6.16394094       4.35856466       7.11694396      -0.00017637      -0.00012390      -0.00000088
Te       5.13645448       1.45239503       5.33728538      -0.00008957       0.00012542       0.00015260
Te       3.08148348       4.35856447       8.89660079       0.00008534      -0.00012292      -0.00015038
Te       3.08148328       4.35856401       5.33728609       0.00008604      -0.00012369       0.00014915
Te       5.13645482       1.45239517       8.89660129      -0.00008793       0.00012262      -0.00014986
