9
Lattice="6.5487104541006955 -1.0251379487124287e-08 3.780899715840938 2.1829034464633668 6.1741834166077 3.7808997653287357 -4.0059163028533606e-08 3.228387230240024e-08 7.561799501066351" Properties=species:S:1:pos:R:3:forces:R:3 energy=-30.489303588867188 free_energy=-30.489303588867188 stress="-2.418966505501885e-05 2.1323888432789317e-08 -1.0227680508068104e-10 2.1323888432789317e-08 -2.420415148662869e-05 -2.8686002462308124e-09 -1.0227680508068104e-10 -2.8686002462308124e-09 -2.422535362711642e-05" pbc="T T T"
Bi       2.18290336       1.54354554       3.78089981      -0.00000037      -0.00000084       0.00000001
Bi       6.54871069       4.63063762      11.34269949       0.00000062      -0.00000053      -0.00000041
Mo       0.00000004       0.00000036       0.00000032      -0.00000167      -0.00000591      -0.00000157
Br       2.09914409       1.48431928       7.56179953       0.00073070       0.00051690      -0.00000002
Br       6.63246923       4.68986414       7.56179944      -0.00072647      -0.00051333       0.00000004
Br       5.49913835       1.48431924       5.59881177      -0.00036657       0.00051836       0.00063540
Br       3.23247567       4.68986405       9.52478665       0.00036464      -0.00051577      -0.00063261
Br       3.23247561       4.68986426       5.59881198       0.00036507      -0.00051654       0.00063355
Br       5.49913838       1.48431926       9.52478696      -0.00036593       0.00051764      -0.00063443
