9
Lattice="5.790919018054907 1.101452349818377e-07 3.343388674923326 1.9303064328533186 5.459730893515159 3.3433886928400685 4.518943711574887e-08 5.389717796203142e-08 6.686777271576283" Properties=species:S:1:pos:R:3:forces:R:3 energy=-38.82039260864258 free_energy=-38.82039260864258 stress="-2.478638998582028e-05 1.9288089347924142e-08 1.3452613245590328e-08 1.9288089347924142e-08 -2.4773989935056306e-05 -2.3728658149479998e-08 1.3452613245590328e-08 -2.3728658149479998e-08 -2.4805702196317725e-05" pbc="T T T"
Bi       1.93030660       1.36493227       3.34338851       0.00000017       0.00000035      -0.00000080
Bi       5.79091904       4.09479920      10.03016635       0.00000027       0.00000383       0.00000350
Mn       0.00000015       0.00000018       0.00000031      -0.00000056      -0.00000323      -0.00000334
Se       1.92372692       1.36028032       6.68677729       0.00124598       0.00087832      -0.00000041
Se       5.79749834       4.09945046       6.68677696      -0.00124408      -0.00087893      -0.00000112
Se       4.82905565       1.36028021       5.00938515      -0.00062354       0.00088055       0.00107898
Se       2.89216991       4.09945061       8.36416944       0.00062133      -0.00087869      -0.00107686
Se       2.89217005       4.09945080       5.00938512       0.00062366      -0.00088093       0.00107783
Se       4.82905536       1.36028014       8.36416940      -0.00062322       0.00087887      -0.00107756
