9
Lattice="6.849984151944216 3.1208118567303667e-08 3.954840220800175 2.283328068526768 6.458226996082459 3.9548402407960026 5.731648078195366e-09 2.8542644875949393e-08 7.90968043167289" Properties=species:S:1:pos:R:3:forces:R:3 energy=-20.55072021484375 free_energy=-20.55072021484375 stress="0.00023992365458980203 -6.0171867488634234e-09 7.620536202068706e-09 -6.0171867488634234e-09 0.00023992701608221978 -1.147481576424525e-08 7.620536202068706e-09 -1.147481576424525e-08 0.00023993013019207865" pbc="T T T"
Bi       2.28332791       1.61455671       3.95484010      -0.00000065       0.00000035      -0.00000088
Bi       6.84998417       4.84367039      11.86452074      -0.00000009       0.00000053       0.00000083
Mg       0.00000001       0.00000015       0.00000010      -0.00000056      -0.00000091      -0.00000044
I        2.34595780       1.65884266       7.90968051      -0.00273882      -0.00193685       0.00000019
I        6.78735440       4.79938432       7.90968032       0.00274009       0.00193689      -0.00000049
I        5.67700532       1.65884263       5.98649924       0.00136997      -0.00193670      -0.00237213
I        3.45630701       4.79938430       9.83286161      -0.00136986       0.00193685       0.00237293
I        3.45630703       4.79938441       5.98649929      -0.00136986       0.00193781      -0.00237296
I        5.67700527       1.65884266       9.83286167       0.00136977      -0.00193801       0.00237293
