9
Lattice="6.309126614659401 -2.0044748484400323e-08 3.642575935400773 2.1030421884846975 5.948301583959761 3.6425759310765193 9.690434819675535e-09 1.5559919737540035e-09 7.285151854017299" Properties=species:S:1:pos:R:3:forces:R:3 energy=-23.85198974609375 free_energy=-23.85198974609375 stress="7.300314609892666e-05 6.113287209785767e-09 5.054920718117195e-11 6.113287209785767e-09 7.29930106899701e-05 1.3896914730082699e-09 5.054920718117195e-11 1.3896914730082699e-09 7.29958264855668e-05" pbc="T T T"
Bi       2.10304247       1.48707566       3.64257594       0.00000053       0.00000197       0.00000031
Bi       6.30912742       4.46122648      10.92772946       0.00000304       0.00000067       0.00000693
Mg       0.00000014       0.00000029      -0.00000012      -0.00000116      -0.00000328      -0.00000020
Br       2.12500783       1.50260778       7.28515181      -0.00102167      -0.00072202      -0.00000080
Br       6.28716043       4.44569351       7.28515135       0.00102472       0.00072389      -0.00000256
Br       5.24662255       1.50260766       5.48288674       0.00051010      -0.00072253      -0.00088543
Br       3.16554584       4.44569380       9.08741636      -0.00051349       0.00072306       0.00088446
Br       3.16554635       4.44569381       5.48288691      -0.00051147       0.00072271      -0.00088646
Br       5.24662221       1.50260726       9.08741644       0.00050939      -0.00072438       0.00088375
