9
Lattice="5.543042840313786 8.991601645389472e-09 3.200277514785888 1.8476809390516056 5.22603107481426 3.200277542839902 5.414987418065133e-09 3.818801819746579e-08 6.400555020192797" Properties=species:S:1:pos:R:3:forces:R:3 energy=-42.2515754699707 free_energy=-42.2515754699707 stress="-8.331112439918797e-06 -8.690144603917815e-09 1.9537468531893865e-08 -8.690144603917815e-09 -8.348343726538587e-06 9.271579948233466e-09 1.9537468531893865e-08 9.271579948233466e-09 -8.327483556058723e-06" pbc="T T T"
Bi       1.84768111       1.30650809       3.20027830       0.00000113       0.00000183       0.00000554
Bi       5.54304276       3.91952394       9.60083434      -0.00000111       0.00000360       0.00000848
Mn      -0.00000006      -0.00000009      -0.00000025       0.00000418      -0.00000123      -0.00000176
S        1.83265765       1.29588435       6.40055483       0.00127524       0.00089979      -0.00000178
S        5.55806622       3.93014683       6.40055430      -0.00127852      -0.00090322      -0.00000459
S        4.62671395       1.29588452       4.78740520      -0.00063816       0.00090152       0.00110367
S        2.76400936       3.93014646       8.01370460       0.00063559      -0.00089964      -0.00110367
S        2.76400986       3.93014616       4.78740489       0.00063753      -0.00090188       0.00110042
S        4.62671417       1.29588427       8.01370412      -0.00063625       0.00089934      -0.00110596
