9
Lattice="6.257617950592025 -5.0152176515444e-07 3.612837444189344 2.0858720281504377 5.899737915964911 3.612837702624523 -2.3897375415659573e-07 1.4753723635592334e-07 7.225675302293317" Properties=species:S:1:pos:R:3:forces:R:3 energy=-34.017677307128906 free_energy=-34.017677307128906 stress="1.1696006367856171e-05 1.552244910385525e-08 -1.9960568309329574e-08 1.552244910385525e-08 1.1700230970745906e-05 3.26420490637247e-08 -1.9960568309329574e-08 3.26420490637247e-08 1.1656925380520988e-05" pbc="T T T"
Bi       2.08586868       1.47493094       3.61283779      -0.00000297      -0.00000396      -0.00000066
Bi       6.25762121       4.42480073      10.83851181       0.00000197      -0.00000453      -0.00000131
Mo      -0.00000157       0.00000071       0.00000021       0.00002322      -0.00000147       0.00000183
Cl       1.96796073       1.39155884       7.22567582       0.00202036       0.00143225       0.00000000
Cl       6.37552921       4.50818006       7.22567517      -0.00203396      -0.00143654       0.00000066
Cl       5.27363818       1.39155866       5.31714095      -0.00101384       0.00143600       0.00176095
Cl       3.06985208       4.50818009       9.13420840       0.00101012      -0.00142879      -0.00175610
Cl       3.06985240       4.50818056       5.31714114       0.00101100      -0.00143246       0.00175905
Cl       5.27363803       1.39155968       9.13421056      -0.00101598       0.00143947      -0.00176433
