9
Lattice="6.912611688255035 -3.0667669128170515e-08 3.9909983125814725 2.304203904879587 6.517272644690453 3.990998247268714 7.734259176523765e-08 -2.5301958218357845e-08 7.981996491201594" Properties=species:S:1:pos:R:3:forces:R:3 energy=-27.759557723999023 free_energy=-27.759557723999023 stress="8.211919339373708e-05 6.662323470685294e-10 -4.115052298914179e-09 6.662323470685294e-10 8.211435488192365e-05 1.12479687786049e-08 -4.115052298914179e-09 1.12479687786049e-08 8.212095417547971e-05" pbc="T T T"
Bi       2.30420401       1.62931831       3.99099814      -0.00000003      -0.00000033      -0.00000015
Bi       6.91261189       4.88795421      11.97299445       0.00000057       0.00000051       0.00000008
Mo      -0.00000006      -0.00000079       0.00000046       0.00000023       0.00000935      -0.00000290
I        2.27223937       1.60671573       7.98199665      -0.00102752      -0.00072673       0.00000025
I        6.94457679       4.91055719       7.98199663       0.00102280       0.00072300      -0.00000007
I        5.77649207       1.60671577       5.95881540       0.00051351      -0.00072613      -0.00088976
I        3.44032353       4.91055702      10.00517784      -0.00051247       0.00072433       0.00088727
I        3.44032342       4.91055694       5.95881532      -0.00051058       0.00072215      -0.00088485
I        5.77649165       1.60671598      10.00517732       0.00051358      -0.00072618       0.00089003
