9
Lattice="5.054369211429484 -5.4937857240037804e-08 2.9181412870856542 1.6847897454066252 4.765304836602821 2.9181411830598085 -4.862709719350011e-08 -1.6178972665039044e-07 5.836282658395998" Properties=species:S:1:pos:R:3:forces:R:3 energy=-43.03097152709961 free_energy=-43.03097152709961 stress="-3.1750598736834945e-06 -1.362865909015909e-08 4.059668867739674e-08 -1.362865909015909e-08 -3.1787194529897533e-06 4.543745646401476e-08 4.059668867739674e-08 4.543745646401476e-08 -3.181789452355588e-06" pbc="T T T"
Bi       1.68478992       1.19132677       2.91814210       0.00000336       0.00000538       0.00000586
Bi       5.05437105       3.57397908       8.75442130       0.00001002       0.00000411      -0.00001480
Mn       0.00000027       0.00000025      -0.00000023      -0.00000223       0.00000007      -0.00000473
F        1.67441140       1.18398751       5.83628244       0.00037393       0.00026486      -0.00000183
F        5.06474784       3.58131700       5.83628350      -0.00037460      -0.00026570       0.00000642
F        4.21716274       1.18398667       4.36822397      -0.00019127       0.00026099       0.00032709
F        2.52199474       3.58131683       7.30434145       0.00018588      -0.00026525      -0.00032347
F        2.52199411       3.58131676       4.36822432       0.00018124      -0.00026820       0.00032805
F        4.21716342       1.18398764       7.30434146      -0.00018624       0.00026372      -0.00032275
