9
Lattice="5.904959714114324 -1.0166220914403937e-08 3.4092301129888383 1.9683198782191786 5.567249398618066 3.4092301422618285 -1.832057975013515e-08 2.2897351198309996e-08 6.818460257709855" Properties=species:S:1:pos:R:3:forces:R:3 energy=-40.32707595825195 free_energy=-40.32707595825195 stress="-5.074748696642928e-05 1.0077432222033167e-08 -3.427774064590494e-09 1.0077432222033167e-08 -5.073838838143274e-05 1.911607228066714e-08 -3.427774064590494e-09 1.911607228066714e-08 -5.075511217000894e-05" pbc="T T T"
Bi       1.96832010       1.39181201       3.40922995       0.00000148      -0.00000300       0.00000041
Bi       5.90495955       4.17543683      10.22768983      -0.00000147      -0.00000076      -0.00000391
Mo      -0.00000015      -0.00000009       0.00000037       0.00000164       0.00000261      -0.00000009
Se       2.02435203       1.43143341       6.81846018       0.00163336       0.00115590       0.00000024
Se       5.84892756       4.13581634       6.81846055      -0.00163723      -0.00115723       0.00000041
Se       4.89278329       1.43143337       5.16237049      -0.00081627       0.00115587       0.00141715
Se       2.98049624       4.13581613       8.47454996       0.00081699      -0.00115494      -0.00141548
Se       2.98049611       4.13581616       5.16237058       0.00081876      -0.00115485       0.00141737
Se       4.89278348       1.43143348       8.47455018      -0.00081722       0.00115640      -0.00141608
