9
Lattice="4.964163285146821 5.096682031550351e-08 2.866061029585408 1.654721165570509 4.680258051372748 2.8660609906669205 9.846869832881137e-08 2.1962705253180628e-08 5.732121888618023" Properties=species:S:1:pos:R:3:forces:R:3 energy=-40.62598419189453 free_energy=-40.62598419189453 stress="6.1730774177704e-05 -1.5767817274081608e-08 -4.733731628903115e-08 -1.5767817274081608e-08 6.173167639644817e-05 1.0550982310064683e-08 -4.733731628903115e-08 1.0550982310064683e-08 6.171417771838605e-05" pbc="T T T"
Bi       1.65472122       1.17006406       2.86606055       0.00000041      -0.00000089      -0.00000151
Bi       4.96416363       3.51019389       8.59818224       0.00000203       0.00000051      -0.00000283
Mg      -0.00000003       0.00000025       0.00000033       0.00000207      -0.00000669      -0.00000663
F        1.59210882       1.12579102       5.73212201       0.00103197       0.00072943       0.00000159
F        5.02677562       3.55446728       5.73212242      -0.00103158      -0.00072820      -0.00000000
F        4.16810883       1.12579085       4.24486770      -0.00051693       0.00073074       0.00089635
F        2.45077598       3.55446685       7.21937624       0.00051282      -0.00072519      -0.00088893
F        2.45077524       3.55446726       4.24486774       0.00051621      -0.00072867       0.00089531
F        4.16810894       1.12579107       7.21937634      -0.00051685       0.00072894      -0.00089343
