9
Lattice="6.351635317579199 -3.008413354883877e-08 3.6671182468586894 2.117211729638013 5.988379239321278 3.6671182720164603 -5.525442711936329e-08 -8.258958984851054e-09 7.334236589420912" Properties=species:S:1:pos:R:3:forces:R:3 energy=-29.6165771484375 free_energy=-29.6165771484375 stress="-3.663607276394032e-05 1.8197064688418862e-10 7.966412252091715e-12 1.8197064688418862e-10 -3.6623168853111565e-05 4.342941561930047e-10 7.966412252091715e-12 4.342941561930047e-10 -3.663018287625164e-05" pbc="T T T"
Bi       2.11721214       1.49709524       3.66711814       0.00000115       0.00000036      -0.00000049
Bi       6.35163534       4.49128388      11.00135557       0.00000023      -0.00000093       0.00000153
Mn      -0.00000016       0.00000007       0.00000033      -0.00000154      -0.00000012      -0.00000234
Br       2.05797693       1.45520929       7.33423635       0.00151918       0.00107426      -0.00000014
Br       6.41086972       4.53316985       7.33423634      -0.00151826      -0.00107253      -0.00000037
Br       5.32264721       1.45520966       5.44937837      -0.00075950       0.00107497       0.00131493
Br       3.14619990       4.53316946       9.21909447       0.00075842      -0.00107429      -0.00131463
Br       3.14620004       4.53316975       5.44937856       0.00075953      -0.00107535       0.00131605
Br       5.32264679       1.45520960       9.21909436      -0.00075917       0.00107362      -0.00131454
