9
Lattice="6.803002371127325 1.556133440592126e-07 3.927715252301731 2.2676675378473 6.413932411503522 3.9277153664592395 -8.84598754967084e-08 7.726309238948544e-08 7.85543065782051" Properties=species:S:1:pos:R:3:forces:R:3 energy=-31.447500228881836 free_energy=-31.447500228881836 stress="-4.6638906496809795e-05 4.266864905844159e-08 -1.6149222403782915e-08 4.266864905844159e-08 -4.666285894927569e-05 1.5352201288010292e-08 -1.6149222403782915e-08 1.5352201288010292e-08 -4.6657143684569746e-05" pbc="T T T"
Bi       2.26766768       1.60348294       3.92771517      -0.00000011      -0.00000121       0.00000043
Bi       6.80300264       4.81044958      11.78314611       0.00000090       0.00000072      -0.00000026
Nb       0.00000044      -0.00000038       0.00000028      -0.00000639       0.00000434      -0.00000296
Br       2.09397419       1.48066425       7.85543073       0.00056288       0.00039770       0.00000020
Br       6.97669499       4.93326883       7.85543088      -0.00056030      -0.00039639      -0.00000061
Br       5.75601506       1.48066344       5.74115050      -0.00028242       0.00039960       0.00048801
Br       3.31465436       4.93326928       9.96971037       0.00028309      -0.00040108      -0.00048923
Br       3.31465428       4.93326951       5.74115037       0.00028551      -0.00040302       0.00049298
Br       5.75601562       1.48066308       9.96971066      -0.00028310       0.00039940      -0.00048856
