9
Lattice="6.213844745263542 -2.8906157741206406e-08 3.5875649556900764 2.0712815620526595 5.858469014955788 3.5875649426111016 2.1094759777300166e-08 -1.1021534623385257e-09 7.1751298748429395" Properties=species:S:1:pos:R:3:forces:R:3 energy=-25.340499877929688 free_energy=-25.340499877929688 stress="2.4461240172968246e-05 -3.661898340112657e-09 3.2153535389767285e-09 -3.661898340112657e-09 2.4462107830913737e-05 -3.2277669426150624e-09 3.2153535389767285e-09 -3.2277669426150624e-09 2.4477876650053076e-05" pbc="T T T"
Bi       2.07128157       1.46461730       3.58756500       0.00000031       0.00000024       0.00000026
Bi       6.21384468       4.39385170      10.76269488       0.00000017      -0.00000031       0.00000095
Ni       0.00000003      -0.00000004      -0.00000002      -0.00000047      -0.00000027      -0.00000095
Br       2.00265580       1.41609148       7.17512980      -0.00061873      -0.00043736      -0.00000005
Br       6.28247051       4.44237752       7.17512986       0.00061929       0.00043739      -0.00000059
Br       5.21251681       1.41609156       5.32191580       0.00030902      -0.00043708      -0.00053620
Br       3.07260950       4.44237757       9.02834399      -0.00030966       0.00043786       0.00053629
Br       3.07260953       4.44237743       5.32191577      -0.00030911       0.00043760      -0.00053623
Br       5.21251688       1.41609142       9.02834400       0.00030919      -0.00043797       0.00053646
