9
Lattice="5.61980903078492 2.585676189972457e-08 3.2445983204300486 1.8732697057499128 5.298406534000819 3.2445983127335696 6.112070076388482e-08 3.3792609393491215e-08 6.489196534995957" Properties=species:S:1:pos:R:3:forces:R:3 energy=-44.539424896240234 free_energy=-44.539424896240234 stress="0.0001534931652713567 -6.666501572993866e-09 -4.764156003034259e-08 -6.666501572993866e-09 0.00015342520782724023 -8.545240959278999e-09 -4.764156003034259e-08 -8.545240959278999e-09 0.00015345285646617413" pbc="T T T"
Bi       1.87326992       1.32460065       3.24459903       0.00000349      -0.00000638       0.00000497
Bi       5.61980964       3.97380649       9.73379312       0.00000202       0.00001030      -0.00001207
Nb      -0.00000012       0.00000040      -0.00000009       0.00000154      -0.00000621      -0.00000144
S        1.94878615       1.37799942       6.48919664      -0.00475469      -0.00336477       0.00000058
S        5.54429244       3.92040748       6.48919756       0.00475531       0.00336595       0.00000473
S        4.64541590       1.37799892       4.93229649       0.00237415      -0.00336546      -0.00411461
S        2.84766305       3.92040719       8.04609691      -0.00237809       0.00336779       0.00412036
S        2.84766188       3.92040652       4.93229614      -0.00238188       0.00336248      -0.00411858
S        4.64541631       1.37799927       8.04609691       0.00237827      -0.00336373       0.00411594
