9
Lattice="4.483632320442074 6.366343522114727e-11 2.588626366724968 1.4945440914685917 4.227209169485129 2.588626393408 3.823019880529922e-09 3.538320180518278e-08 5.177252726828274" Properties=species:S:1:pos:R:3:forces:R:3 energy=-34.854522705078125 free_energy=-34.854522705078125 stress="-0.00022253546922001988 2.2519885956029384e-09 5.267329683533717e-08 2.2519885956029384e-09 -0.000222602830035612 -9.08885144923488e-09 5.267329683533717e-08 -9.08885144923488e-09 -0.00022260851983446628" pbc="T T T"
Bi       1.49454462       1.05680159       2.58862638       0.00000081      -0.00000616       0.00000564
Bi       4.48363192       3.17040640       7.76588041      -0.00000443      -0.00000623       0.00001300
N        0.00000499       0.00000094      -0.00000712       0.00016892       0.00002932      -0.00024176
F        1.49943146       1.06025849       5.17725256      -0.00729167      -0.00515437      -0.00000407
F        4.47874071       3.16694835       5.17725220       0.00716197       0.00506759      -0.00000804
F        3.73391406       1.06026207       3.88717610       0.00356728      -0.00503838      -0.00618303
F        2.24425985       3.16695152       6.46733364      -0.00366044       0.00517917       0.00633585
F        2.24426209       3.16694860       3.88717535      -0.00358379       0.00507605      -0.00621760
F        3.73391594       1.06025893       6.46733259       0.00364012      -0.00514674       0.00629997
