9
Lattice="5.894053217223158 1.3050482677197174e-07 3.4029332959141727 1.9646846166453829 5.5569666961423465 3.4029331437305985 2.547911889776492e-07 -6.221403977495225e-09 6.805866150517048" Properties=species:S:1:pos:R:3:forces:R:3 energy=-24.168977737426758 free_energy=-24.168977737426758 stress="0.00012798156240023673 -1.3876004345547699e-08 2.473759685983623e-08 -1.3876004345547699e-08 0.00012794879148714244 1.7926584661154266e-08 2.473759685983623e-08 1.7926584661154266e-08 0.0001279955031350255" pbc="T T T"
Bi       1.96468530       1.38924340       3.40293138       0.00000488       0.00001364      -0.00001058
Bi       5.89404893       4.16772558      10.20879352      -0.00002953       0.00000319      -0.00003700
N        0.00000105       0.00000028      -0.00000002       0.00000149       0.00000038       0.00000150
Cl       2.00975100       1.42110659       6.80586643      -0.00116689      -0.00083553       0.00000300
Cl       5.84898878       4.13585859       6.80586868       0.00117100       0.00082511       0.00001674
Cl       4.88917858       1.42110699       5.14342778       0.00058489      -0.00083116      -0.00101119
Cl       2.96956070       4.13585834       8.46830788      -0.00057129       0.00082166       0.00102754
Cl       2.96955993       4.13585870       5.14342783      -0.00058009       0.00082479      -0.00101248
Cl       4.88917809       1.42110879       8.46830687       0.00058552      -0.00082202       0.00102251
