9
Lattice="6.354384493438381 -9.621528791578333e-08 3.668705584929014 2.1181280605185537 5.990971093710528 3.668705607875703 -1.939236272962402e-08 1.4391396949771016e-08 7.337411203446628" Properties=species:S:1:pos:R:3:forces:R:3 energy=-36.50271987915039 free_energy=-36.50271987915039 stress="-1.6151880117831752e-05 -3.099188106148176e-08 1.8841694870985748e-09 -3.099188106148176e-08 -1.612830237718299e-05 9.073379381163704e-09 1.8841694870985748e-09 9.073379381163704e-09 -1.6118363419082016e-05" pbc="T T T"
Bi       2.11812828       1.49774323       3.66870539       0.00000044       0.00000116       0.00000010
Bi       6.35438509       4.49322789      11.00611698       0.00000288      -0.00000182      -0.00000003
Nb      -0.00000009       0.00000026       0.00000002       0.00000024      -0.00000305      -0.00000028
Te       2.23080904       1.57742034       7.33741116      -0.00001665      -0.00001285      -0.00000013
Te       6.24170319       4.41355065       7.33741101       0.00001873       0.00001244       0.00000019
Te       5.23897976       1.57742044       5.60064331       0.00001003      -0.00001398      -0.00001614
Te       3.23353251       4.41355016       9.07417908      -0.00001222       0.00001585       0.00002027
Te       3.23353248       4.41355059       5.60064345      -0.00001248       0.00001516      -0.00001975
Te       5.23897987       1.57742051       9.07417920       0.00000900      -0.00001286       0.00001572
