9
Lattice="5.489247042786728 -2.2805143692842614e-07 3.1692183834988685 1.8297488421566355 5.175311250249035 3.1692183091880675 9.404009139667671e-08 -2.4515372441512106e-08 6.338436604115516" Properties=species:S:1:pos:R:3:forces:R:3 energy=-45.81269454956055 free_energy=-45.81269454956055 stress="-7.462989015039057e-05 -1.286133777256282e-08 2.7125613755174527e-08 -1.286133777256282e-08 -7.465010276064277e-05 -1.7658235762496588e-08 2.7125613755174527e-08 -1.7658235762496588e-08 -7.46019504731521e-05" pbc="T T T"
Bi       1.82974880       1.29382735       3.16921866       0.00000062       0.00000060      -0.00000006
Bi       5.48924561       3.88148161       9.50765474       0.00000029       0.00000096      -0.00000015
Nb      -0.00000022       0.00000028      -0.00000031      -0.00000196       0.00000257      -0.00000325
F        1.66632613       1.17826962       6.33843688       0.00198495       0.00140356       0.00000004
F        5.65267002       3.99704168       6.33843696      -0.00198522      -0.00140376      -0.00000003
F        4.65608474       1.17827015       4.61229856      -0.00099248       0.00140356       0.00171927
F        2.66291238       3.99704132       8.06457485       0.00099225      -0.00140385      -0.00171971
F        2.66291191       3.99704159       4.61229861       0.00099221      -0.00140372       0.00171980
F        4.65608473       1.17827031       8.06457460      -0.00099075       0.00140005      -0.00171593
