9
Lattice="6.120857307827204 -9.30900089161262e-09 3.533878751183751 2.0402857501849607 5.770799890067071 3.533878769048385 -1.8012598083849017e-08 9.142775451057473e-09 7.067757533566222" Properties=species:S:1:pos:R:3:forces:R:3 energy=-31.955636978149414 free_energy=-31.955636978149414 stress="-0.00014249295054469258 -3.434563922155576e-08 -4.464014935479099e-09 -3.434563922155576e-08 -0.00014246480714064091 9.825622093728725e-09 -4.464014935479099e-09 9.825622093728725e-09 -0.00014245128841139376" pbc="T T T"
Bi       2.04028604       1.44269961       3.53387882       0.00000012      -0.00000123       0.00000043
Bi       6.12085709       4.32810043      10.60163610      -0.00000005       0.00000131      -0.00000002
Ni      -0.00000007      -0.00000004       0.00000058      -0.00000006      -0.00000146      -0.00000994
Te       2.07541357       1.46753850       7.06775746       0.00721281       0.00509907       0.00000016
Te       6.08572939       4.30326129       7.06775759      -0.00721119      -0.00509895       0.00000074
Te       5.08315050       1.46753902       5.33123982      -0.00360634       0.00509948       0.00624470
Te       3.07799261       4.30326074       8.80427490       0.00360281      -0.00509541      -0.00624001
Te       3.07799270       4.30326108       5.33124013       0.00360553      -0.00509883       0.00624526
Te       5.08315035       1.46753895       8.80427481      -0.00360362       0.00509604      -0.00624142
