9
Lattice="4.7659656712949845 4.7052394400841345e-08 2.75163159925154 1.5886552925830781 4.49339555154609 2.751631556891381 -1.8267384704899893e-08 -6.479741063939645e-08 5.503263230143109" Properties=species:S:1:pos:R:3:forces:R:3 energy=-58.193603515625 free_energy=-58.193603515625 stress="-0.00018877738330047578 1.1139816180616435e-08 -3.3276066346843436e-08 1.1139816180616435e-08 -0.00018871008069254458 -2.2704131907858027e-08 -3.3276066346843436e-08 -2.2704131907858027e-08 -0.00018892704974859953" pbc="T T T"
Bi       1.58865577       1.12334913       2.75163172       0.00000522       0.00000270       0.00000135
Bi       4.76596648       3.37004747       8.25489513       0.00000583       0.00000730       0.00000030
Nb       0.00000018       0.00000003      -0.00000052       0.00000105       0.00000520       0.00001352
O        1.61305377       1.14060091       5.50326305      -0.00709236      -0.00501919       0.00000072
O        4.74156692       3.35279432       5.50326327       0.00709176       0.00501466      -0.00000254
O        3.95943858       1.14060108       4.14857719       0.00354749      -0.00501943      -0.00614560
O        2.39518165       3.35279430       6.85794908      -0.00354981       0.00501078       0.00613803
O        2.39518172       3.35279404       4.14857736      -0.00355059       0.00501686      -0.00614548
O        3.95943862       1.14060094       6.85794928       0.00354147      -0.00501961       0.00613970
