9
Lattice="4.584073313349428 1.1672744492141768e-07 2.6466160832099783 1.5280245225965459 4.321905859387611 2.64661612692396 3.552776951668741e-08 7.866041134002741e-08 5.293232104884058" Properties=species:S:1:pos:R:3:forces:R:3 energy=-44.76926040649414 free_energy=-44.76926040649414 stress="-2.038070851995144e-05 1.2377860514334316e-07 -1.5642777739799385e-08 1.2377860514334316e-07 -2.0152814613538794e-05 1.0114205650779695e-07 -1.5642777739799385e-08 1.0114205650779695e-07 -2.0474191842367873e-05" pbc="T T T"
Bi       1.52802399       1.08047625       2.64661604      -0.00000172       0.00000125       0.00000022
Bi       4.58407337       3.24143018       7.93984956       0.00000124       0.00000122       0.00000581
Ni       0.00000007       0.00000049       0.00000027      -0.00000206      -0.00002080      -0.00000783
O        1.46715127       1.03743263       5.29323230       0.00153418       0.00108531      -0.00000114
O        4.64494648       3.28447299       5.29323154      -0.00152662      -0.00107756      -0.00000055
O        3.85049839       1.03743283       3.91720605      -0.00076920       0.00108641       0.00133397
O        2.26159952       3.28447353       6.66925766       0.00076612      -0.00108074      -0.00132599
O        2.26160025       3.28447359       3.91720598       0.00076858      -0.00108455       0.00133036
O        3.85049808       1.03743180       6.66925798      -0.00077003       0.00108908      -0.00133459
