9
Lattice="5.701861816978892 1.3560418911886006e-07 3.2919715734991803 1.900620696110401 5.375767264364653 3.29197163827461 6.540118678075388e-09 8.39579148434594e-08 6.583943135670531" Properties=species:S:1:pos:R:3:forces:R:3 energy=-35.03059387207031 free_energy=-35.03059387207031 stress="-0.0001296739501412958 2.7063958185635784e-08 5.1999169414784774e-08 2.7063958185635784e-08 -0.0001295639667659998 1.702024832184179e-08 5.1999169414784774e-08 1.702024832184179e-08 -0.00012962946493644267" pbc="T T T"
Bi       1.90062071       1.34394108       3.29197183      -0.00000118      -0.00000081       0.00000207
Bi       5.70186148       4.03182677       9.87591407      -0.00000032       0.00000309      -0.00000340
Ni       0.00000002      -0.00000018       0.00000024      -0.00000055       0.00000237      -0.00000793
Se       1.93269229       1.36661969       6.58394325      -0.00074989      -0.00053221       0.00000013
Se       5.66979055       4.00914783       6.58394368       0.00074814       0.00052965       0.00000076
Se       4.73551561       1.36661940       4.96573212       0.00037339      -0.00052997      -0.00064689
Se       2.86696695       4.00914798       8.20215432      -0.00037374       0.00053141       0.00065024
Se       2.86696655       4.00914773       4.96573204      -0.00037283       0.00052948      -0.00064710
Se       4.73551594       1.36661965       8.20215389       0.00037676      -0.00053295       0.00065206
