9
Lattice="6.613532556115751 -1.8535573703141142e-08 3.818324693601875 2.2045107877182413 6.235298197918762 3.8183247747395446 -1.967260093643739e-08 8.546230140873967e-08 7.636649421277699" Properties=species:S:1:pos:R:3:forces:R:3 energy=-22.536842346191406 free_energy=-22.536842346191406 stress="1.3157256944396067e-05 -4.412431309219755e-09 4.3368952873379385e-10 -4.412431309219755e-09 1.3150868653610814e-05 -3.2807723204797412e-09 4.3368952873379385e-10 -3.2807723204797412e-09 1.3151957318768837e-05" pbc="T T T"
Bi       2.20451122       1.55882453       3.81832494       0.00000148      -0.00000017       0.00000088
Bi       6.61353207       4.67647378      11.45497417      -0.00000135      -0.00000018      -0.00000029
Ni       0.00000012      -0.00000000      -0.00000006       0.00000029      -0.00000004      -0.00000048
I        2.18644373       1.54604911       7.63664954      -0.00167883      -0.00118628      -0.00000030
I        6.63159951       4.68924898       7.63664959       0.00167867       0.00118688      -0.00000039
I        5.52031043       1.54604919       5.71184032       0.00083910      -0.00118635      -0.00145313
I        3.29773287       4.68924908       9.56145841      -0.00083978       0.00118735       0.00145314
I        3.29773292       4.68924907       5.71184020      -0.00083927       0.00118635      -0.00145300
I        5.52031044       1.54604932       9.56145844       0.00083970      -0.00118755       0.00145346
