9
Lattice="7.0872931879255 -6.556895740993261e-09 4.091850568320862 2.3624310350281 6.681964101671131 4.091850605441859 -6.272235727799973e-08 1.1124722198398905e-09 8.183701245279915" Properties=species:S:1:pos:R:3:forces:R:3 energy=-28.481229782104492 free_energy=-28.481229782104492 stress="0.00011169714707648382 -1.796763515748978e-09 -4.934962216651684e-09 -1.796763515748978e-09 0.00011170178913744166 6.6943912635508696e-09 -4.934962216651684e-09 6.6943912635508696e-09 0.00011170840298291296" pbc="T T T"
Bi       2.36243117       1.67049093       4.09185061      -0.00000026      -0.00000050       0.00000025
Bi       7.08729317       5.01147307      12.27555203       0.00000013       0.00000011      -0.00000035
Nb       0.00000003      -0.00000024      -0.00000046       0.00000028       0.00000541       0.00000075
I        2.27999276       1.61219847       8.18370108      -0.00114734      -0.00081114       0.00000003
I        7.16973146       5.06976587       8.18370101       0.00114429       0.00080921       0.00000066
I        5.94729659       1.61219837       6.06638233       0.00057426      -0.00081212      -0.00099463
I        3.50242702       5.06976589      10.30102046      -0.00057212       0.00080966       0.00099187
I        3.50242751       5.06976583       6.06638211      -0.00057303       0.00081009      -0.00099243
I        5.94729691       1.61219819      10.30102053       0.00057383      -0.00081075       0.00099388
