9
Lattice="6.493053604859408 -2.0168177940102435e-08 3.7487657521843856 2.164351235368562 6.121709654367209 3.748765660795279 1.2604164373708586e-07 -2.2803412255101043e-08 7.4975312860582175" Properties=species:S:1:pos:R:3:forces:R:3 energy=-35.0634880065918 free_energy=-35.0634880065918 stress="0.00012487902131397277 1.4205659759625178e-08 -1.6427044613465114e-08 1.4205659759625178e-08 0.00012489475193433464 2.2769000018740826e-09 -1.6427044613465114e-08 2.2769000018740826e-09 0.00012492938549257815" pbc="T T T"
Bi       2.16435234       1.53042870       3.74876295      -0.00000091      -0.00000011       0.00000076
Bi       6.49305238       4.59128089      11.24629882       0.00000091       0.00000023      -0.00000038
Nb       0.00000005       0.00000008       0.00000038       0.00000024      -0.00000127       0.00000140
Cl       1.96727296       1.39107245       7.49753109      -0.00332424      -0.00235142       0.00000130
Cl       6.69013200       4.73063710       7.49753203       0.00332445       0.00235206      -0.00000043
Cl       5.50941735       1.39107234       5.45247526       0.00166237      -0.00235115      -0.00288132
Cl       3.14798796       4.73063788       9.54258793      -0.00166164       0.00234939       0.00287971
Cl       3.14798724       4.73063726       5.45247470      -0.00166117       0.00235167      -0.00288038
Cl       5.50941763       1.39107161       9.54258778       0.00166009      -0.00234939       0.00287926
