9
Lattice="5.41993878886193 1.8596430531833778e-07 3.1292033714050156 1.8066463940559094 5.109967356947181 3.129203448008191 1.2814295709629453e-07 1.844301571171494e-07 6.2584065208598325" Properties=species:S:1:pos:R:3:forces:R:3 energy=-37.709449768066406 free_energy=-37.709449768066406 stress="-0.00019996585615444928 -2.0515726006919976e-08 1.8504021426224426e-08 -2.0515726006919976e-08 -0.00019996665650978684 3.0979439458178604e-08 1.8504021426224426e-08 3.0979439458178604e-08 -0.00019988887652289122" pbc="T T T"
Bi       1.80664707       1.27749293       3.12920296       0.00000282       0.00000332      -0.00000190
Bi       5.41993809       3.83247518       9.38761113      -0.00000393      -0.00000159       0.00000511
Ni      -0.00000031      -0.00000001       0.00000001       0.00000986       0.00000168      -0.00000064
S        1.81878361       1.28607365       6.25840670       0.00050992       0.00036108       0.00000063
S        5.40780187       3.82389390       6.25840652      -0.00051764      -0.00036713      -0.00000148
S        4.51054738       1.28607471       4.70431630      -0.00025503       0.00036353       0.00044161
S        2.71603815       3.82389296       7.81249661       0.00025344      -0.00036141      -0.00044107
S        2.71603878       3.82389314       4.70431580       0.00025758      -0.00036320       0.00044090
S        4.51054669       1.28607451       7.81249720      -0.00025707       0.00036335      -0.00044331
