9
Lattice="4.784565495298858 -1.6356787877126136e-08 2.762370144671662 1.5948551824774533 4.510931301361976 2.7623700878618096 1.0955148243064563e-08 -6.183107023039912e-08 5.524740270368433" Properties=species:S:1:pos:R:3:forces:R:3 energy=-38.40052032470703 free_energy=-38.40052032470703 stress="0.0001890486164484173 4.245782747602789e-08 1.4311352103391073e-08 4.245782747602789e-08 0.00018894686945714056 1.1235605335002674e-08 1.4311352103391073e-08 1.1235605335002674e-08 0.00018895082757808268" pbc="T T T"
Bi       1.59485536       1.12773261       2.76237039       0.00000026       0.00000000      -0.00000055
Bi       4.78456544       3.38319821       8.28711055       0.00000015      -0.00000074       0.00000018
Ni       0.00000024      -0.00000009      -0.00000004      -0.00000608      -0.00000099      -0.00000065
F        1.58662800       1.12191548       5.52474054      -0.00112145      -0.00079247      -0.00000107
F        4.79279256       3.38901591       5.52474004       0.00112459       0.00079566       0.00000016
F        3.99125136       1.12191546       4.13643029       0.00056068      -0.00079392      -0.00097272
F        2.38816926       3.38901576       6.91304994      -0.00056070       0.00079443       0.00097208
F        2.38816923       3.38901611       4.13643024      -0.00056002       0.00079192      -0.00097007
F        3.99125132       1.12191540       6.91305014       0.00056243      -0.00079395       0.00097252
