9
Lattice="5.917321495894816 -2.0210197660522914e-07 3.4163670671874162 1.9724403389424954 5.57890336187585 3.416367013745759 -8.462787373777589e-08 -1.2529330881582673e-07 6.832734280954668" Properties=species:S:1:pos:R:3:forces:R:3 energy=-28.44656753540039 free_energy=-28.44656753540039 stress="-4.02409968955908e-05 3.3700199963959676e-08 -7.706083238190331e-08 3.3700199963959676e-08 -4.032909055240452e-05 -7.243371236143048e-09 -7.706083238190331e-08 -7.243371236143048e-09 -4.024816371384077e-05" pbc="T T T"
Bi       1.97244161       1.39472740       3.41636744       0.00000490       0.00000624       0.00000013
Bi       5.91732094       4.18417717      10.24910026      -0.00000209       0.00000196      -0.00000085
Ni      -0.00000037       0.00000010       0.00000041       0.00000128      -0.00000158      -0.00000472
Cl       1.89946958       1.34312787       6.83273401       0.00714296       0.00505264      -0.00000312
Cl       5.99029219       4.23577417       6.83273430      -0.00714031      -0.00505283       0.00000379
Cl       4.96758557       1.34312841       5.06135725      -0.00357588       0.00505037       0.00618900
Cl       2.92217598       4.23577402       8.60411113       0.00357237      -0.00504926      -0.00618212
Cl       2.92217632       4.23577464       5.06135756       0.00357022      -0.00505340       0.00618060
Cl       4.96758514       1.34312839       8.60411098      -0.00357336       0.00504567      -0.00618276
