9
Lattice="4.461256578957253 1.0394486500365375e-07 2.575707629874109 1.4870855693379412 4.206113331375868 2.5757077251045057 -1.3069649929195987e-07 2.4216536691641298e-08 5.1514154861211905" Properties=species:S:1:pos:R:3:forces:R:3 energy=-45.720149993896484 free_energy=-45.720149993896484 stress="-0.00033489399356767535 -1.1295841595426737e-08 -4.293100630547997e-08 -1.1295841595426737e-08 -0.00033498392440378666 -3.6488557952907286e-08 -4.293100630547997e-08 -3.6488557952907286e-08 -0.00033505543251521885" pbc="T T T"
Bi       1.48708539       1.05152806       2.57570764       0.00000020      -0.00000171       0.00000345
Bi       4.46125632       3.15458509       7.72712307      -0.00000052      -0.00000193       0.00000132
N        0.00000143       0.00000389      -0.00000856       0.00002185       0.00006132      -0.00011369
O        1.37886152       0.97500241       5.15141494      -0.00139821      -0.00098586      -0.00000958
O        4.56947671       3.23110866       5.15141514       0.00135148       0.00095379      -0.00001154
O        3.77182384       0.97500564       3.76983987       0.00067157      -0.00094467      -0.00116724
O        2.17651621       3.23111184       6.53299366      -0.00070727       0.00099915       0.00121313
O        2.17651955       3.23110709       3.76984159      -0.00065780       0.00093246      -0.00114900
O        3.77182701       0.97500116       6.53299586       0.00071925      -0.00101334       0.00123346
