9
Lattice="5.80976513792143 -1.0314493789676438e-07 3.3542694125939576 1.9365883205030139 5.47749893444491 3.3542693460107653 6.034790148148271e-08 -3.887500812846559e-08 6.708538720662298" Properties=species:S:1:pos:R:3:forces:R:3 energy=-40.272254943847656 free_energy=-40.272254943847656 stress="-6.763543206034228e-05 -1.6201916253066884e-08 -3.6871456998710528e-09 -1.6201916253066884e-08 -6.76534982630983e-05 -3.071382792541044e-08 -3.6871456998710528e-09 -3.071382792541044e-08 -6.767417653463781e-05" pbc="T T T"
Bi       1.93658826       1.36937464       3.35426950       0.00000073       0.00000109       0.00000047
Bi       5.80976527       4.10812415      10.06280846      -0.00000008      -0.00000020       0.00000131
Os      -0.00000013       0.00000017       0.00000023       0.00000094      -0.00000098      -0.00000124
Se       1.99166402       1.40831871       6.70853865       0.00289804       0.00204858      -0.00000083
Se       5.75468960       4.06918015       6.70853868      -0.00289840      -0.00204894      -0.00000049
Se       4.81393337       1.40831899       5.07910084      -0.00144930       0.00204939       0.00250989
Se       2.93242012       4.06917964       8.33797634       0.00144793      -0.00204858      -0.00250834
Se       2.93242020       4.06917959       5.07910079       0.00144777      -0.00204903       0.00250953
Se       4.81393340       1.40831910       8.33797641      -0.00144781       0.00204882      -0.00251037
