9
Lattice="5.48507910954449 -7.390128787428542e-08 3.1668118599219386 1.8283596092532286 5.171382402287303 3.166811901930173 -1.0239549070009997e-07 -2.0955188744377592e-08 6.3336238971980565" Properties=species:S:1:pos:R:3:forces:R:3 energy=-43.206668853759766 free_energy=-43.206668853759766 stress="0.00015276875637937337 -2.410492028204203e-09 3.285413896492173e-08 -2.410492028204203e-09 0.00015278822684194893 -5.199388031229546e-09 3.285413896492173e-08 -5.199388031229546e-09 0.00015275161422323436" pbc="T T T"
Bi       1.82835931       1.29284623       3.16681124      -0.00000228       0.00000379      -0.00000671
Bi       5.48507800       3.87853587       9.50043461      -0.00000684      -0.00000400      -0.00000573
Os       0.00000025       0.00000003      -0.00000079       0.00000014       0.00000014      -0.00000185
S        1.91743419       1.35583077       6.33362442      -0.00159216      -0.00112551       0.00000353
S        5.39600446       3.81555172       6.33362406       0.00159264       0.00112569       0.00000180
S        4.52636262       1.35583072       4.82735899       0.00079834      -0.00112504      -0.00137740
S        2.78707725       3.81555126       7.83988980      -0.00079179       0.00112355       0.00138193
S        2.78707644       3.81555152       4.82735887      -0.00079465       0.00112486      -0.00137776
S        4.52636191       1.35583105       7.83988955       0.00079659      -0.00112325       0.00138187
