9
Lattice="4.811812518339679 9.603158226814644e-09 2.778101269563864 1.6039375133634122 4.536620387856862 2.7781012726880663 -1.0951908077998932e-09 3.0519338655990297e-09 5.556202541024647" Properties=species:S:1:pos:R:3:forces:R:3 energy=-56.29442596435547 free_energy=-56.29442596435547 stress="0.0001804017083486542 6.387725193235383e-08 -9.25027077158802e-09 6.387725193235383e-08 0.00018050911603495479 1.0890990331802186e-08 -9.25027077158802e-09 1.0890990331802186e-08 0.00018034053209703416" pbc="T T T"
Bi       1.60393755       1.13415508       2.77810125       0.00000040       0.00000123      -0.00000012
Bi       4.81181255       3.40246533       8.33430375       0.00000022      -0.00000115       0.00000022
Os      -0.00000007       0.00000002      -0.00000010       0.00000217      -0.00000249       0.00000179
O        1.54138951       1.08992703       5.55620253       0.00017302       0.00012125       0.00000085
O        4.87436053       3.44669340       5.55620261      -0.00017501      -0.00012244      -0.00000032
O        4.04111777       1.08992697       4.11298374      -0.00008753       0.00012407       0.00015347
O        2.37463223       3.44669343       6.99942138       0.00008886      -0.00012380      -0.00015302
O        2.37463224       3.44669338       4.11298378       0.00008751      -0.00012187       0.00015190
O        4.04111781       1.08992697       6.99942141      -0.00009008       0.00012499      -0.00015453
