9
Lattice="4.673555140519909 -7.739842288192281e-08 2.698278287117641 1.5578516467044106 4.406269970569572 2.6982782764313926 6.755233880509589e-09 -8.311268971012462e-09 5.396556562534885" Properties=species:S:1:pos:R:3:forces:R:3 energy=-47.21112823486328 free_energy=-47.21112823486328 stress="-0.00016060820780694485 -9.506136677828181e-08 -3.331070175249806e-08 -9.506136677828181e-08 -0.00016054045408964157 -8.922468985872456e-09 -3.331070175249806e-08 -8.922468985872456e-09 -0.0001604213030077517" pbc="T T T"
Bi       1.55785280       1.10156830       2.69827803       0.00000439       0.00000230      -0.00000184
Bi       4.67355455       3.30470158       8.09483485      -0.00000131      -0.00000325       0.00000095
Pd      -0.00000005      -0.00000045       0.00000006      -0.00000827       0.00001928       0.00000730
O        1.59473207       1.12764626       5.39655664      -0.00264731      -0.00187029       0.00000107
O        4.63667471       3.27862390       5.39655659       0.00264269       0.00186738      -0.00000270
O        3.87618850       1.12764644       4.07935717       0.00132830      -0.00187720      -0.00230493
O        2.35521827       3.27862344       6.71375594      -0.00132315       0.00186907       0.00229356
O        2.35521802       3.27862353       4.07935710      -0.00132161       0.00187042      -0.00229543
O        3.87618836       1.12764652       6.71375609       0.00132637      -0.00187774       0.00230251
