9
Lattice="4.788082575525312 -1.4451318518834307e-08 2.7644008753180946 1.5960275237194081 4.5142474281724185 2.764400854240433 9.823270134094081e-08 4.3646267734303815e-08 5.52880158049216" Properties=species:S:1:pos:R:3:forces:R:3 energy=-36.838233947753906 free_energy=-36.838233947753906 stress="0.0002319525374332443 1.17325820170322e-08 -1.431294975873243e-07 1.17325820170322e-08 0.0002320230851182714 -9.204249806771259e-08 -1.431294975873243e-07 -9.204249806771259e-08 0.00023198551207315177" pbc="T T T"
Bi       1.59602781       1.12856132       2.76440098       0.00000285      -0.00000416       0.00000301
Bi       4.78808300       3.38568518       8.29320491       0.00000224      -0.00000247       0.00002172
Pd      -0.00000036       0.00000027       0.00000042       0.00000951      -0.00000476      -0.00000915
F        1.70770537       1.20753017       5.52880127      -0.00322941      -0.00228108      -0.00000177
F        4.67640487       3.30671767       5.52880050       0.00322230       0.00228070      -0.00000901
F        3.93422970       1.20753054       4.24331691       0.00161217      -0.00227734      -0.00279547
F        2.44988011       3.30671717       6.81428520      -0.00162034       0.00228929       0.00279736
F        2.44988087       3.30671730       4.24331722      -0.00161247       0.00228428      -0.00279968
F        3.93422940       1.20753015       6.81428567       0.00161318      -0.00228445       0.00279336
