9
Lattice="5.366166993061991 -1.2079484325112973e-07 3.0981579015701466 1.7887223841036868 5.059270452351981 3.098157612370428 3.3242053103883575e-07 -1.1913901018914074e-07 6.1963152273709" Properties=species:S:1:pos:R:3:forces:R:3 energy=-36.78133773803711 free_energy=-36.78133773803711 stress="-4.526787233771756e-05 -2.9298528048116168e-08 1.7533428930960326e-08 -2.9298528048116168e-08 -4.533231913228519e-05 -3.382597313361657e-08 1.7533428930960326e-08 -3.382597313361657e-08 -4.520763468462974e-05" pbc="T T T"
Bi       1.78872226       1.26481780       3.09815774       0.00000025       0.00000073       0.00000221
Bi       5.36616687       3.79445165       9.29447355      -0.00000147      -0.00000248       0.00000240
Pb       0.00000002      -0.00000011       0.00000028       0.00000166       0.00000340      -0.00000790
F        1.81994815       1.28689711       6.19631503      -0.00057066      -0.00040351      -0.00000018
F        5.33494204       3.77237365       6.19631462       0.00056726       0.00040246      -0.00000160
F        4.45619343       1.28689793       4.67427862       0.00028653      -0.00040130      -0.00049462
F        2.69869647       3.77237280       7.71835200      -0.00028743       0.00040431       0.00049621
F        2.69869633       3.77237193       4.67427820      -0.00028606       0.00040320      -0.00049721
F        4.45619371       1.28689807       7.71835249       0.00028985      -0.00040672       0.00050078
