9
Lattice="4.568518155604271 -1.046037212580861e-08 2.637635350445386 1.522839412179619 4.307240050979958 2.6376352866360913 1.2448517179498873e-07 9.874178726613235e-09 5.27527048527614" Properties=species:S:1:pos:R:3:forces:R:3 energy=-54.60573196411133 free_energy=-54.60573196411133 stress="-0.00032764035859145224 5.621150478418713e-08 1.2387480374798088e-08 5.621150478418713e-08 -0.00032763415947556496 5.996784580020176e-08 1.2387480374798088e-08 5.996784580020176e-08 -0.0003276836359873414" pbc="T T T"
Bi       1.52283941       1.07680997       2.63763513      -0.00000043      -0.00000010      -0.00000068
Bi       4.56851808       3.23042935       7.91290546      -0.00000055      -0.00000106       0.00000067
P       -0.00000002      -0.00000003      -0.00000011      -0.00000023       0.00000440       0.00000093
O        1.40682043       0.99477243       5.27527057       0.00279188       0.00197661      -0.00000331
O        4.68453726       3.31246790       5.27527052      -0.00279260      -0.00197577       0.00000345
O        3.86510827       0.99477239       3.85597742      -0.00139856       0.00197494       0.00241983
O        2.22624967       3.31246782       6.69456400       0.00139964      -0.00197566      -0.00242174
O        2.22624983       3.31246822       3.85597737       0.00139713      -0.00197983       0.00242400
O        3.86510782       0.99477213       6.69456407      -0.00139534       0.00197697      -0.00242054
