9
Lattice="5.552675815262458 1.225116622878276e-07 3.2058388223872063 1.8508920461984542 5.235112974520604 3.2058388357715546 9.199071603933385e-08 8.143966344496193e-08 6.411677485441864" Properties=species:S:1:pos:R:3:forces:R:3 energy=-38.943206787109375 free_energy=-38.943206787109375 stress="-8.448630251223221e-05 2.9383951272166087e-08 8.708033405468996e-09 2.9383951272166087e-08 -8.449375309282914e-05 8.025828002189428e-09 8.708033405468996e-09 8.025828002189428e-09 -8.453791087958962e-05" pbc="T T T"
Bi       1.85089169       1.30877723       3.20583908      -0.00000173      -0.00000430       0.00000207
Bi       5.55267589       3.92633497       9.61751660      -0.00000099      -0.00000053       0.00000095
Pt       0.00000032      -0.00000004      -0.00000025      -0.00000787      -0.00000116       0.00000438
S        1.90081837       1.34408129       6.41167758      -0.00013727      -0.00009871      -0.00000049
S        5.50274912       3.89103193       6.41167778       0.00014323       0.00010362      -0.00000076
S        4.60226689       1.34408190       4.85199557       0.00007108      -0.00009838      -0.00012273
S        2.80130121       3.89103216       7.97135933      -0.00006837       0.00009921       0.00011736
S        2.80130108       3.89103180       4.85199563      -0.00006926       0.00009850      -0.00012031
S        4.60226723       1.34408149       7.97135925       0.00007078      -0.00009811       0.00011942
