9
Lattice="6.507149444042437 3.486810255422598e-08 3.756904456452656 2.169049833888432 6.1349994236979395 3.7569044801234535 -2.0635159696170096e-08 1.4399483870689898e-08 7.513808948646423" Properties=species:S:1:pos:R:3:forces:R:3 energy=-23.246671676635742 free_energy=-23.246671676635742 stress="9.107092773774639e-05 -1.079010036875161e-08 -1.4965382266751703e-09 -1.079010036875161e-08 9.107727964874357e-05 7.3289934121589795e-09 -1.4965382266751703e-09 7.3289934121589795e-09 9.107336518354714e-05" pbc="T T T"
Bi       2.16904956       1.53375013       3.75690463      -0.00000075       0.00000001       0.00000069
Bi       6.50714926       4.60124937      11.27071374      -0.00000074      -0.00000082       0.00000162
P        0.00000017       0.00000020       0.00000016       0.00000095       0.00000063      -0.00000056
Br       2.17717612       1.53949593       7.51380893      -0.00585727      -0.00414143      -0.00000038
Br       6.49902310       4.59550329       7.51380869       0.00585739       0.00414184      -0.00000109
Br       5.41856146       1.53949614       5.64239431       0.00292896      -0.00414153      -0.00507405
Br       3.25763792       4.59550329       9.38522344      -0.00292965       0.00414241       0.00507372
Br       3.25763796       4.59550331       5.64239425      -0.00292808       0.00414104      -0.00507355
Br       5.41856148       1.53949623       9.38522338       0.00292916      -0.00414210       0.00507355
