9
Lattice="5.500479143130573 1.757244620210671e-07 3.175703736255491 1.8334931301260708 5.185901834761857 3.1757038804638036 -8.848096118847089e-08 1.1405289189398885e-07 6.351407625764468" Properties=species:S:1:pos:R:3:forces:R:3 energy=-36.90205383300781 free_energy=-36.90205383300781 stress="-0.00013673359353560954 3.000337045477863e-08 1.3390771158583448e-08 3.000337045477863e-08 -0.00013670767657458782 1.0105072334454235e-08 1.3390771158583448e-08 1.0105072334454235e-08 -0.00013679752009920776" pbc="T T T"
Bi       1.83349229       1.29647451       3.17570393      -0.00000421      -0.00000478       0.00000237
Bi       5.50047944       3.88942680       9.52710991       0.00000197      -0.00000057      -0.00000957
Pd       0.00000011       0.00000011       0.00000008       0.00000006       0.00000292       0.00000179
S        1.92914687       1.36411351       6.35140761      -0.00039488      -0.00028014      -0.00000011
S        5.40482542       3.82178916       6.35140861       0.00039232       0.00028002       0.00000132
S        4.53590572       1.36411275       4.84639448       0.00019771      -0.00027823      -0.00034052
S        2.79806650       3.82178868       7.85642102      -0.00019598       0.00028068       0.00034100
S        2.79806590       3.82178903       4.84639443      -0.00019649       0.00027883      -0.00033909
S        4.53590649       1.36411406       7.85642090       0.00019884      -0.00027862       0.00034243
