9
Lattice="4.848162178770519 -3.3515685105598806e-08 2.799087667496073 1.6160540254092757 4.570891369969132 2.799087671968242 4.377837586704219e-08 3.643326245274726e-08 5.598175259165781" Properties=species:S:1:pos:R:3:forces:R:3 energy=-35.82280349731445 free_energy=-35.82280349731445 stress="0.00025043159257620573 4.437625378272969e-09 -1.2211080502311233e-07 4.437625378272969e-09 0.00025014192215166986 -6.456509993313375e-08 -1.2211080502311233e-07 -6.456509993313375e-08 0.0002503980649635196" pbc="T T T"
Bi       1.61605413       1.14272338       2.79908852       0.00000076       0.00000700       0.00000745
Bi       4.84816384       3.42816706       8.39726760       0.00001504      -0.00001531       0.00004441
Pt      -0.00000029       0.00000066      -0.00000115      -0.00000148      -0.00000276      -0.00000138
F        1.75465394       1.24072861       5.59817504      -0.00339863      -0.00239590      -0.00000299
F        4.70956177       3.33016300       5.59817426       0.00339541       0.00239997      -0.00001328
F        3.97083501       1.24072880       4.31866207       0.00169922      -0.00239561      -0.00294992
F        2.49338040       3.33016302       6.87768679      -0.00170563       0.00239876       0.00293380
F        2.49338141       3.33016279       4.31866228      -0.00169939       0.00240296      -0.00295126
F        3.97083489       1.24072817       6.87768695       0.00169434      -0.00239922       0.00293326
