9
Lattice="6.383353360096769 1.3566479166604414e-07 3.6854308104415034 2.127784551289101 6.018283315258223 3.685430862372697 -2.8287304066039498e-08 4.360031836035256e-08 7.370861669878052" Properties=species:S:1:pos:R:3:forces:R:3 energy=-25.768177032470703 free_energy=-25.768177032470703 stress="3.353976717335172e-05 2.2814770517243232e-08 -1.137574301424138e-08 2.2814770517243232e-08 3.354089130880311e-05 5.494030785868631e-10 -1.137574301424138e-08 5.494030785868631e-10 3.351528357597999e-05" pbc="T T T"
Bi       2.12778424       1.50457113       3.68543098      -0.00000017       0.00000051      -0.00000044
Bi       6.38335359       4.51371254      11.05629245       0.00000075      -0.00000032       0.00000025
Pt       0.00000029       0.00000018       0.00000052      -0.00000754      -0.00000380      -0.00001247
Br       2.03733105       1.44061091       7.37086183      -0.00076859      -0.00054313      -0.00000040
Br       6.47380660       4.57767240       7.37086173       0.00077368       0.00054766      -0.00000012
Br       5.36468803       1.44061054       5.44981104       0.00038260      -0.00054131      -0.00066262
Br       3.14644992       4.57767265       9.29191185      -0.00038505       0.00054649       0.00066929
Br       3.14644981       4.57767289       5.44981101      -0.00038223       0.00054021      -0.00066163
Br       5.36468798       1.44061074       9.29191196       0.00038650      -0.00054634       0.00066827
