9
Lattice="6.2022120679090005 3.0988280138856886e-08 3.580848435315043 2.0674039973158025 5.847500742543177 3.5808485297750705 -1.0102490879487974e-07 4.425402544123969e-08 7.161697045610352" Properties=species:S:1:pos:R:3:forces:R:3 energy=-28.440656661987305 free_energy=-28.440656661987305 stress="4.497781628742814e-05 6.7478582721491875e-09 1.6834562188705604e-08 6.7478582721491875e-09 4.496558176469989e-05 8.815998597810903e-09 1.6834562188705604e-08 8.815998597810903e-09 4.494062886806205e-05" pbc="T T T"
Bi       2.06740223       1.46187514       3.58084889      -0.00000233      -0.00000062       0.00000006
Bi       6.20221203       4.38562478      10.74254722      -0.00000122      -0.00000197       0.00000367
Pt       0.00000008      -0.00000011      -0.00000031       0.00000480       0.00000308       0.00000393
Cl       1.92606925       1.36193647       7.16169675       0.00410492       0.00290445      -0.00000174
Cl       6.34354746       4.48556406       7.16169619      -0.00410721      -0.00290602      -0.00000022
Cl       5.23917729       1.36193695       5.24887224      -0.00205263       0.00290444       0.00355728
Cl       3.03043909       4.48556444       9.07452063       0.00205316      -0.00290357      -0.00355869
Cl       3.03043952       4.48556498       5.24887305       0.00205225      -0.00290363       0.00355554
Cl       5.23917694       1.36193665       9.07452135      -0.00205179       0.00290379      -0.00355965
