9
Lattice="5.823431391168208 6.587733351308878e-08 3.3621597333367603 1.9411438593593404 5.490384102013325 3.362159733001604 -5.870215138162397e-10 -8.256109429069281e-10 6.724319467690267" Properties=species:S:1:pos:R:3:forces:R:3 energy=-35.97547912597656 free_energy=-35.97547912597656 stress="-0.00012909942597616464 1.1613716655034523e-09 1.1387005116603177e-08 1.1613716655034523e-09 -0.00012911716476082802 2.2529418330918816e-08 1.1387005116603177e-08 2.2529418330918816e-08 -0.00012913282262161374" pbc="T T T"
Bi       1.94114377       1.37259626       3.36215973       0.00000039       0.00000054       0.00000158
Bi       5.82343127       4.11778866      10.08647996      -0.00000192       0.00000263       0.00000330
Pt      -0.00000004      -0.00000010      -0.00000002      -0.00000096       0.00000010      -0.00000097
Se       2.00366070       1.41680167       6.72431947       0.00274304       0.00193910      -0.00000037
Se       5.76091473       4.07358240       6.72431908      -0.00274181      -0.00194044      -0.00000281
Se       4.82160124       1.41680172       5.09738044      -0.00137103       0.00193934       0.00237551
Se       2.94297425       4.07358214       8.35125855       0.00137172      -0.00193910      -0.00237516
Se       2.94297412       4.07358231       5.09738039       0.00137215      -0.00194121       0.00237569
Se       4.82160095       1.41680160       8.35125814      -0.00137159       0.00193901      -0.00237672
