9
Lattice="6.049591119683854 9.571139298726424e-06 3.4927484858279794 2.016539696208897 5.703652573557417 3.49274796756065 8.089291894657057e-06 5.085253352432361e-06 6.985482960589142" Properties=species:S:1:pos:R:3:forces:R:3 energy=-39.62139129638672 free_energy=-39.62139129638672 stress="8.921398693928495e-05 -3.287210574853816e-07 -3.873365415074659e-07 -3.287210574853816e-07 8.685752982273698e-05 -4.7049019258338376e-07 -3.873365415074659e-07 -4.7049019258338376e-07 8.855768828652799e-05" pbc="T T T"
Bi       2.01661629       1.42586472       3.49274270      -0.00008596       0.00006051      -0.00000013
Bi       6.04962336       4.27782662      10.47817096      -0.00001464      -0.00008528       0.00006526
P       -0.00001239      -0.00000297       0.00000843      -0.00000005       0.00000328      -0.00001108
F        1.33402753       0.94328922       6.98548502      -0.00198871      -0.00114250       0.00008262
F        6.73208745       4.76036533       6.98551155       0.00195748       0.00117320      -0.00009158
F        5.38255303       0.94329791       4.64805708       0.00110781      -0.00116915      -0.00163674
F        2.68355374       4.76036277       9.32293943      -0.00104582       0.00118893       0.00163603
F        2.68354049       4.76035845       4.64806363      -0.00095114       0.00124663      -0.00167626
F        5.38256681       0.94330636       9.32294015       0.00102144      -0.00127578       0.00163126
