9
Lattice="4.889142273313862 -1.2334172871227507e-08 2.822747626760146 1.6297140660023512 4.609527581504995 2.8227476500969093 -2.7158903692389878e-08 9.377365563322009e-09 5.645495300560879" Properties=species:S:1:pos:R:3:forces:R:3 energy=-44.00126266479492 free_energy=-44.00126266479492 stress="0.0002199609880335629 -3.262945114101967e-08 -7.50202033827918e-09 -3.262945114101967e-08 0.00021998333977535367 6.402167240793233e-09 -7.50202033827918e-09 6.402167240793233e-09 0.0002199805312557146" pbc="T T T"
Bi       1.62971386       1.15238126       2.82274754      -0.00000063      -0.00000254      -0.00000035
Bi       4.88914204       3.45714560       8.46824292      -0.00000065      -0.00000038      -0.00000107
Pb      -0.00000013      -0.00000014       0.00000035       0.00000574       0.00000586      -0.00001343
O        1.67184101       1.18216993       5.64549533      -0.00691378      -0.00488955      -0.00000038
O        4.84701538       3.42735787       5.64549558       0.00690591       0.00488627       0.00000030
O        4.05322190       1.18217032       4.27060450       0.00345622      -0.00488679      -0.00598526
O        2.46563487       3.42735731       7.02038593      -0.00345866       0.00489318       0.00599149
O        2.46563479       3.42735764       4.27060449      -0.00345443       0.00488651      -0.00598340
O        4.05322151       1.18217054       7.02038560       0.00346072      -0.00489238       0.00599210
