9
Lattice="6.722500187986125 3.2003756480667476e-08 3.8812372495691307 2.240833426891801 6.3380340179196395 3.8812372483168796 -1.8900337697842204e-09 -2.8701638800075487e-09 7.762474502411782" Properties=species:S:1:pos:R:3:forces:R:3 energy=-23.372575759887695 free_energy=-23.372575759887695 stress="-9.121743460127618e-06 3.975287654611748e-09 -9.354157448626665e-09 3.975287654611748e-09 -9.118180969380774e-06 5.8671458802450616e-09 -9.354157448626665e-09 5.8671458802450616e-09 -9.129765203397255e-06" pbc="T T T"
Bi       2.24083355       1.58450866       3.88123720       0.00000057       0.00000049      -0.00000046
Bi       6.72250018       4.75352546      11.64371174      -0.00000015      -0.00000049       0.00000053
Pt      -0.00000020       0.00000002       0.00000024       0.00000101      -0.00000126      -0.00000281
I        2.21047339       1.56304080       7.76247446      -0.00010931      -0.00007765      -0.00000012
I        6.75286034       4.77499328       7.76247455       0.00010894       0.00007688       0.00000001
I        5.61726366       1.56304077       5.79556307       0.00005413      -0.00007603      -0.00009310
I        3.34607013       4.77499316       9.72938575      -0.00005566       0.00007831       0.00009595
I        3.34606998       4.77499320       5.79556312      -0.00005363       0.00007623      -0.00009347
I        5.61726349       1.56304086       9.72938587       0.00005414      -0.00007649       0.00009352
