9
Lattice="5.68421001660821 -6.35144777787659e-08 3.2817802234564093 1.8947366248693363 5.359124417341605 3.2817802017215207 -8.8114814815826e-08 -8.89262539333179e-08 6.5635605995321695" Properties=species:S:1:pos:R:3:forces:R:3 energy=-33.05886459350586 free_energy=-33.05886459350586 stress="8.202992830774747e-06 1.9738476131347937e-10 -3.812835380756496e-09 1.9738476131347937e-10 8.201059245038778e-06 1.3530157438879087e-08 -3.812835380756496e-09 1.3530157438879087e-08 8.223059921874665e-06" pbc="T T T"
Bi       1.89473711       1.33978345       3.28178118       0.00000434       0.00001617       0.00000462
Bi       5.68421133       4.01934455       9.84533981       0.00001109       0.00000609      -0.00000626
Pb       0.00000010      -0.00000024      -0.00000029       0.00000190       0.00000401       0.00000246
S        2.07939397       1.47035393       6.56356101       0.00003803       0.00002675       0.00000030
S        5.49955260       3.88877021       6.56356124      -0.00004351      -0.00003505       0.00000497
S        4.64451227       1.47035334       5.08258813      -0.00002424       0.00002520       0.00003351
S        2.93443305       3.88876980       8.04453291       0.00001889      -0.00003289      -0.00003505
S        2.93443264       3.88876951       5.08258824       0.00001445      -0.00003628       0.00003403
S        4.64451317       1.47035250       8.04453190      -0.00002092       0.00002608      -0.00003866
