9
Lattice="6.342484165274106 -4.84145533679866e-09 3.6618349334162934 2.114161401539609 5.979751317344772 3.661834902794514 4.572212561121684e-08 -5.173480077199394e-09 7.323669787639546" Properties=species:S:1:pos:R:3:forces:R:3 energy=-24.9105281829834 free_energy=-24.9105281829834 stress="6.391914939740673e-05 2.2388295661812663e-09 3.45152595393472e-09 2.2388295661812663e-09 6.391126225935295e-05 -2.0976325121324635e-09 3.45152595393472e-09 -2.0976325121324635e-09 6.392050272552297e-05" pbc="T T T"
Bi       2.11416145       1.49493779       3.66183482       0.00000052       0.00000018      -0.00000012
Bi       6.34248405       4.48481388      10.98550445      -0.00000014       0.00000153      -0.00000136
Pd      -0.00000028      -0.00000028       0.00000005       0.00000244       0.00000422      -0.00000262
Br       2.06117281       1.45746925       7.32366985      -0.00020468      -0.00014526      -0.00000031
Br       6.39547306       4.52228216       7.32367002       0.00020202       0.00014247       0.00000075
Br       5.31189788       1.45746915       5.44686277       0.00010107      -0.00014453      -0.00017603
Br       3.14474784       4.52228225       9.20047696      -0.00010151       0.00014362       0.00017753
Br       3.14474784       4.52228192       5.44686280      -0.00010141       0.00014289      -0.00017556
Br       5.31189782       1.45746910       9.20047679       0.00010178      -0.00014509       0.00017769
