9
Lattice="5.829311096319142 1.6455810440613392e-07 3.3655541485994624 1.9431038191188685 5.495927312833927 3.36555420887665 7.963492194880719e-08 1.3013452391629958e-07 6.731108159267141" Properties=species:S:1:pos:R:3:forces:R:3 energy=-34.38251495361328 free_energy=-34.38251495361328 stress="6.912495155120268e-05 3.08462944076382e-08 -1.2956979489331388e-08 3.08462944076382e-08 6.908985233167186e-05 4.0751255703241895e-09 -1.2956979489331388e-08 4.0751255703241895e-09 6.91176246618852e-05" pbc="T T T"
Bi       1.94310355       1.37398148       3.36555427      -0.00000100      -0.00000152       0.00000143
Bi       5.82931127       4.12194622      10.09666133       0.00000152       0.00000306      -0.00000561
Pd       0.00000030       0.00000019      -0.00000013      -0.00000366      -0.00000027       0.00000029
Se       2.02911290       1.43479961       6.73110822      -0.00287603      -0.00203383      -0.00000011
Se       5.74330195       4.06112800       6.73110891       0.00287782       0.00203542       0.00000240
Se       4.81475468       1.43479917       5.12281729       0.00143866      -0.00203548      -0.00249019
Se       2.95766024       4.06112834       8.33939959      -0.00143818       0.00203389       0.00249071
Se       2.95765994       4.06112827       5.12281704      -0.00143750       0.00203365      -0.00248978
Se       4.81475512       1.43479920       8.33939953       0.00143855      -0.00203505       0.00249083
