9
Lattice="5.529123047700378 -2.2301184014864083e-08 3.192240682205203 1.8430409862960166 5.212907059648638 3.192240697063394 -1.0664887061513768e-08 1.0656307071399525e-08 6.384481382882591" Properties=species:S:1:pos:R:3:forces:R:3 energy=-37.89305877685547 free_energy=-37.89305877685547 stress="-8.779553900239989e-05 -1.3640931051384086e-08 -2.3254928649407702e-08 -1.3640931051384086e-08 -8.786927355686203e-05 -1.0803454797425616e-09 -2.3254928649407702e-08 -1.0803454797425616e-09 -8.774493471719325e-05" pbc="T T T"
Bi       1.84304028       1.30322582       3.19224101      -0.00000274      -0.00000451       0.00000201
Bi       5.52912255       3.90968135       9.57672147      -0.00000372       0.00000527      -0.00000561
P        0.00000025      -0.00000001      -0.00000018      -0.00000097       0.00000205       0.00000187
S        1.78726568       1.26378696       6.38448147       0.00234115       0.00165382       0.00000060
S        5.58489877       3.94911977       6.38448170      -0.00234091      -0.00165585       0.00000203
S        4.63549015       1.26378723       4.74005796      -0.00116783       0.00165153       0.00202453
S        2.73667403       3.94912012       8.02890482       0.00117159      -0.00165430      -0.00202668
S        2.73667373       3.94911981       4.74005793       0.00117040      -0.00165197       0.00202781
S        4.63549059       1.26378714       8.02890479      -0.00116697       0.00165433      -0.00202644
