9
Lattice="6.046547195941733 3.3424426191355675e-07 3.4909757184637114 2.0155160383665054 5.700738679099195 3.490975733606325 3.3492608913674494e-07 2.55374318740902e-07 6.981950856818344" Properties=species:S:1:pos:R:3:forces:R:3 energy=-27.722061157226562 free_energy=-27.722061157226562 stress="0.00017397954070474952 -1.1027567303756314e-08 2.3013594585563624e-08 -1.1027567303756314e-08 0.0001738789869705215 1.4753986476989667e-08 2.3013594585563624e-08 1.4753986476989667e-08 0.00017395231407135725" pbc="T T T"
Bi       2.01551582       1.42518160       3.49097486      -0.00000105      -0.00001124      -0.00000295
Bi       6.04654616       4.27555710      10.47292780      -0.00000561       0.00000980       0.00000552
Pd       0.00000040       0.00000030      -0.00000022      -0.00000121      -0.00000576       0.00000074
Cl       1.94172392       1.37300540       6.98195156      -0.00017828      -0.00013124       0.00000127
Cl       6.12034020       4.32773382       6.98195114       0.00018203       0.00013145      -0.00000189
Cl       5.07568555       1.37300567       5.17255684       0.00009082      -0.00012875      -0.00015729
Cl       2.98637831       4.32773387       8.79134503      -0.00008913       0.00013359       0.00015722
Cl       2.98637809       4.32773366       5.17255720      -0.00008860       0.00013288      -0.00015881
Cl       5.07568583       1.37300565       8.79134499       0.00009101      -0.00013067       0.00015615
