9
Lattice="6.578811147888942 1.1294398050305818e-07 3.798278397683492 2.192937130792125 6.202562872547504 3.798278440965384 -1.2933085917558726e-07 -3.844141819345722e-08 7.596557019374627" Properties=species:S:1:pos:R:3:forces:R:3 energy=-27.834917068481445 free_energy=-27.834917068481445 stress="8.308135875267908e-06 -1.2674290061909232e-08 -1.097835378160994e-09 -1.2674290061909232e-08 8.315059858432505e-06 7.313951666532148e-09 -1.097835378160994e-09 7.313951666532148e-09 8.320095730596222e-06" pbc="T T T"
Bi       2.19293672       1.55064075       3.79827843      -0.00000092      -0.00000096      -0.00000089
Bi       6.57881097       4.65192267      11.39483654      -0.00000016       0.00000135       0.00000370
Pb       0.00000016      -0.00000017       0.00000003      -0.00000095       0.00000073      -0.00000131
Te       2.49949436       1.76740910       7.59655742      -0.00025079      -0.00017824       0.00000157
Te       6.27225389       4.43515330       7.59655622       0.00025232       0.00017813      -0.00000178
Te       5.32906398       1.76740991       5.96290422       0.00012661      -0.00017872      -0.00021821
Te       3.44268424       4.43515345       9.23020943      -0.00012631       0.00017838       0.00021820
Te       3.44268478       4.43515354       5.96290406      -0.00012466       0.00017864      -0.00021856
Te       5.32906349       1.76740927       9.23020909       0.00012486      -0.00017934       0.00021728
