9
Lattice="6.2698946011482635 -2.615617577055931e-09 3.619925530862225 2.0899649030627945 5.911313476825209 3.619925464213928 -7.28681625550325e-08 -1.331527321900532e-07 7.239851187935799" Properties=species:S:1:pos:R:3:forces:R:3 energy=-26.625276565551758 free_energy=-26.625276565551758 stress="0.00018437638937029988 -8.391324857193183e-10 -5.683070014583791e-09 -8.391324857193183e-10 0.00018438494589645416 4.117308716189427e-09 -5.683070014583791e-09 4.117308716189427e-09 0.00018437235848978162" pbc="T T T"
Bi       2.08996426       1.47782822       3.61992465      -0.00000193      -0.00000006      -0.00000274
Bi       6.26989428       4.43348534      10.85977619      -0.00000146       0.00000049      -0.00000022
Pb      -0.00000009      -0.00000014       0.00000040       0.00000115      -0.00000035      -0.00000100
Cl       2.17159070       1.53554645       7.23985123       0.00055683       0.00039309       0.00000086
Cl       6.18826908       4.37576691       7.23985110      -0.00055678      -0.00039445       0.00000022
Cl       5.18409965       1.53554657       5.50057845      -0.00027698       0.00039362       0.00048345
Cl       3.17576022       4.37576656       8.97912416       0.00027832      -0.00039374      -0.00048125
Cl       3.17576042       4.37576711       5.50057837       0.00027975      -0.00039278       0.00048327
Cl       5.18409923       1.53554634       8.97912417      -0.00027881       0.00039419      -0.00048264
