9
Lattice="7.083411235464173 5.2510286659531196e-08 4.089609327899381 2.3611371266019305 6.678304270529658 4.089609330312605 4.1280931867895546e-08 3.2145681057358116e-08 8.179218584297997" Properties=species:S:1:pos:R:3:forces:R:3 energy=-20.94489288330078 free_energy=-20.94489288330078 stress="0.00010511836444493383 1.5278818210617828e-09 2.6997846180876195e-09 1.5278818210617828e-09 0.0001051224026014097 -6.022449206000147e-09 2.6997846180876195e-09 -6.022449206000147e-09 0.00010511782602407038" pbc="T T T"
Bi       2.36113728       1.66957630       4.08960921       0.00000052       0.00000085       0.00000017
Bi       7.08341123       5.00872831      12.26882804      -0.00000024       0.00000027       0.00000100
Pb       0.00000001      -0.00000029       0.00000039      -0.00000003       0.00000136      -0.00000069
I        2.54578014       1.80013854       8.17921870      -0.00454609      -0.00321493       0.00000033
I        6.89876826       4.87816576       8.17921855       0.00454551       0.00321406      -0.00000038
I        5.81052129       1.80013843       6.29431967       0.00227318      -0.00321401      -0.00393716
I        3.63402718       4.87816568      10.06411761      -0.00227368       0.00321364       0.00393635
I        3.63402714       4.87816593       6.29431961      -0.00227153       0.00321402      -0.00393710
I        5.81052106       1.80013883      10.06411717       0.00227229      -0.00321524       0.00393747
