9
Lattice="4.696389766678186 6.380083189522794e-08 2.711462029023003 1.565463293888341 4.427798882295079 2.711462066821647 9.013375817279045e-08 1.100278720803606e-07 5.422923901929781" Properties=species:S:1:pos:R:3:forces:R:3 energy=-48.668548583984375 free_energy=-48.668548583984375 stress="-0.0001692506775725633 -1.5984488754838821e-07 5.960240656577298e-08 -1.5984488754838821e-07 -0.00016924014198593795 3.332078168938324e-09 5.960240656577298e-08 3.332078168938324e-09 -0.00016891890845727175" pbc="T T T"
Bi       1.56546304       1.10694991       2.71146225      -0.00000222      -0.00000128      -0.00000189
Bi       4.69638993       3.32084930       8.13438532       0.00000198       0.00000188      -0.00000115
Pt      -0.00000010       0.00000003       0.00000021       0.00000104       0.00000133      -0.00000594
O        1.61268088       1.14033778       5.42292390      -0.00209704      -0.00148314      -0.00000078
O        4.64917242       3.28746120       5.42292426       0.00209633       0.00148258       0.00000215
O        3.89004936       1.14033779       4.10808506       0.00105102      -0.00148755      -0.00181955
O        2.37180402       3.28746109       6.73776302      -0.00105217       0.00148869       0.00182292
O        2.37180378       3.28746119       4.10808501      -0.00105321       0.00148597      -0.00181919
O        3.89004928       1.14033800       6.73776302       0.00105433      -0.00148848       0.00182310
