9
Lattice="6.155107161697022 1.3145489921889103e-07 3.5536535737090156 2.0517024339807706 5.80309169855267 3.553653707403367 7.457044167500847e-08 2.164707665304941e-07 7.107307018258242" Properties=species:S:1:pos:R:3:forces:R:3 energy=-31.424535751342773 free_energy=-31.424535751342773 stress="0.00021070009097456932 -4.370940942521884e-08 -1.512900560385333e-08 -4.370940942521884e-08 0.0002107654290739447 5.364755750747463e-09 -1.512900560385333e-08 5.364755750747463e-09 0.00021078386635053903" pbc="T T T"
Bi       2.05170227       1.45077513       3.55365368      -0.00000055       0.00000395       0.00000092
Bi       6.15510803       4.35231738      10.66096216       0.00000197      -0.00000278       0.00000298
Ru      -0.00000045      -0.00000060       0.00000017       0.00000778       0.00001220      -0.00000147
Cl       1.93164000       1.36587602       7.10730616      -0.00000097       0.00000009       0.00000001
Cl       6.27517033       4.43721660       7.10730598      -0.00001040      -0.00000779      -0.00000143
Cl       5.18928710       1.36587624       5.22650362       0.00000181       0.00000048      -0.00000343
Cl       3.01752197       4.43721478       8.98811128      -0.00000125      -0.00000228      -0.00000058
Cl       3.01752195       4.43721561       5.22650327       0.00000116      -0.00000381       0.00000221
Cl       5.18928745       1.36587703       8.98811076       0.00000042       0.00000004       0.00000079
