9
Lattice="4.765090219162152 -2.5426190436440297e-08 2.7511262773426752 1.5883634134657372 4.4925700477021 2.751126223561845 8.237022799688718e-10 -6.52853497651997e-08 5.502252553258654" Properties=species:S:1:pos:R:3:forces:R:3 energy=-59.415531158447266 free_energy=-59.415531158447266 stress="-2.4926284822868183e-05 -1.49056049281171e-07 -5.647059353464101e-08 -1.49056049281171e-07 -2.482684067217633e-05 -5.495525812193591e-09 -5.647059353464101e-08 -5.495525812193591e-09 -2.4701010261196643e-05" pbc="T T T"
Bi       1.58836341       1.12314235       2.75112623       0.00000132      -0.00000023       0.00000113
Bi       4.76509084       3.36942744       8.25337800       0.00000532       0.00000089      -0.00000609
Re       0.00000022       0.00000006       0.00000026       0.00000045       0.00000221      -0.00000632
O        1.54894647       1.09527049       5.50225225      -0.00010377      -0.00007159       0.00000142
O        4.80450705       3.39730009       5.50225289       0.00009522       0.00006950       0.00000178
O        3.99061658       1.09527053       4.09255387       0.00005840      -0.00007853      -0.00009498
O        2.36283653       3.39729897       6.91195159      -0.00005826       0.00007850       0.00009656
O        2.36283640       3.39729893       4.09255382      -0.00005485       0.00007695      -0.00009108
O        3.99061705       1.09527088       6.91195145       0.00005621      -0.00007766       0.00009841
