9
Lattice="4.821817559582328 1.2471539721087526e-07 2.7838777044117213 1.6072726106517197 4.546053215759252 2.7838777508166075 5.832958559648112e-08 9.807939236164293e-08 5.567755307793698" Properties=species:S:1:pos:R:3:forces:R:3 energy=-39.474483489990234 free_energy=-39.474483489990234 stress="0.0001481191866332665 -1.5076775383704444e-08 -7.26333269085444e-08 -1.5076775383704444e-08 0.0001482476363889873 -6.265402419103339e-08 -7.26333269085444e-08 -6.265402419103339e-08 0.00014818026102147996" pbc="T T T"
Bi       1.60727328       1.13651243       2.78387840       0.00000301      -0.00000393       0.00000278
Bi       4.82181763       3.40954102       8.35163611       0.00000041       0.00000445       0.00001571
Rh      -0.00000010       0.00000009      -0.00000022       0.00000162       0.00000143      -0.00000682
F        1.66865640       1.17991805       5.56775540      -0.00186455      -0.00132091      -0.00000036
F        4.76043378       3.36613559       5.56775393       0.00186124       0.00131936      -0.00000661
F        3.98748894       1.17991876       4.22897594       0.00093128      -0.00131802      -0.00161818
F        2.44160043       3.36613512       6.90653369      -0.00093521       0.00132158       0.00161535
F        2.44160110       3.36613511       4.22897626      -0.00093092       0.00132035      -0.00161660
F        3.98748931       1.17991759       6.90653329       0.00093293      -0.00132430       0.00161466
