9
Lattice="6.7053002900946375 -5.2162495614131587e-08 3.871306998670487 2.235100081464266 6.3218177946518495 3.871306939875411 7.683201200402677e-08 -1.7680464613404362e-08 7.742613864264023" Properties=species:S:1:pos:R:3:forces:R:3 energy=-25.834566116333008 free_energy=-25.834566116333008 stress="2.20875590457581e-05 -4.266056841117916e-09 5.683084225438506e-09 -4.266056841117916e-09 2.209436752309557e-05 -7.760048603699943e-09 5.683084225438506e-09 -7.760048603699943e-09 2.209538797615096e-05" pbc="T T T"
Bi       2.23510026       1.58045441       3.87130696      -0.00000001      -0.00000009      -0.00000007
Bi       6.70530025       4.74136323      11.61392082       0.00000003      -0.00000060       0.00000062
Ru       0.00000028       0.00000019       0.00000021      -0.00000254      -0.00000065       0.00000042
I        2.20133321       1.55657758       7.74261395       0.00053532       0.00037916      -0.00000039
I        6.73906695       4.76523993       7.74261394      -0.00053332      -0.00037713      -0.00000024
I        5.60463377       1.55657757       5.77771753      -0.00026749       0.00037811       0.00046252
I        3.33576685       4.76524006       9.70751017       0.00026741      -0.00037817      -0.00046358
I        3.33576671       4.76524003       5.77771766       0.00026738      -0.00037763       0.00046229
I        5.60463352       1.55657791       9.70750997      -0.00026673       0.00037700      -0.00046156
