9
Lattice="5.873998480284346 -1.2728150366420247e-08 3.3913547642573194 1.957999479802216 5.5380591559283925 3.3913547670730835 -1.54548906376413e-08 -7.479637816867303e-09 6.7827095552832715" Properties=species:S:1:pos:R:3:forces:R:3 energy=-42.4246940612793 free_energy=-42.4246940612793 stress="-8.588727723690681e-06 -2.8866045553854747e-08 1.6352705856093053e-08 -2.8866045553854747e-08 -8.563965820940211e-06 -1.761045353987356e-08 1.6352705856093053e-08 -1.761045353987356e-08 -8.54174231790239e-06" pbc="T T T"
Bi       1.95799988       1.38451457       3.39135462       0.00000119      -0.00000101      -0.00000025
Bi       5.87399810       4.15354449      10.17406456      -0.00000114      -0.00000023       0.00000086
Re      -0.00000007      -0.00000011      -0.00000022       0.00000110      -0.00000006      -0.00000126
Se       1.99867689       1.41327783       6.78270951       0.00027871       0.00019595       0.00000010
Se       5.83332110       4.12478143       6.78270934      -0.00027974      -0.00019780      -0.00000030
Se       4.87465994       1.41327805       5.12225982      -0.00013915       0.00019681       0.00024012
Se       2.95733787       4.12478114       8.44315944       0.00013838      -0.00019516      -0.00023797
Se       2.95733819       4.12478112       5.12225990       0.00013749      -0.00019392       0.00023702
Se       4.87465989       1.41327802       8.44315934      -0.00013692       0.00019556      -0.00023851
