9
Lattice="6.3472305649292915 2.785203852302646e-08 3.6645752871325667 2.1157435452209756 5.984226509316009 3.664575291776706 7.234187070356253e-09 1.0803196770688095e-08 7.3291505617352035" Properties=species:S:1:pos:R:3:forces:R:3 energy=-27.411685943603516 free_energy=-27.411685943603516 stress="4.5306675019674e-05 1.871658561469758e-08 -3.91897536644592e-09 1.871658561469758e-08 4.528105637291446e-05 6.1672889017927446e-09 -3.91897536644592e-09 6.1672889017927446e-09 4.52749191026669e-05" pbc="T T T"
Bi       2.11574341       1.49605636       3.66457532      -0.00000061      -0.00000115       0.00000005
Bi       6.34723046       4.48817024      10.99372574      -0.00000055       0.00000034      -0.00000073
Rh      -0.00000005      -0.00000027       0.00000036      -0.00000061       0.00000248      -0.00000526
Br       2.03057621       1.43583400       7.32915050       0.00314859       0.00222596       0.00000000
Br       6.43239801       4.54839245       7.32915076      -0.00314829      -0.00222566       0.00000040
Br       5.33194256       1.43583423       5.42310577      -0.00157580       0.00222807       0.00272875
Br       3.13103175       4.54839232       9.23519531       0.00157499      -0.00222653      -0.00272695
Br       3.13103151       4.54839260       5.42310550       0.00157634      -0.00222968       0.00273048
Br       5.33194263       1.43583424       9.23519528      -0.00157404       0.00222619      -0.00272669
