9
Lattice="6.072296970839488 4.225972227704767e-07 3.5058427092306097 2.0240994509150494 5.725017100646478 3.505842601485451 2.1397751261420846e-07 1.9344603890275367e-08 7.011685047841386" Properties=species:S:1:pos:R:3:forces:R:3 energy=-30.336517333984375 free_energy=-30.336517333984375 stress="0.0001723153400234878 1.4234096568088717e-08 1.9395768546814907e-08 1.4234096568088717e-08 0.00017221701273228973 1.3001290710690228e-08 1.9395768546814907e-08 1.3001290710690228e-08 0.00017223272880073637" pbc="T T T"
Bi       2.02409928       1.43125709       3.50584283       0.00000384       0.00000434       0.00000205
Bi       6.07229728       4.29376354      10.51753118      -0.00000191       0.00000147       0.00001054
Rh       0.00000074      -0.00000040       0.00000120      -0.00001444       0.00000493      -0.00002830
Cl       1.92218066       1.35918664       7.01168482      -0.00139745      -0.00098805       0.00000035
Cl       6.17421629       4.36583007       7.01168387       0.00140330       0.00098795      -0.00000282
Cl       5.11120651       1.35918695       5.17049827       0.00069682      -0.00098409      -0.00120634
Cl       2.98518978       4.36582959       8.85287056      -0.00070005       0.00098863       0.00121276
Cl       2.98518959       4.36582986       5.17049829      -0.00069331       0.00098024      -0.00120363
Cl       5.11120641       1.35918699       8.85287036       0.00070316      -0.00099534       0.00121523
