9
Lattice="4.888519839673126 3.366378478672385e-09 2.822388092341718 1.629506619348334 4.608940799068628 2.8223880872319618 2.810063158387139e-08 1.3611999959814973e-08 5.644776136011706" Properties=species:S:1:pos:R:3:forces:R:3 energy=-41.187469482421875 free_energy=-41.187469482421875 stress="0.00036988439387641847 3.5719462943006874e-08 -7.08007918959197e-09 3.5719462943006874e-08 0.0003698545915540308 1.1814639933049875e-08 -7.08007918959197e-09 1.1814639933049875e-08 0.0003700000233948231" pbc="T T T"
Bi       1.62950760       1.15223576       2.82238876       0.00000695       0.00000276       0.00000514
Bi       4.88851952       3.45670464       8.46716471      -0.00000296      -0.00000599       0.00000473
Ru       0.00000011      -0.00000008      -0.00000006      -0.00000404       0.00000129      -0.00000695
F        1.69835429       1.20091860       5.64477601      -0.00488645      -0.00345151      -0.00000212
F        4.81967186       3.40802242       5.64477581       0.00488722       0.00345495      -0.00000207
F        4.03934198       1.20091834       4.29320540       0.00243855      -0.00345065      -0.00423203
F        2.47868392       3.40802290       6.99634639      -0.00244159       0.00345334       0.00423047
F        2.47868420       3.40802255       4.29320597      -0.00244044       0.00345112      -0.00423022
F        4.03934255       1.20091809       6.99634615       0.00244284      -0.00345507       0.00423291
