9
Lattice="6.704375840423291 -1.0182516306636361e-07 3.870773271743042 2.23479188106161 6.320946114545686 3.8707732193390343 3.0723763379932425e-08 -4.245652715340823e-08 7.741546490270959" Properties=species:S:1:pos:R:3:forces:R:3 energy=-25.044065475463867 free_energy=-25.044065475463867 stress="-7.644060133316088e-06 1.5579808554377905e-09 2.2445663105941094e-09 1.5579808554377905e-09 -7.64369178796187e-06 -4.358782668134609e-09 2.2445663105941094e-09 -4.358782668134609e-09 -7.637238923052792e-06" pbc="T T T"
Bi       2.23479172       1.58023680       3.87077305      -0.00000072       0.00000061       0.00000002
Bi       6.70437588       4.74070917      11.61231994      -0.00000004      -0.00000063       0.00000033
Rh      -0.00000005       0.00000009      -0.00000009      -0.00000093      -0.00000130      -0.00000037
I        2.18966061       1.54832401       7.74154656      -0.00218086      -0.00154168      -0.00000010
I        6.74950711       4.77262185       7.74154642       0.00218284       0.00154319      -0.00000046
I        5.60954543       1.54832403       5.76707525       0.00109048      -0.00154219      -0.00188906
I        3.32962246       4.77262191       9.71601765      -0.00109073       0.00154268       0.00188995
I        3.32962253       4.77262188       5.76707544      -0.00109079       0.00154259      -0.00188996
I        5.60954531       1.54832414       9.71601773       0.00109072      -0.00154329       0.00188964
