9
Lattice="6.275889743688396 -1.9641586047011383e-08 3.6233867132913 2.091963166357771 5.916965630144283 3.623386822445278 3.983517953696455e-08 1.6185353417014302e-07 7.246773357585972" Properties=species:S:1:pos:R:3:forces:R:3 energy=-38.1077880859375 free_energy=-38.1077880859375 stress="-4.7630732296966016e-05 -9.158466696135292e-08 4.156567978697012e-09 -9.158466696135292e-08 -4.756637281388976e-05 -1.719405418043607e-08 4.156567978697012e-09 -1.719405418043607e-08 -4.748980063595809e-05" pbc="T T T"
Bi       2.09196412       1.47924121       3.62338696       0.00000314      -0.00000101       0.00000010
Bi       6.27588984       4.43772490      10.87016091       0.00000029       0.00000195       0.00000317
Re      -0.00000018       0.00000005       0.00000022       0.00000103       0.00000097       0.00000040
Te       2.16108189       1.52811517       7.24677340       0.00088057       0.00062144      -0.00000061
Te       6.20677125       4.38885060       7.24677322      -0.00088353      -0.00062429      -0.00000046
Te       5.19534826       1.52811607       5.49493859      -0.00043757       0.00061915       0.00075664
Te       3.17250405       4.38884965       8.99860759       0.00043713      -0.00061858      -0.00075753
Te       3.17250422       4.38884955       5.49493910       0.00043599      -0.00061641       0.00075494
Te       5.19534836       1.52811597       8.99860760      -0.00043714       0.00061680      -0.00075673
