9
Lattice="5.494215406732 7.572300942276011e-08 3.1720870354991733 1.8314052325538972 5.179996060010857 3.1720869911860126 3.659438670656991e-08 -2.8396175044960732e-08 6.344174007615026" Properties=species:S:1:pos:R:3:forces:R:3 energy=-41.921661376953125 free_energy=-41.921661376953125 stress="4.9831793148769066e-05 -2.8641300442444617e-09 2.587888126015514e-09 -2.8641300442444617e-09 4.9841750296764076e-05 -1.3002827703445519e-09 2.587888126015514e-09 -1.3002827703445519e-09 4.985705527360551e-05" pbc="T T T"
Bi       1.83140481       1.29499977       3.17208648      -0.00000349       0.00000530      -0.00000352
Bi       5.49421622       3.88499724       9.51626103       0.00000300      -0.00000091       0.00000000
Ru      -0.00000030       0.00000024      -0.00000122       0.00000074       0.00000135       0.00000134
S        1.91060482       1.35100200       6.34417427       0.00018841       0.00013304       0.00000141
S        5.41501594       3.82899402       6.34417435      -0.00018978      -0.00013718       0.00000126
S        4.53891328       1.35100152       4.82671966      -0.00009236       0.00013229       0.00016397
S        2.78670728       3.82899404       7.86162922       0.00009510      -0.00013614      -0.00016379
S        2.78670762       3.82899418       4.82671963       0.00009319      -0.00013185       0.00016373
S        4.53891307       1.35100141       7.86162873      -0.00009459       0.00013381      -0.00016457
