9
Lattice="5.5266017951088875 2.8641492489397223e-08 3.1907849953458434 1.8422006367515842 5.210529176620365 3.190784975637693 -2.0994111831155748e-07 -1.7258821761929507e-07 6.381570354320359" Properties=species:S:1:pos:R:3:forces:R:3 energy=-40.2025032043457 free_energy=-40.2025032043457 stress="-0.00015379689284600317 3.2228442137238744e-08 2.710646818115947e-09 3.2228442137238744e-08 -0.00015382935816887766 1.9371126924738746e-08 2.710646818115947e-09 1.9371126924738746e-08 -0.00015385105507448316" pbc="T T T"
Bi       1.84219975       1.30263146       3.19078612      -0.00000430      -0.00000452       0.00000471
Bi       5.52660106       3.90789745       9.57235496      -0.00000355       0.00000226      -0.00000033
Rh       0.00000007       0.00000003      -0.00000022      -0.00000060      -0.00000167       0.00000110
S        1.90068491       1.34398733       6.38156990       0.00054365       0.00038305      -0.00000300
S        5.46811742       3.86654185       6.38157028      -0.00054139      -0.00038332       0.00000202
S        4.57625974       1.34398702       4.83682687      -0.00027040       0.00038329       0.00047159
S        2.79254282       3.86654236       7.92631346       0.00027332      -0.00038078      -0.00047117
S        2.79254382       3.86654225       4.83682617       0.00027537      -0.00038284       0.00046849
S        4.57625925       1.34398649       7.92631372      -0.00027224       0.00038448      -0.00047338
