9
Lattice="5.620773747075565 1.1368911476160099e-07 3.245155603201554 1.8735913143866654 5.299316701086284 3.2451556756456306 6.819775129658621e-08 1.3694865973399055e-07 6.490311088281147" Properties=species:S:1:pos:R:3:forces:R:3 energy=-45.87190246582031 free_energy=-45.87190246582031 stress="-0.00011122728028567508 -7.399654777806575e-10 3.743342702478003e-08 -7.399654777806575e-10 -0.00011124664160888642 -4.461217528728412e-08 3.743342702478003e-08 -4.461217528728412e-08 -0.00011124090087832883" pbc="T T T"
Bi       1.87359085       1.32482924       3.24515494      -0.00000065      -0.00000034      -0.00000379
Bi       5.62077417       3.97448804       9.73546816       0.00000114       0.00000279       0.00000537
Re       0.00000020      -0.00000008       0.00000045      -0.00000191       0.00000200      -0.00000374
S        1.91244104       1.35229992       6.49031121       0.00339252       0.00239944       0.00000060
S        5.58192422       3.94701668       6.49031084      -0.00339282      -0.00239864      -0.00000305
S        4.66455365       1.35229988       4.90137810      -0.00169644       0.00239918       0.00293911
S        2.82981158       3.94701701       8.07924416       0.00169545      -0.00239968      -0.00293946
S        2.82981188       3.94701689       4.90137820       0.00169644      -0.00239810       0.00293857
S        4.66455281       1.35230028       8.07924334      -0.00169384       0.00239336      -0.00293368
