9
Lattice="4.746276283628841 -4.494868786310066e-08 2.740264040993665 1.5820920554991285 4.474832439226839 2.7402640352186083 1.327201983921419e-08 2.3117207410924847e-09 5.480528058999574" Properties=species:S:1:pos:R:3:forces:R:3 energy=-53.49557113647461 free_energy=-53.49557113647461 stress="-1.5515701306867413e-05 -6.171143240862875e-08 -2.2938293486873818e-09 -6.171143240862875e-08 -1.5525607523159124e-05 -3.072352683375357e-08 -2.2938293486873818e-09 -3.072352683375357e-08 -1.5497394997510128e-05" pbc="T T T"
Bi       1.58209196       1.11870803       2.74026399      -0.00000006       0.00000135      -0.00000016
Bi       4.74627614       3.35612387       8.22079198      -0.00000396      -0.00000303      -0.00000256
Ru      -0.00000014      -0.00000017      -0.00000002       0.00000466       0.00000207       0.00000319
O        1.54762620       1.09433707       5.48052797      -0.00419584      -0.00296733       0.00000081
O        4.78074237       3.38049552       5.48052818       0.00419161       0.00296405       0.00000022
O        3.97246302       1.09433747       4.08054785       0.00210212      -0.00296861      -0.00363585
O        2.35590543       3.38049517       6.88050843      -0.00209899       0.00296858       0.00363573
O        2.35590538       3.38049516       4.08054795      -0.00209926       0.00297108      -0.00363702
O        3.97246312       1.09433741       6.88050848       0.00209990      -0.00296792       0.00363532
