9
Lattice="5.808850340011637 -5.142679021379506e-08 3.3537411443239744 1.9362834072389872 5.476636591076251 3.353741128641802 -4.755241603072828e-09 -2.2569118949896205e-08 6.707482296884337" Properties=species:S:1:pos:R:3:forces:R:3 energy=-39.13243103027344 free_energy=-39.13243103027344 stress="-2.026976471825037e-05 -2.3213923228126987e-08 7.607127372466493e-09 -2.3213923228126987e-08 -2.0252213289495558e-05 1.1781388309373142e-08 7.607127372466493e-09 1.1781388309373142e-08 -2.022719672822859e-05" pbc="T T T"
Bi       1.93628276       1.36915866       3.35374101      -0.00000434      -0.00000177       0.00000005
Bi       5.80885064       4.10747744      10.06122333       0.00000270       0.00000171      -0.00000261
Ru       0.00000020       0.00000008      -0.00000024       0.00000022       0.00000010      -0.00000313
Se       1.98902944       1.40645602       6.70748247       0.00085014       0.00060065       0.00000094
Se       5.75610439       4.07018069       6.70748225      -0.00085180      -0.00060187       0.00000029
Se       4.81433571       1.40645590       5.07629123      -0.00042395       0.00060212       0.00073721
Se       2.93079791       4.07018040       8.33867349       0.00042421      -0.00060120      -0.00073515
Se       2.93079787       4.07018050       5.07629114       0.00042616      -0.00060072       0.00073697
Se       4.81433607       1.40645636       8.33867355      -0.00042323       0.00060099      -0.00073475
