9
Lattice="4.6956707089296135 7.970597987123166e-08 2.7110467141705934 1.5652236111598556 4.42712083749886 2.711046772420941 -1.8909953226265966e-08 5.797044808842072e-08 5.422093461094177" Properties=species:S:1:pos:R:3:forces:R:3 energy=-49.962181091308594 free_energy=-49.962181091308594 stress="-0.00016152625903487206 4.44322090231708e-09 -3.6018462878928403e-08 4.44322090231708e-09 -0.00016147289716172963 -2.6328560664978795e-08 -3.6018462878928403e-08 -2.6328560664978795e-08 -0.00016157310164999217" pbc="T T T"
Bi       1.56522299       1.10678009       2.71104698      -0.00000326      -0.00000050       0.00000193
Bi       4.69567131       3.32034009       8.13314145       0.00000295      -0.00000327       0.00000783
Rh      -0.00000002       0.00000026       0.00000005       0.00000104      -0.00000507      -0.00000607
O        1.58344015       1.11966171       5.42209351       0.00009531       0.00006884      -0.00000002
O        4.67745414       3.30745950       5.42209271      -0.00009471      -0.00006637      -0.00000490
O        3.90395109       1.11966165       4.08234586      -0.00004679       0.00007248       0.00008526
O        2.35694305       3.30745973       6.76184030       0.00004485      -0.00006625      -0.00008339
O        2.35694366       3.30745937       4.08234612       0.00004771      -0.00006616       0.00008130
O        3.90395104       1.11966143       6.76184049      -0.00004682       0.00006667      -0.00008190
