9
Lattice="5.8114192226511445 -2.555375490524378e-08 3.355224354137934 1.9371397263045098 5.479058426008001 3.355224337660812 1.6418035564026626e-08 -8.570958279836021e-09 6.710448679839003" Properties=species:S:1:pos:R:3:forces:R:3 energy=-37.31471633911133 free_energy=-37.31471633911133 stress="-0.0001629956386750564 -8.853406008313414e-09 -5.602146302408073e-08 -8.853406008313414e-09 -0.0001630346232559532 1.4428255035170423e-08 -5.602146302408073e-08 1.4428255035170423e-08 -0.00016304203018080443" pbc="T T T"
Bi       1.93713998       1.36976461       3.35522419      -0.00000027       0.00000203      -0.00000271
Bi       5.81141919       4.10929399      10.06567311       0.00000157       0.00000201      -0.00000177
Rh      -0.00000005      -0.00000019       0.00000006       0.00000002       0.00000307      -0.00000376
Se       1.99484860       1.41057078       6.71044889       0.00160070       0.00112984       0.00000025
Se       5.75371058       4.06848781       6.71044884      -0.00160450      -0.00113440      -0.00000060
Se       4.81399501       1.41057055       5.08281384      -0.00080238       0.00113298       0.00138800
Se       2.93456383       4.06848739       8.33808365       0.00079981      -0.00113131      -0.00138620
Se       2.93456392       4.06848762       5.08281346       0.00080298      -0.00113484       0.00138997
Se       4.81399479       1.41057102       8.33808342      -0.00079799       0.00113049      -0.00138308
