9
Lattice="6.6563614965548945 7.503021315214829e-08 3.8430521340726433 2.218787162580619 6.275678153468962 3.8430522616847136 -9.086637791476105e-08 9.20399596730145e-08 7.686104425530461" Properties=species:S:1:pos:R:3:forces:R:3 energy=-21.106689453125 free_energy=-21.106689453125 stress="0.0001473503070883453 3.7387890006179703e-10 -4.906457462539038e-10 3.7387890006179703e-10 0.00014735490549355745 -3.300365092329116e-09 -4.906457462539038e-10 -3.300365092329116e-09 0.00014735393051523715" pbc="T T T"
Bi       2.21878674       1.56891994       3.84305272      -0.00000126       0.00000067       0.00000183
Bi       6.65636133       4.70675847      11.52915609      -0.00000039      -0.00000071      -0.00000209
Se      -0.00000014       0.00000006      -0.00000006       0.00000042       0.00000000       0.00000026
Br       2.17258120       1.53624709       7.68610399      -0.00348900      -0.00246698      -0.00000010
Br       6.70256757       4.73943113       7.68610466       0.00348920       0.00246689       0.00000098
Br       5.57007098       1.53624724       5.72456278       0.00174458      -0.00246737      -0.00302140
Br       3.30507774       4.73943116       9.64764604      -0.00174382       0.00246684       0.00302157
Br       3.30507770       4.73943104       5.72456289      -0.00174490       0.00246742      -0.00302216
Br       5.57007110       1.53624713       9.64764611       0.00174515      -0.00246672       0.00302108
