9
Lattice="4.58876015748122 -2.3344175137076107e-07 2.649321887045922 1.5295866085170584 4.3263242283970245 2.6493216974770517 -9.729285762458061e-08 -3.0096995886575045e-07 5.2986439426080265" Properties=species:S:1:pos:R:3:forces:R:3 energy=-50.648101806640625 free_energy=-50.648101806640625 stress="-0.00024636322632431984 1.0536958860996037e-08 -1.0485136670013162e-07 1.0536958860996037e-08 -0.0002462234115228057 -4.542105003224606e-08 -1.0485136670013162e-07 -4.542105003224606e-08 -0.00024659588234499097" pbc="T T T"
Bi       1.52958674       1.08158116       2.64932209       0.00000038       0.00000152       0.00000125
Bi       4.58876004       3.24474301       7.94796602      -0.00000050       0.00000005       0.00000038
S       -0.00000007      -0.00000004      -0.00000003      -0.00000595      -0.00000502       0.00000128
O        1.38393557       0.97858988       5.29864380       0.00102496       0.00072378       0.00000344
O        4.73441109       3.34773362       5.29864345      -0.00102699      -0.00072485      -0.00000292
O        3.89679225       0.97859007       3.84784537      -0.00050932       0.00072682       0.00089157
O        2.22155447       3.34773351       6.74944201       0.00051278      -0.00072503      -0.00088996
O        2.22155429       3.34773371       3.84784513       0.00051725      -0.00072420       0.00089055
O        3.89679228       0.97858971       6.74944237      -0.00051367       0.00072646      -0.00089312
