9
Lattice="6.35789303166201 -9.454877593928548e-08 3.670731515568216 2.1192976477886396 5.994279398929411 3.670731412148471 1.5318581454385626e-07 -1.8344049397338333e-08 7.341462765810799" Properties=species:S:1:pos:R:3:forces:R:3 energy=-28.000961303710938 free_energy=-28.000961303710938 stress="0.0002349234709981829 -1.692215256809959e-08 -2.403677257234449e-11 -1.692215256809959e-08 0.00023493883782066405 4.959373800517142e-09 -2.403677257234449e-11 4.959373800517142e-09 0.00023494094784837216" pbc="T T T"
Bi       2.11929748       1.49857015       3.67073117      -0.00000067      -0.00000072      -0.00000055
Bi       6.35789219       4.49570788      11.01219381      -0.00000129      -0.00000118      -0.00000042
Sn       0.00000012      -0.00000039       0.00000094      -0.00000167       0.00000599      -0.00001470
Cl       2.02473071       1.43170099       7.34146303       0.00070681       0.00049962      -0.00000078
Cl       6.45246022       4.56257839       7.34146321      -0.00070673      -0.00049900      -0.00000023
Cl       5.34552792       1.43170160       5.42420014      -0.00035400       0.00050019       0.00061202
Cl       3.13166397       4.56257801       9.25872554       0.00035110      -0.00049603      -0.00060703
Cl       3.13166305       4.56257864       5.42419969       0.00035594      -0.00050342       0.00061619
Cl       5.34552766       1.43170188       9.25872532      -0.00034949       0.00049452      -0.00060451
