9
Lattice="5.735660691493598 -7.618735069526382e-09 3.3114852837336666 1.9118869008362582 5.407632951237301 3.31148526493272 -4.195542129712308e-09 -2.599301839450052e-08 6.622970574734221" Properties=species:S:1:pos:R:3:forces:R:3 energy=-34.937068939208984 free_energy=-34.937068939208984 stress="-0.0004247963079251349 1.4088745281526371e-08 -1.2089025780426255e-08 1.4088745281526371e-08 -0.0004247978504281491 1.1457594872865684e-08 -1.2089025780426255e-08 1.1457594872865684e-08 -0.00042479494004510343" pbc="T T T"
Bi       1.91188754       1.35190852       3.31148446       0.00000451       0.00000154      -0.00000482
Bi       5.73566072       4.05572399       9.93445615       0.00000093      -0.00000210       0.00000022
Si       0.00000002      -0.00000007      -0.00000008       0.00000064      -0.00000079       0.00000049
Se       1.93901241       1.37108948       6.62297064       0.00377905       0.00267361       0.00000004
Se       5.70853493       4.03654382       6.62297026      -0.00378081      -0.00267404      -0.00000003
Se       4.76615444       1.37108898       4.99071968      -0.00189073       0.00267290       0.00327463
Se       2.88139318       4.03654367       8.25522179       0.00188946      -0.00267261      -0.00327140
Se       2.88139323       4.03654430       4.99071965       0.00188954      -0.00267393       0.00327432
Se       4.76615391       1.37108897       8.25522192      -0.00189257       0.00267550      -0.00327334
