9
Lattice="6.635065530113086 4.9516436427742677e-08 3.8307567833492997 2.2116885534650104 6.2555997430013965 3.830756788990978 -1.7751917502772257e-08 -5.6428960404433e-09 7.661513597445795" Properties=species:S:1:pos:R:3:forces:R:3 energy=-24.240680694580078 free_energy=-24.240680694580078 stress="0.0001544882688904181 1.096783730503148e-08 -5.25003707174676e-10 1.096783730503148e-08 0.0001544593251310289 2.7015385484219223e-09 -5.25003707174676e-10 2.7015385484219223e-09 0.00015446355973836035" pbc="T T T"
Bi       2.21168860       1.56390011       3.83075734       0.00000098       0.00000051       0.00000267
Bi       6.63506589       4.69169966      11.49227073       0.00000253      -0.00000183      -0.00000026
Sr       0.00000015       0.00000003       0.00000010       0.00000122       0.00000051      -0.00000132
Br       2.36628068       1.67321332       7.66151341      -0.00079166      -0.00055755      -0.00000208
Br       6.48047312       4.58238654       7.66151361       0.00079156       0.00055929      -0.00000019
Br       5.45192524       1.67321299       5.88001552       0.00039248      -0.00055695      -0.00068371
Br       3.39482869       4.58238653       9.44301116      -0.00039621       0.00055840       0.00068412
Br       3.39482861       4.58238684       5.88001572      -0.00039570       0.00055696      -0.00068241
Br       5.45192522       1.67321315       9.44301106       0.00039479      -0.00055938       0.00068330
