9
Lattice="6.280466149325397 -8.781305144331439e-08 3.62602879168959 2.093488697279118 5.921280577110976 3.626028681482224 -5.736869039825604e-08 -1.7554172403245373e-07 7.2520576827446686" Properties=species:S:1:pos:R:3:forces:R:3 energy=-27.69426918029785 free_energy=-27.69426918029785 stress="8.685309148859233e-05 1.0532307470612068e-08 1.643851454957712e-08 1.0532307470612068e-08 8.685306238476187e-05 -1.167829122294961e-08 1.643851454957712e-08 -1.167829122294961e-08 8.68269125930965e-05" pbc="T T T"
Bi       2.09348805       1.48032013       3.62602923      -0.00000253      -0.00000038       0.00000038
Bi       6.28046619       4.44096007      10.87808539      -0.00000041       0.00000036      -0.00000448
Sr       0.00000014       0.00000008       0.00000020      -0.00000482       0.00000098      -0.00000163
Cl       2.23049150       1.57719521       7.25205770       0.00036707       0.00025977      -0.00000127
Cl       6.14346320       4.34408473       7.25205776      -0.00036298      -0.00025723       0.00000124
Cl       5.16522091       1.57719515       5.55769115      -0.00018306       0.00025810       0.00031761
Cl       3.20873457       4.34408490       8.94642414       0.00018437      -0.00025912      -0.00031726
Cl       3.20873409       4.34408499       5.55769100       0.00018187      -0.00025999       0.00031872
Cl       5.16522049       1.57719597       8.94642399      -0.00017951       0.00025746      -0.00031331
