9
Lattice="6.383738513663626 1.3204708595551773e-07 3.6856534586239413 2.1279129035341335 6.018647003769947 3.6856535605532557 1.8418714060692865e-08 1.3786141437604476e-07 7.3713068853457075" Properties=species:S:1:pos:R:3:forces:R:3 energy=-27.198497772216797 free_energy=-27.198497772216797 stress="-5.0933675083797425e-05 -3.734456743842429e-09 6.046679601467986e-09 -3.734456743842429e-09 -5.093601066619158e-05 -6.4143885758483066e-09 6.046679601467986e-09 -6.4143885758483066e-09 -5.094920925330371e-05" pbc="T T T"
Bi       2.12791179       1.50466196       3.68565370      -0.00000076       0.00000013       0.00000053
Bi       6.38373905       4.51398489      11.05696167      -0.00000025      -0.00000069       0.00000193
Sb       0.00000127      -0.00000028       0.00000023      -0.00001373       0.00000015      -0.00000117
Cl       2.09279514       1.47982986       7.37130711       0.00270754       0.00191428       0.00000002
Cl       6.41885532       4.53881745       7.37130660      -0.00269967      -0.00191006      -0.00000099
Cl       5.33734083       1.47983047       5.49806750      -0.00135010       0.00191174       0.00234134
Cl       3.17431081       4.53881718       9.24454591       0.00135302      -0.00191318      -0.00234358
Cl       3.17431079       4.53881715       5.49806731       0.00135355      -0.00191280       0.00234282
Cl       5.33734078       1.47983047       9.24454565      -0.00134960       0.00191051      -0.00234088
