9
Lattice="6.976232179725602 3.4546883878417e-08 4.027729422365299 2.3254107472168872 6.577254871360594 4.0277294430277095 -5.895925691578156e-08 -1.6384320937359154e-08 8.05545894685108" Properties=species:S:1:pos:R:3:forces:R:3 energy=-21.608848571777344 free_energy=-21.608848571777344 stress="7.075886969687417e-05 -4.6346002036123934e-10 9.937176637109246e-10 -4.6346002036123934e-10 7.076936890371144e-05 7.943999347226338e-10 9.937176637109246e-10 7.943999347226338e-10 7.076287874951959e-05" pbc="T T T"
Bi       2.32541059       1.64431383       4.02772939      -0.00000016       0.00000011       0.00000005
Bi       6.97623202       4.93294115      12.08318829      -0.00000046      -0.00000042      -0.00000056
Sn      -0.00000013      -0.00000018       0.00000001       0.00000009       0.00000065      -0.00000101
I        2.40576518       1.70113288       8.05545898      -0.00223929      -0.00158275      -0.00000005
I        6.89587797       4.87612219       8.05545891       0.00223920       0.00158257       0.00000030
I        5.77334953       1.70113295       6.11118313       0.00111926      -0.00158282      -0.00193904
I        3.52829339       4.87612189       9.99973463      -0.00111903       0.00158310       0.00193939
I        3.52829330       4.87612201       6.11118306      -0.00111934       0.00158252      -0.00193886
I        5.77334961       1.70113282       9.99973484       0.00111971      -0.00158297       0.00193974
