9
Lattice="6.487638240991001 -6.561532939986586e-08 3.7456396994993866 2.1625460337662594 6.116604059566235 3.7456396730013717 -1.5658236436725336e-08 -4.3525388308923834e-08 7.491279426119627" Properties=species:S:1:pos:R:3:forces:R:3 energy=-20.917173385620117 free_energy=-20.917173385620117 stress="9.414856322109699e-05 5.300533789664996e-09 2.5980613216347592e-09 5.300533789664996e-09 9.416261309524998e-05 9.193488637038172e-09 2.5980613216347592e-09 9.193488637038172e-09 9.416494140168652e-05" pbc="T T T"
Bi       2.16254602       1.52915112       3.74563972      -0.00000072      -0.00000088       0.00000001
Bi       6.48763809       4.58745234      11.23691891      -0.00000065      -0.00000220      -0.00000181
S       -0.00000017       0.00000001       0.00000014       0.00000005       0.00000064       0.00000079
Br       2.17523261       1.53812205       7.49127942      -0.00022140      -0.00015604      -0.00000025
Br       6.47495150       4.57848220       7.49127940       0.00022164       0.00015630       0.00000136
Br       5.40002185       1.53812207       5.62944651       0.00011043      -0.00015591      -0.00019184
Br       3.25016265       4.57848205       9.35311209      -0.00010944       0.00015615       0.00019209
Br       3.25016254       4.57848208       5.62944675      -0.00011063       0.00015691      -0.00019164
Br       5.40002196       1.53812187       9.35311224       0.00011079      -0.00015503       0.00019121
