9
Lattice="5.673573902618134 5.2686761655730894e-08 3.2756393607608536 1.8911913154630096 5.349097000240076 3.27563942152677 -5.8388227217784416e-08 3.3136049619219114e-08 6.551278822653099" Properties=species:S:1:pos:R:3:forces:R:3 energy=-35.309654235839844 free_energy=-35.309654235839844 stress="-6.922874308656901e-05 9.546828216855374e-09 2.5181170926202867e-08 9.546828216855374e-09 -6.92674657329917e-05 -9.367636444324035e-09 2.5181170926202867e-08 -9.367636444324035e-09 -6.927070353413001e-05" pbc="T T T"
Bi       1.89119095       1.33727378       3.27563879      -0.00000123      -0.00000279      -0.00000430
Bi       5.67357360       4.01182350       9.82691710      -0.00000364       0.00000565      -0.00000760
Sn       0.00000009       0.00000018       0.00000024      -0.00000345      -0.00000043      -0.00000110
S        2.00740301       1.41944785       6.55127890       0.00056425       0.00039449       0.00000048
S        5.55736192       3.92964897       6.55127917      -0.00056100      -0.00039300       0.00000457
S        4.66987270       1.41944800       5.01410161      -0.00028186       0.00039178       0.00049105
S        2.89489291       3.92964848       8.08845669       0.00028511      -0.00040132      -0.00048473
S        2.89489284       3.92964918       5.01410156       0.00028189      -0.00039357       0.00049073
S        4.66987259       1.41944846       8.08845637      -0.00028007       0.00039926      -0.00048910
