9
Lattice="6.163248731218048 2.947854210604663e-07 3.5583539714545465 2.0544166513074202 5.810766508391329 3.558353746908483 3.6631956935798623e-07 -1.5984533049703e-08 7.116707308425033" Properties=species:S:1:pos:R:3:forces:R:3 energy=-34.3753547668457 free_energy=-34.3753547668457 stress="0.0003334898501634598 -1.3283869115809921e-08 -9.868207584418087e-09 -1.3283869115809921e-08 0.0003335090004839003 -9.182675952956743e-09 -9.868207584418087e-09 -9.182675952956743e-09 0.00033352739410474896" pbc="T T T"
Bi       2.05441571       1.45269084       3.55835276      -0.00000143      -0.00000132      -0.00000162
Bi       6.16325005       4.35807466      10.67506262       0.00000103      -0.00000119       0.00000088
Sc       0.00000001       0.00000089       0.00000028      -0.00000019      -0.00000887      -0.00000608
Cl       2.02131895       1.42928787       7.11670736      -0.00255178      -0.00180359       0.00000085
Cl       6.19634650       4.38147900       7.11670773       0.00255583       0.00180879      -0.00000141
Cl       5.15258997       1.42928814       5.30886723       0.00127635      -0.00180285      -0.00220993
Cl       3.06507642       4.38147812       8.92454727      -0.00128108       0.00180951       0.00221601
Cl       3.06507557       4.38147838       5.30886765      -0.00127754       0.00180767      -0.00221345
Cl       5.15258980       1.42928927       8.92454723       0.00127872      -0.00180805       0.00221474
