9
Lattice="6.629560692094008 6.598632817480672e-08 3.827578716363747 2.2098535878656413 6.25040997463831 3.82757878283676 -9.562414965695501e-09 7.465083351461778e-08 7.655157449290082" Properties=species:S:1:pos:R:3:forces:R:3 energy=-23.99217987060547 free_energy=-23.99217987060547 stress="2.3203881937661208e-05 1.3647464269794796e-09 -2.1545616402107726e-09 1.3647464269794796e-09 2.319934355909936e-05 5.762546884113817e-09 -2.1545616402107726e-09 5.762546884113817e-09 2.3207521735457703e-05" pbc="T T T"
Bi       2.20985349       1.56260219       3.82757836      -0.00000067      -0.00000105      -0.00000054
Bi       6.62956088       4.68780809      11.48273665       0.00000042       0.00000077       0.00000062
Sb      -0.00000012      -0.00000067       0.00000059      -0.00000103       0.00000496      -0.00000909
Br       2.22433750       1.57284418       7.65515750      -0.00116226      -0.00082199       0.00000040
Br       6.61507705       4.67756622       7.65515734       0.00116067       0.00082070       0.00000025
Br       5.51739199       1.57284389       5.75391140       0.00058078      -0.00082099      -0.00100514
Br       3.32202224       4.67756607       9.55640347      -0.00058131       0.00082241       0.00100709
Br       3.32202218       4.67756648       5.75391124      -0.00057860       0.00081876      -0.00100207
Br       5.51739185       1.57284401       9.55640316       0.00058199      -0.00082355       0.00100844
