9
Lattice="6.74653909806114 -1.3426554917769271e-07 3.895116255967849 2.2488462595111347 6.360697962954146 3.895116221192626 -7.3709622513382135e-09 -4.7802834152699984e-08 7.790232524702585" Properties=species:S:1:pos:R:3:forces:R:3 energy=-19.098121643066406 free_energy=-19.098121643066406 stress="-3.0772454920224845e-05 -4.6800470165919705e-09 1.2203308363822885e-09 -4.6800470165919705e-09 -3.076091888942756e-05 1.060942889097305e-09 1.2203308363822885e-09 1.060942889097305e-09 -3.076775828958489e-05" pbc="T T T"
Bi       2.24884631       1.59017399       3.89511643       0.00000016      -0.00000089       0.00000012
Bi       6.74653915       4.77052388      11.68534854       0.00000036       0.00000115      -0.00000104
S        0.00000009       0.00000023      -0.00000008      -0.00000018      -0.00000003       0.00000014
I        2.35758340       1.66706298       7.79023248      -0.00063963      -0.00045243       0.00000001
I        6.63780176       4.69363464       7.79023257       0.00064008       0.00045315       0.00000029
I        5.56774714       1.66706309       5.93684369       0.00031982      -0.00045344      -0.00055425
I        3.42763819       4.69363463       9.64362129      -0.00032024       0.00045284       0.00055441
I        3.42763808       4.69363454       5.93684367      -0.00032056       0.00045288      -0.00055406
I        5.56774730       1.66706311       9.64362142       0.00032017      -0.00045322       0.00055443
