9
Lattice="4.766337963987892 2.2789225920696596e-09 2.751846622597834 1.588779329450226 4.493746299938522 2.7518466122534146 1.1193108363617576e-07 6.647796162934308e-08 5.503693051325312" Properties=species:S:1:pos:R:3:forces:R:3 energy=-49.629066467285156 free_energy=-49.629066467285156 stress="-0.00010777918214444071 1.2750352773593931e-08 -9.282388901965533e-08 1.2750352773593931e-08 -0.00010767313506221399 9.166900127866029e-08 -9.282388901965533e-08 9.166900127866029e-08 -0.00010769833897938952" pbc="T T T"
Bi       1.58877926       1.12343633       2.75184624      -0.00000181      -0.00000222      -0.00000134
Bi       4.76633812       3.37030996       8.25554032       0.00000161       0.00000051       0.00000408
Sb      -0.00000020      -0.00000002       0.00000039       0.00001213      -0.00000256      -0.00001830
O        1.60318126       1.13362044       5.50369346      -0.00037217      -0.00026262       0.00000217
O        4.75193634       3.36012591       5.50369264       0.00036645       0.00025767      -0.00000159
O        3.96474713       1.13362037       4.14024230       0.00018165      -0.00025916      -0.00031525
O        2.39037019       3.36012623       6.86714366      -0.00018823       0.00026894       0.00032753
O        2.39036986       3.36012626       4.14024215      -0.00018325       0.00025976      -0.00031585
O        3.96474762       1.13361999       6.86714417       0.00018337      -0.00026065       0.00031811
