9
Lattice="5.977441737562772 2.0574806253389183e-08 3.4510775429664866 1.9924805909073344 5.635586061776717 3.451077556265811 2.4498847843559686e-08 3.361160040821652e-08 6.90215504349968" Properties=species:S:1:pos:R:3:forces:R:3 energy=-32.432891845703125 free_energy=-32.432891845703125 stress="2.608915019663982e-05 3.747879340210147e-09 -1.5325245517061603e-09 3.747879340210147e-09 2.6079718736582436e-05 -5.669906322225415e-09 -1.5325245517061603e-09 -5.669906322225415e-09 2.609453076729551e-05" pbc="T T T"
Bi       1.99248039       1.40889661       3.45107720      -0.00000033       0.00000060      -0.00000086
Bi       5.97744224       4.22668989      10.35323361       0.00000114       0.00000031       0.00000316
Sn      -0.00000003      -0.00000013      -0.00000028       0.00000110      -0.00000048       0.00000402
Se       2.13384480       1.50885607       6.90215518       0.00216607       0.00153217       0.00000046
Se       5.83607764       4.12673020       6.90215465      -0.00216559      -0.00153198      -0.00000209
Se       4.91051949       1.50885606       5.29904127      -0.00108190       0.00153079       0.00187470
Se       3.05940264       4.12672986       8.50526898       0.00108207      -0.00153266      -0.00187693
Se       3.05940296       4.12672999       5.29904116       0.00108124      -0.00153022       0.00187423
Se       4.91051928       1.50885590       8.50526879      -0.00108397       0.00153156      -0.00187683
