9
Lattice="4.767343088846841 -5.783018225071924e-08 2.752426698090457 1.5891143325314308 4.494693892779244 2.7524266563388715 -2.5465883514624635e-08 -6.914211048163438e-08 5.504853440289092" Properties=species:S:1:pos:R:3:forces:R:3 energy=-47.229270935058594 free_energy=-47.229270935058594 stress="-3.843644299195148e-05 3.463390996216731e-08 1.7969346899349148e-08 3.463390996216731e-08 -3.8412406865973026e-05 1.9678104479226022e-08 1.7969346899349148e-08 1.9678104479226022e-08 -3.848533015116118e-05" pbc="T T T"
Bi       1.58911470       1.12367391       2.75242626       0.00000410       0.00000175      -0.00000499
Bi       4.76734345       3.37102044       8.25727972      -0.00000007       0.00000245      -0.00000410
Sn       0.00000007       0.00000026      -0.00000045      -0.00000229      -0.00000762       0.00001133
O        1.66850608       1.17981170       5.50485357      -0.00035238      -0.00024998       0.00000215
O        4.68795069       3.31488196       5.50485359       0.00036085       0.00025529       0.00000124
O        3.93308998       1.17981163       4.19739515       0.00017780      -0.00025409      -0.00030720
O        2.42336725       3.31488157       6.81231194      -0.00017941       0.00024772       0.00030780
O        2.42336711       3.31488189       4.19739512      -0.00018227       0.00025332      -0.00030982
O        3.93309009       1.17981164       6.81231211       0.00017411      -0.00024813       0.00030386
