9
Lattice="5.227933078384124 -7.141007797149813e-08 3.0183485938962114 1.7426442984267405 4.928942633196482 3.0183485829991215 -3.6246553694157357e-07 -2.696480069093561e-07 6.0366978156011495" Properties=species:S:1:pos:R:3:forces:R:3 energy=-38.29473114013672 free_energy=-38.29473114013672 stress="0.0005507735186256468 -6.946684294462102e-08 1.8937770107640972e-07 -6.946684294462102e-08 0.0005507031455636024 1.4225174993498513e-07 1.8937770107640972e-07 1.4225174993498513e-07 0.0005503594875335693" pbc="T T T"
Bi       1.74264182       1.23223580       3.01834989      -0.00001984      -0.00000092       0.00001053
Bi       5.22793397       3.69670821       9.05504348       0.00001133       0.00001068      -0.00002421
Sr      -0.00000031       0.00000006       0.00000029       0.00000732      -0.00000243      -0.00000596
F        1.84088158       1.30169951       6.03669730       0.00069261       0.00048710      -0.00000497
F        5.12969594       3.62724193       6.03669863      -0.00069009      -0.00049688       0.00001274
F        4.30749230       1.30169860       4.61259941      -0.00035010       0.00048656       0.00061521
F        2.66308527       3.62724308       7.46079611       0.00034989      -0.00048620      -0.00060038
F        2.66308409       3.62724283       4.61259963       0.00033795      -0.00049112       0.00060803
F        4.30749317       1.30169904       7.46079518      -0.00033916       0.00049303      -0.00061095
