9
Lattice="5.966991105916963 -9.237808272641383e-08 3.4450439873082574 1.9889969616031573 5.625733011357709 3.4450439641119472 -7.142100920327351e-09 -3.345980210152483e-08 6.890087986986993" Properties=species:S:1:pos:R:3:forces:R:3 energy=-32.21886444091797 free_energy=-32.21886444091797 stress="-6.0124693845864385e-06 -1.5142383347210853e-08 1.6191224361250534e-08 -1.5142383347210853e-08 -5.948322268523043e-06 1.7988098122145857e-08 1.6191224361250534e-08 1.7988098122145857e-08 -5.9637009144353215e-06" pbc="T T T"
Bi       1.98899772       1.40643172       3.44504387       0.00000268      -0.00000649      -0.00000057
Bi       5.96699054       4.21929996      10.33513101      -0.00000237       0.00000098      -0.00000546
Sb      -0.00000021      -0.00000017       0.00000015       0.00000167       0.00000229      -0.00000546
Se       2.13329614       1.50846795       6.89008801      -0.00015352      -0.00010913       0.00000095
Se       5.82269182       4.11726558       6.89008824       0.00014938       0.00011002       0.00000185
Se       4.90034288       1.50846788       5.29253292       0.00007630      -0.00010883      -0.00013299
Se       3.05564555       4.11726488       8.48764325      -0.00007600       0.00011127       0.00013556
Se       3.05564495       4.11726524       5.29253296      -0.00007675       0.00010934      -0.00013115
Se       4.90034283       1.50846851       8.48764333       0.00007857      -0.00010963       0.00013729
