9
Lattice="6.459964632314724 -1.660913170733742e-07 3.729662189311832 2.1533213917367653 6.090512833376402 3.729662181995093 -1.2627039138542579e-08 -1.7889781151686514e-08 7.45932440049433" Properties=species:S:1:pos:R:3:forces:R:3 energy=-28.826292037963867 free_energy=-28.826292037963867 stress="0.00028401074814610183 2.334089366229364e-09 5.009495485097659e-09 2.334089366229364e-09 0.00028400460723787546 -4.3232826207884045e-09 5.009495485097659e-09 -4.3232826207884045e-09 0.0002840132510755211" pbc="T T T"
Bi       2.15332238       1.52262761       3.72966178       0.00000416      -0.00000260      -0.00000283
Bi       6.45996436       4.56788493      11.18898685      -0.00000092       0.00000215      -0.00000043
Sn       0.00000043       0.00000045      -0.00000068      -0.00000343      -0.00000401       0.00000274
Te       2.34348617       1.65709488       7.45932462      -0.00179175      -0.00126793      -0.00000015
Te       6.26979948       4.43341766       7.45932464       0.00179435       0.00126982      -0.00000071
Te       5.28822128       1.65709420       5.75918087       0.00089541      -0.00126782      -0.00155245
Te       3.32506473       4.43341777       9.15946778      -0.00089715       0.00126971       0.00155409
Te       3.32506458       4.43341815       5.75918097      -0.00089536       0.00126901      -0.00155401
Te       5.28822063       1.65709494       9.15946823       0.00089462      -0.00126839       0.00155373
