9
Lattice="5.57563691788718 4.281076844467802e-08 3.2190954531553397 1.8585456264869544 5.2567608123294205 3.2190955452505285 -5.1572009028984805e-08 7.632612666733763e-08 6.438190995636026" Properties=species:S:1:pos:R:3:forces:R:3 energy=-33.535491943359375 free_energy=-33.535491943359375 stress="0.00018303794786334038 8.217408975497165e-10 1.302098162625498e-08 8.217408975497165e-10 0.0001830680703278631 3.76630069354178e-08 1.302098162625498e-08 3.76630069354178e-08 0.00018305335834156722" pbc="T T T"
Bi       1.85854480       1.31419186       3.21909359      -0.00000532       0.00000926      -0.00001371
Bi       5.57563529       3.94257021       9.65728874      -0.00000916      -0.00000298       0.00001528
Se       0.00000011       0.00000096      -0.00000038      -0.00000249      -0.00001266       0.00000292
S        1.88755574       1.33470325       6.43819162      -0.00126064      -0.00089470       0.00000690
S        5.54662648       3.92205636       6.43819010       0.00127575       0.00089391      -0.00000797
S        4.63186000       1.33470413       4.85376675       0.00064027      -0.00089057      -0.00109628
S        2.80232359       3.92205637       8.02261579      -0.00063801       0.00089166       0.00110576
S        2.80232455       3.92205739       4.85376675      -0.00062956       0.00090037      -0.00110558
S        4.63185919       1.33470324       8.02261513       0.00062919      -0.00089450       0.00109276
