9
Lattice="6.552550288776763 2.7895104816233105e-08 3.783116574764482 2.1841834352464677 6.177803682854006 3.783116610523573 -3.1921019243236424e-08 2.1224209319172492e-08 7.566233204817837" Properties=species:S:1:pos:R:3:forces:R:3 energy=-24.491350173950195 free_energy=-24.491350173950195 stress="0.00010725300671765581 -9.284682356280882e-09 -1.0376512982190889e-09 -9.284682356280882e-09 0.00010727612971095368 -1.894636003640926e-09 -1.0376512982190889e-09 -1.894636003640926e-09 0.00010725422907853499" pbc="T T T"
Bi       2.18418379       1.54445085       3.78311643       0.00000079       0.00000039      -0.00000065
Bi       6.55255025       4.63335296      11.34934982       0.00000029      -0.00000033       0.00000004
Sn      -0.00000002       0.00000022       0.00000013       0.00000126      -0.00000071      -0.00000118
Br       2.16626476       1.53178056       7.56623322      -0.00022627      -0.00015932      -0.00000012
Br       6.57046875       4.64602301       7.56623323       0.00022534       0.00016077      -0.00000002
Br       5.46941789       1.53178043       5.65915687       0.00011212      -0.00015958      -0.00019497
Br       3.26731582       4.64602312       9.47330949      -0.00011386       0.00015964       0.00019549
Br       3.26731575       4.64602322       5.65915695      -0.00011314       0.00015897      -0.00019485
Br       5.46941780       1.53178055       9.47330943       0.00011343      -0.00015980       0.00019628
