9
Lattice="4.625415999871563 -6.627040730284582e-08 2.670485162425041 1.5418052826836042 4.360884076194294 2.670485141859662 8.654342148401798e-09 -1.9067787363003067e-08 5.340970309860305" Properties=species:S:1:pos:R:3:forces:R:3 energy=-34.66498565673828 free_energy=-34.66498565673828 stress="-6.442933226935565e-05 -1.8501333798326414e-08 -7.874356100501245e-08 -1.8501333798326414e-08 -6.458462303271517e-05 4.713171364301161e-08 -7.874356100501245e-08 4.713171364301161e-08 -6.42649392830208e-05" pbc="T T T"
Bi       1.54180519       1.09022127       2.67048403      -0.00000616       0.00000462      -0.00001449
Bi       4.62541483       3.27066175       8.01145518      -0.00001579      -0.00001780      -0.00000145
S        0.00000022      -0.00000010       0.00000011       0.00000081       0.00000578       0.00000360
F        1.69545295       1.19886638       5.34097065      -0.00602287      -0.00425822       0.00000547
F        4.47176834       3.16201775       5.34097028       0.00602508       0.00425619      -0.00000072
F        3.77768968       1.19886684       4.13879045       0.00302011      -0.00425529      -0.00522184
F        2.38953208       3.16201736       6.54315063      -0.00300992       0.00425678       0.00522465
F        2.38953218       3.16201785       4.13879052      -0.00300765       0.00426042      -0.00521892
F        3.77768972       1.19886684       6.54315055       0.00301656      -0.00425303       0.00522310
