9
Lattice="6.277420555788858 7.662280613881913e-08 3.6242703966647905 2.0924735853323546 5.918408765989183 3.624270406198974 2.982488097183329e-08 3.276634795421484e-08 7.248540741671447" Properties=species:S:1:pos:R:3:forces:R:3 energy=-30.023174285888672 free_energy=-30.023174285888672 stress="-0.00010932727309409529 2.1816537465468855e-10 -2.6165576372250143e-09 2.1816537465468855e-10 -0.00010932280565612018 3.490639333136869e-09 -2.6165576372250143e-09 3.490639333136869e-09 -0.000109336971945595" pbc="T T T"
Bi       2.09247362       1.47960238       3.62427050      -0.00000065       0.00000062       0.00000072
Bi       6.27742072       4.43880551      10.87281026       0.00000023      -0.00000474      -0.00000326
Si       0.00000007      -0.00000010      -0.00000011      -0.00000019      -0.00000001      -0.00000078
Te       2.14701176       1.51816733       7.24854071       0.00806753       0.00570603       0.00000039
Te       6.22288182       4.40024224       7.24854133      -0.00806747      -0.00570411       0.00000089
Te       5.20391477       1.51816696       5.48363724      -0.00403376       0.00570551       0.00698673
Te       3.16597964       4.40024175       9.01344437       0.00403322      -0.00570406      -0.00698493
Te       3.16597935       4.40024191       5.48363753       0.00403345      -0.00570503       0.00698577
Te       5.20391494       1.51816752       9.01344435      -0.00403234       0.00570572      -0.00698546
