9
Lattice="6.519003806847695 3.842970173166745e-08 3.7637485394342494 2.17300126736291 6.14617567722984 3.7637486049373687 -1.7218576099758634e-08 6.804915292936614e-08 7.5274971086919225" Properties=species:S:1:pos:R:3:forces:R:3 energy=-30.489727020263672 free_energy=-30.489727020263672 stress="0.0001805987412808463 8.571706677784618e-10 -3.2499203328484327e-09 8.571706677784618e-10 0.0001805905922083184 1.8184416195055064e-09 -3.2499203328484327e-09 1.8184416195055064e-09 0.00018059663125313818" pbc="T T T"
Bi       2.17300096       1.53654399       3.76374862      -0.00000026      -0.00000113       0.00000045
Bi       6.51900383       4.60963177      11.29124582       0.00000045      -0.00000108      -0.00000054
Sc       0.00000025       0.00000077       0.00000016      -0.00000095      -0.00001090      -0.00000668
Br       2.14796296       1.51883941       7.52749709      -0.00188462      -0.00133279      -0.00000073
Br       6.54404151       4.62733636       7.52749723       0.00189079       0.00133657       0.00000019
Br       5.44502248       1.51883923       5.62393878       0.00094165      -0.00133114      -0.00163068
Br       3.24698306       4.62733608       9.43105434      -0.00094704       0.00133893       0.00163998
Br       3.24698282       4.62733637       5.62393961      -0.00094442       0.00133538      -0.00163606
Br       5.44502234       1.51883923       9.43105536       0.00094436      -0.00133394       0.00163405
