9
Lattice="6.481692920286128 -1.3662873794794517e-07 3.7422073095139097 2.160564192687759 6.110998733431028 3.7422072839825726 7.104763405022792e-10 -3.076694352204931e-08 7.484414617797272" Properties=species:S:1:pos:R:3:forces:R:3 energy=-28.718156814575195 free_energy=-28.718156814575195 stress="-3.895409463439137e-05 -1.6067591701585116e-08 1.4606303944120214e-09 -1.6067591701585116e-08 -3.895389090757817e-05 -1.3058115477804222e-08 1.4606303944120214e-09 -1.3058115477804222e-08 -3.8945880078244954e-05" pbc="T T T"
Bi       2.16056487       1.52774987       3.74220681       0.00000288       0.00000119      -0.00000152
Bi       6.48169311       4.58324899      11.22662271       0.00000183       0.00000074       0.00000351
Sb      -0.00000020      -0.00000013       0.00000002       0.00000102       0.00000031      -0.00000070
Te       2.36153225       1.66985523       7.48441455       0.00146154       0.00103305       0.00000066
Te       6.28072512       4.44114353       7.48441421      -0.00146353      -0.00103406      -0.00000199
Te       5.30092662       1.66985584       5.78735414      -0.00073080       0.00103391       0.00126554
Te       3.34133001       4.44114303       9.18147508       0.00072912      -0.00103457      -0.00126550
Te       3.34133041       4.44114281       5.78735429       0.00072997      -0.00103279       0.00126502
Te       5.30092626       1.66985511       9.18147501      -0.00073197       0.00103220      -0.00126506
