9
Lattice="6.28999634753729 -1.2007971167748965e-07 3.6315310264494007 2.0966653418321113 5.930266082587722 3.6315310162904457 1.774835180269778e-07 1.1305768677013843e-07 7.263061745488303" Properties=species:S:1:pos:R:3:forces:R:3 energy=-23.423622131347656 free_energy=-23.423622131347656 stress="-0.00021468348859343678 5.469528829848969e-09 2.2527697041141437e-08 5.469528829848969e-09 -0.0002146833430742845 5.714835271675156e-09 2.2527697041141437e-08 5.714835271675156e-09 -0.00021469050261657685" pbc="T T T"
Bi       2.09666432       1.48256553       3.63153084      -0.00000358      -0.00000228       0.00000086
Bi       6.28999452       4.44769862      10.89459711      -0.00000409      -0.00000306       0.00001092
S        0.00000032       0.00000026      -0.00000117       0.00000342       0.00000246       0.00000380
Cl       2.04466196       1.44579464       7.26306180       0.00106633       0.00075302      -0.00000080
Cl       6.34200025       4.48447170       7.26306060      -0.00106785      -0.00075406      -0.00000524
Cl       5.26766602       1.44579567       5.40225994      -0.00053115       0.00075641       0.00092024
Cl       3.11899654       4.48447132       9.12386294       0.00053334      -0.00075302      -0.00092575
Cl       3.11899721       4.48447197       5.40225953       0.00053607      -0.00075316       0.00092161
Cl       5.26766639       1.44579451       9.12386362      -0.00053257       0.00075358      -0.00092560
