9
Lattice="5.732959791843557 -9.88842799170958e-09 3.3099259033009285 1.9109864977407853 5.405086501983202 3.309926059562175 -2.1194035543583055e-07 4.151569163551035e-08 6.61985217369329" Properties=species:S:1:pos:R:3:forces:R:3 energy=-34.773651123046875 free_energy=-34.773651123046875 stress="-0.0003486093773972243 -8.757377933932275e-09 -3.279318150362087e-08 -8.757377933932275e-09 -0.00034861351014114916 -8.27029200678453e-09 -3.279318150362087e-08 -8.27029200678453e-09 -0.0003486358327791095" pbc="T T T"
Bi       1.91098514       1.35127098       3.30992688      -0.00001025      -0.00000639       0.00000556
Bi       5.73295856       4.05381627       9.92978005      -0.00000491       0.00001190       0.00001211
Sb      -0.00000010       0.00000014       0.00000012      -0.00000117      -0.00000157       0.00000332
S        2.00497534       1.41773017       6.61985197       0.00427404       0.00301476      -0.00000231
S        5.63897152       3.98735540       6.61985184      -0.00426957      -0.00301723      -0.00000275
S        4.73047310       1.41773140       5.04628496      -0.00213099       0.00301884       0.00369793
S        2.91347312       3.98735593       8.19341822       0.00213316      -0.00301673      -0.00370282
S        2.91347480       3.98735544       5.04628398       0.00214107      -0.00301833       0.00369391
S        4.73047281       1.41773040       8.19341850      -0.00213127       0.00301476      -0.00370461
