9
Lattice="5.328383528225285 1.3361926873288718e-07 3.076343659454598 1.776127899333133 5.023648740340265 3.076343779634814 5.5291077834217395e-08 1.8628679196303304e-07 6.15268722314226" Properties=species:S:1:pos:R:3:forces:R:3 energy=-46.340457916259766 free_energy=-46.340457916259766 stress="-6.795441004214808e-05 1.3238327767339797e-08 5.957708992809785e-09 1.3238327767339797e-08 -6.786144513171166e-05 -4.654685881178011e-08 5.957708992809785e-09 -4.654685881178011e-08 -6.790468614781275e-05" pbc="T T T"
Bi       1.77612930       1.25591149       3.07634338       0.00000325      -0.00000095      -0.00000102
Bi       5.32838209       3.76773632       9.22903176      -0.00000333      -0.00000118       0.00000085
Sc      -0.00000001       0.00000019       0.00000002       0.00000379      -0.00000333       0.00000210
F        1.65728878       1.17188073       6.15268725       0.00152689       0.00107849       0.00000030
F        5.44722268       3.85176880       6.15268717      -0.00152859      -0.00107934      -0.00000052
F        4.49973925       1.17188073       4.51159727      -0.00076641       0.00108311       0.00132596
F        2.60477264       3.85176883       7.79377677       0.00076535      -0.00108108      -0.00132385
F        2.60477263       3.85176852       4.51159810       0.00076342      -0.00107601       0.00131878
F        4.49973869       1.17188077       7.79377702      -0.00076440       0.00108030      -0.00132269
