9
Lattice="5.570152064445953 2.533203500927234e-09 3.2159287832142365 1.8567173162443815 5.251590356416232 3.215928854157734 -5.545809556905307e-07 -3.052602793405965e-07 6.43185852699082" Properties=species:S:1:pos:R:3:forces:R:3 energy=-37.023746490478516 free_energy=-37.023746490478516 stress="-9.800354018807411e-05 -6.696983412268764e-09 4.1659767191504216e-08 -6.696983412268764e-09 -9.807528113014996e-05 -2.0727682681354054e-08 4.1659767191504216e-08 -2.0727682681354054e-08 -9.799472900340334e-05" pbc="T T T"
Bi       1.85671430       1.31290040       3.21593038      -0.00000220       0.00000271       0.00000152
Bi       5.57015156       3.93869256       9.64778192      -0.00000129      -0.00000105      -0.00000502
Sb       0.00000001      -0.00000010      -0.00000015      -0.00000341       0.00000350       0.00000064
F        1.74684170       1.23520401       6.43185823       0.00180310       0.00127473      -0.00000130
F        5.68002816       4.01638441       6.43186063      -0.00180084      -0.00127810       0.00000571
F        4.69673136       1.23520302       4.72873951      -0.00090080       0.00127444       0.00156546
F        2.73013869       4.01638546       8.13497782       0.00090638      -0.00127846      -0.00156385
F        2.73013720       4.01638553       4.72873915       0.00089827      -0.00127590       0.00156063
F        4.69673223       1.23520502       8.13497697      -0.00089896       0.00127819      -0.00156352
