9
Lattice="7.050166697293441 2.8131676055586714e-10 4.070415665459678 2.350055576633474 6.6469609650663095 4.07041564709347 4.8666006110998555e-08 1.1918091944734444e-08 8.14083124662737" Properties=species:S:1:pos:R:3:forces:R:3 energy=-21.5516357421875 free_energy=-21.5516357421875 stress="5.709479592042044e-05 1.025788876063416e-08 -6.100361105154661e-09 1.025788876063416e-08 5.7090121117653325e-05 4.063267056153563e-09 -6.100361105154661e-09 4.063267056153563e-09 5.7085580920102075e-05" pbc="T T T"
Bi       2.35005587       1.66173996       4.07041564      -0.00000017      -0.00000063       0.00000027
Bi       7.05016676       4.98522077      12.21124721      -0.00000000      -0.00000003       0.00000088
Sb      -0.00000031      -0.00000058       0.00000087       0.00000133       0.00000452      -0.00000644
I        2.43225400       1.71986340       8.14083127      -0.00058300      -0.00041222      -0.00000004
I        6.96796865       4.92709797       8.14083126       0.00058062       0.00041068      -0.00000063
I        5.83403973       1.71986320       6.17680920       0.00029005      -0.00041000      -0.00050265
I        3.56618270       4.92709761      10.10485282      -0.00029114       0.00041141       0.00050399
I        3.56618240       4.92709802       6.17680899      -0.00028872       0.00040839      -0.00050039
I        5.83403950       1.71986355      10.10485295       0.00029105      -0.00041213       0.00050499
