9
Lattice="5.817532369386055 -2.522908939425315e-07 3.3587538283566714 1.939177398918222 5.484821153797492 3.3587535160361397 1.8682195038204514e-07 -2.504098921842889e-07 6.717507333128385" Properties=species:S:1:pos:R:3:forces:R:3 energy=-45.91957473754883 free_energy=-45.91957473754883 stress="-3.4558470360934734e-05 4.5580372809439496e-10 4.544115483895439e-08 4.5580372809439496e-10 -3.459863364696503e-05 -4.706619805006085e-08 4.544115483895439e-08 -4.706619805006085e-08 -3.456629565334879e-05" pbc="T T T"
Bi       1.93917710       1.37120369       3.35874994      -0.00000008      -0.00000035       0.00000058
Bi       5.81753067       4.11361779      10.07626465       0.00000025       0.00000015      -0.00000025
Ti       0.00000039      -0.00000007       0.00000003      -0.00000983       0.00000103      -0.00000382
F        1.54906348       1.09535158       6.71750863      -0.00039662      -0.00027875      -0.00000244
F        6.20764717       4.38946888       6.71750593       0.00040115       0.00028223       0.00000159
F        5.04300147       1.09535217       4.70028108       0.00019721      -0.00027960      -0.00034394
F        2.71370914       4.38946838       8.73473385      -0.00019619       0.00027902       0.00034166
F        2.71370879       4.38946865       4.70028120      -0.00020039       0.00028078      -0.00034549
F        5.04300186       1.09535159       8.73473300       0.00020448      -0.00028455       0.00035195
