9
Lattice="6.296848006545744 3.584317090842474e-07 3.6354873584872083 2.0989496362748494 5.936725198794391 3.635487422872861 -1.8701365796511345e-07 -5.3382607529817725e-08 7.270975040891524" Properties=species:S:1:pos:R:3:forces:R:3 energy=-34.136085510253906 free_energy=-34.136085510253906 stress="0.00027738173957914114 2.2335296279152317e-08 -3.94761778821362e-09 2.2335296279152317e-08 0.00027733686147257686 1.2089550693872297e-08 -3.94761778821362e-09 1.2089550693872297e-08 0.00027737359050661325" pbc="T T T"
Bi       2.09894769       1.48417966       3.63548774      -0.00000078      -0.00000031      -0.00000027
Bi       6.29684911       4.45254661      10.90646125      -0.00000026       0.00000162       0.00000009
Ti       0.00000020       0.00000160       0.00000073      -0.00000237      -0.00001914      -0.00000968
Cl       1.94148921       1.37283991       7.27097479      -0.00300471      -0.00212476       0.00000015
Cl       6.45430771       4.56388481       7.27097457       0.00301519       0.00213282       0.00000095
Cl       5.32610352       1.37284023       5.31686680       0.00150122      -0.00212435      -0.00260128
Cl       3.06969433       4.56388431       9.22508362      -0.00150700       0.00213271       0.00261075
Cl       3.06969463       4.56388525       5.31686663      -0.00150427       0.00212763      -0.00260430
Cl       5.32610342       1.37283966       9.22508311       0.00150296      -0.00212616       0.00260346
