9
Lattice="6.597444796386118 5.764855670571513e-07 3.8090369050316806 2.199148701551291 6.220130428579809 3.809037091099931 4.731227058498967e-07 5.624344431051774e-07 7.6180729905907905" Properties=species:S:1:pos:R:3:forces:R:3 energy=-37.39265823364258 free_energy=-37.39265823364258 stress="-5.029402927902993e-06 -1.8705575755006976e-08 2.7442792926990478e-08 -1.8705575755006976e-08 -5.021863216825295e-06 -1.2775137392395663e-08 2.7442792926990478e-08 -1.2775137392395663e-08 -5.018928277422674e-06" pbc="T T T"
Bi       2.19914724       1.55502964       3.80903546       0.00000037       0.00000062      -0.00000126
Bi       6.59744493       4.66510017      11.42711200      -0.00000039      -0.00000132       0.00000125
Ta       0.00000058      -0.00000009      -0.00000009      -0.00000000      -0.00000406      -0.00000082
Cl       1.93914166       1.37118083       7.61807304       0.00008458       0.00005898      -0.00000052
Cl       6.85745207       4.84895171       7.61807365      -0.00008059      -0.00005871       0.00000106
Cl       5.62787439       1.37118077       5.48838127      -0.00004232       0.00005922       0.00007465
Cl       3.16871968       4.84895086       9.74776451       0.00004080      -0.00005668      -0.00006908
Cl       3.16872020       4.84895107       5.48838354       0.00003716      -0.00005487       0.00006562
Cl       5.62787501       1.37118144       9.74776449      -0.00003949       0.00005671      -0.00007102
