9
Lattice="4.759700466949894 -9.347794818548573e-08 2.7480142846794866 1.5865667697046757 4.487488258792773 2.748014223157231 -9.484187675334296e-09 -8.205540901995357e-08 5.496028585786124" Properties=species:S:1:pos:R:3:forces:R:3 energy=-48.817832946777344 free_energy=-48.817832946777344 stress="-1.1028771496057743e-06 1.2686700756603386e-07 -6.743209013393425e-08 1.2686700756603386e-07 -1.1737168961190036e-06 7.921506295360814e-08 -6.743209013393425e-08 7.921506295360814e-08 -1.2896312000520993e-06" pbc="T T T"
Bi       1.58656704       1.12187233       2.74801455       0.00000297       0.00000187       0.00000252
Bi       4.75970089       3.36561591       8.24404394       0.00000194      -0.00000097       0.00000672
Te       0.00000012      -0.00000006       0.00000001      -0.00000551      -0.00000108       0.00000306
O        1.56218693       1.10463301       5.49602841       0.00020447       0.00014398       0.00000072
O        4.78408018       3.38285520       5.49602816      -0.00020334      -0.00014398      -0.00000563
O        3.97860670       1.10463289       4.10090744      -0.00010301       0.00014797       0.00017884
O        2.36766013       3.38285528       6.89114920       0.00010186      -0.00014666      -0.00018224
O        2.36766008       3.38285517       4.10090753       0.00010705      -0.00015047       0.00018281
O        3.97860690       1.10463263       6.89114933      -0.00010666       0.00014937      -0.00018698
