9
Lattice="6.49422401793813 6.6641328337183545e-09 3.7494419726425843 2.1647413196630647 6.122813214978857 3.7494420175592253 -2.565002337625719e-08 3.687412482636717e-08 7.498883989712302" Properties=species:S:1:pos:R:3:forces:R:3 energy=-21.34694480895996 free_energy=-21.34694480895996 stress="6.379423575708643e-05 -7.701509652235927e-09 -4.918321749869392e-09 -7.701509652235927e-09 6.378962279995903e-05 2.4603923343136103e-09 -4.918321749869392e-09 2.4603923343136103e-09 6.379393016686663e-05" pbc="T T T"
Bi       2.16474104       1.53070414       3.74944182      -0.00000185       0.00000203       0.00000018
Bi       6.49422393       4.59210994      11.24832640       0.00000046       0.00000082       0.00000138
Tl      -0.00000008       0.00000013      -0.00000053       0.00000015      -0.00000081       0.00000515
Br       2.24304747       1.58607420       7.49888393      -0.00004430      -0.00003151      -0.00000009
Br       6.41591806       4.53673883       7.49888371       0.00004528       0.00003020       0.00000009
Br       5.37270015       1.58607440       5.69197831       0.00002464      -0.00003374      -0.00004032
Br       3.28626501       4.53673890       9.30579002      -0.00002188       0.00003009       0.00003867
Br       3.28626526       4.53673871       5.69197836      -0.00002373       0.00003344      -0.00004163
Br       5.37270041       1.58607380       9.30578991       0.00002123      -0.00003055       0.00003656
