9
Lattice="5.989856098833522 -1.1449239624916294e-07 3.4582449020836696 1.9966185584176956 5.647290565616542 3.458244959672682 -1.2469981462335795e-09 6.965014392418807e-08 6.916489806327206" Properties=species:S:1:pos:R:3:forces:R:3 energy=-30.385841369628906 free_energy=-30.385841369628906 stress="-0.00033356703352183104 9.60921919812563e-09 1.179140518559052e-08 9.60921919812563e-09 -0.0003335755318403244 1.7057073975479398e-08 1.179140518559052e-08 1.7057073975479398e-08 -0.00033356621861457825" pbc="T T T"
Bi       1.99661941       1.41182326       3.45824492       0.00000332       0.00000180      -0.00000091
Bi       5.98985492       4.23546747      10.37473391      -0.00000528      -0.00000248      -0.00000520
Te       0.00000002      -0.00000001       0.00000016      -0.00000131      -0.00000079      -0.00000182
Se       2.17406913       1.53729874       6.91649004       0.00215190       0.00152034       0.00000178
Se       5.81240574       4.10999153       6.91649041      -0.00215003      -0.00152006       0.00000322
Se       4.90282133       1.53729918       5.34104365      -0.00107527       0.00152234       0.00186174
Se       3.08365336       4.10999159       8.49193604       0.00107584      -0.00152065      -0.00185924
Se       3.08365313       4.10999112       5.34104344       0.00107646      -0.00152211       0.00186061
Se       4.90282160       1.53729926       8.49193608      -0.00107548       0.00152161      -0.00186019
