9
Lattice="6.263466981536653 9.164913682329658e-08 3.616214405111822 2.087822413521822 5.905253200478808 3.6162144052239427 -1.7365406136351914e-08 -1.2141934332637598e-08 7.232428840301408" Properties=species:S:1:pos:R:3:forces:R:3 energy=-24.729976654052734 free_energy=-24.729976654052734 stress="0.00021571110119111836 -1.773089786105686e-09 9.658040589499706e-09 -1.773089786105686e-09 0.00021571981778834015 -1.0348454537734142e-08 9.658040589499706e-09 -1.0348454537734142e-08 0.00021571826073341072" pbc="T T T"
Bi       2.08782248       1.47631329       3.61621502       0.00000028       0.00000040       0.00000211
Bi       6.26346730       4.42894004      10.84864365       0.00000152      -0.00000140      -0.00000052
Tl      -0.00000032       0.00000024       0.00000024       0.00000254      -0.00000410      -0.00000486
Cl       2.14557212       1.51714883       7.23242861      -0.00053112      -0.00037555      -0.00000160
Cl       6.20571704       4.38810480       7.23242896       0.00053030       0.00037552       0.00000012
Cl       5.19068096       1.51714870       5.47433420       0.00026341      -0.00037208      -0.00045669
Cl       3.16060871       4.38810398       8.99052260      -0.00026749       0.00037821       0.00046222
Cl       3.16060855       4.38810384       5.47433475      -0.00026648       0.00037548      -0.00046149
Cl       5.19068069       1.51714940       8.99052258       0.00026710      -0.00037645       0.00046079
