9
Lattice="5.841798149314167 -2.3156695606121425e-07 3.372763865535139 1.9472658911998972 5.507700162543372 3.3727637620417315 4.081497034772133e-08 -9.789252496870609e-08 6.745527660376659" Properties=species:S:1:pos:R:3:forces:R:3 energy=-42.58268356323242 free_energy=-42.58268356323242 stress="3.690574521897361e-05 -8.263437223376968e-08 -2.351951744472558e-09 -8.263437223376968e-08 3.696855856105685e-05 -1.7526796014522006e-08 -2.351951744472558e-09 -1.7526796014522006e-08 3.7055444408906624e-05" pbc="T T T"
Bi       1.94726697       1.37692577       3.37276339       0.00000351       0.00000335      -0.00000174
Bi       5.84179813       4.13077402      10.11829251       0.00000038      -0.00000362       0.00000773
Ta      -0.00000075      -0.00000061       0.00000111       0.00000812       0.00000631      -0.00001453
Se       2.04267804       1.44439185       6.74552777      -0.00340767      -0.00240737      -0.00000051
Se       5.74638635       4.06330876       6.74552676       0.00339524       0.00240028      -0.00000364
Se       4.82045891       1.44439174       5.14177496       0.00170176      -0.00240457      -0.00295021
Se       2.96860526       4.06330756       8.34927961      -0.00170732       0.00241333       0.00295548
Se       2.96860520       4.06330832       5.14177525      -0.00170133       0.00240631      -0.00294974
Se       4.82045821       1.44439195       8.34927979       0.00170715      -0.00241403       0.00295717
