9
Lattice="5.8092859468707445 2.5136463287820213e-08 3.3539928155729637 1.936428661461032 5.477047359181955 3.353992834962793 -1.4293993905222766e-08 1.3640128037314668e-08 6.707985655903928" Properties=species:S:1:pos:R:3:forces:R:3 energy=-39.10068130493164 free_energy=-39.10068130493164 stress="-3.685973570100032e-05 -1.6179807493799103e-09 -5.412166714791056e-09 -1.6179807493799103e-09 -3.685176852741279e-05 1.8502568366329797e-08 -5.412166714791056e-09 1.8502568366329797e-08 -3.683768954942934e-05" pbc="T T T"
Bi       1.93642963       1.36926284       3.35399292       0.00000465       0.00000452       0.00000066
Bi       5.80928711       4.10778521      10.06197833       0.00000529      -0.00000242       0.00000006
Ti      -0.00000022      -0.00000020       0.00000011      -0.00000051      -0.00000246      -0.00000055
Se       2.00702534       1.41918182       6.70798551      -0.00026070      -0.00018159      -0.00000038
Se       5.73868857       4.05786548       6.70798579       0.00026162       0.00018461      -0.00000046
Se       4.80577265       1.41918159       5.09212782       0.00012848      -0.00018477      -0.00022603
Se       2.93994122       4.05786570       8.32384327      -0.00013442       0.00018420       0.00022744
Se       2.93994136       4.05786548       5.09212806      -0.00013244       0.00018308      -0.00022609
Se       4.80577266       1.41918166       8.32384341       0.00012806      -0.00018509       0.00022534
