9
Lattice="7.145022911938829 -1.2604258027523075e-07 4.125181000944777 2.3816741700637976 6.736392192351264 4.125181027066984 -4.612360363834557e-08 -6.21219846489232e-10 8.25036208177791" Properties=species:S:1:pos:R:3:forces:R:3 energy=-30.125093460083008 free_energy=-30.125093460083008 stress="0.0002166129124816507 -1.3257113629094874e-08 -2.2289772250161377e-09 -1.3257113629094874e-08 0.0002166201884392649 -5.6017035454658526e-09 -2.2289772250161377e-09 -5.6017035454658526e-09 0.00021662600920535624" pbc="T T T"
Bi       2.38167415       1.68409802       4.12518119       0.00000040      -0.00000023       0.00000138
Bi       7.14502284       5.05229390      12.37554297      -0.00000003       0.00000005      -0.00000048
Ta       0.00000023       0.00000028       0.00000106      -0.00000239      -0.00000345      -0.00001538
I        2.27221824       1.60670102       8.25036217      -0.00373223      -0.00263931      -0.00000024
I        7.25447852       5.12969087       8.25036220       0.00373656       0.00264236      -0.00000101
I        6.00891358       1.60670095       6.09298006       0.00186568      -0.00263822      -0.00323188
I        3.51778404       5.12969036      10.40774344      -0.00187214       0.00264679       0.00324106
I        3.51778344       5.12969101       6.09298029      -0.00186635       0.00263882      -0.00323328
I        6.00891300       1.60670186      10.40774306       0.00187053      -0.00264676       0.00323983
