9
Lattice="6.589756191382547 1.5092192897557873e-07 3.80459717465565 2.196585471729949 6.212881879713407 3.80459729189488 -1.0997214646644858e-07 6.582604417525573e-08 7.609194539788613" Properties=species:S:1:pos:R:3:forces:R:3 energy=-30.340417861938477 free_energy=-30.340417861938477 stress="0.00012194582086522132 2.373483809492427e-08 -1.0909650960400086e-08 2.373483809492427e-08 0.00012193077418487519 -1.868799559545664e-09 -1.0909650960400086e-08 -1.868799559545664e-09 0.00012191811401862651" pbc="T T T"
Bi       2.19658521       1.55322054       3.80459767      -0.00000055      -0.00000026       0.00000134
Bi       6.58975621       4.65966152      11.41379161      -0.00000023      -0.00000076      -0.00000068
Ti       0.00000038       0.00000048      -0.00000024      -0.00000425      -0.00000438       0.00000049
Br       2.07427817       1.46673615       7.60919448      -0.00113712      -0.00080422       0.00000020
Br       6.71206243       4.74614527       7.60919460       0.00114393       0.00080897       0.00000017
Br       5.55261730       1.46673624       5.60097462       0.00056829      -0.00080443      -0.00098535
Br       3.23372455       4.74614612       9.61741431      -0.00056881       0.00080420       0.00098503
Br       3.23372425       4.74614583       5.60097451      -0.00056890       0.00080436      -0.00098528
Br       5.55261774       1.46673628       9.61741444       0.00056775      -0.00080345       0.00098411
