9
Lattice="6.917607491623427 3.1347531260091316e-08 3.9938829226712134 2.305869192471091 6.521983487885816 3.9938829243306135 5.3093589741023283e-08 3.957518035645157e-08 7.98776575338161" Properties=species:S:1:pos:R:3:forces:R:3 energy=-33.46256637573242 free_energy=-33.46256637573242 stress="3.3204521514562657e-06 -1.888833800478551e-08 -5.513945744439752e-09 -1.888833800478551e-08 3.3449612146796426e-06 6.450166178950667e-09 -5.513945744439752e-09 6.450166178950667e-09 3.390134907022002e-06" pbc="T T T"
Bi       2.30586926       1.63049569       3.99388255      -0.00000074      -0.00000017       0.00000002
Bi       6.91760748       4.89148816      11.98164866       0.00000066       0.00000061      -0.00000024
Ta       0.00000039      -0.00000049       0.00000090      -0.00000436       0.00000601      -0.00000878
Br       2.07230909       1.46534329       7.98776586      -0.00022739      -0.00016031      -0.00000009
Br       7.15116800       5.05664008       7.98776586       0.00022677       0.00016055      -0.00000001
Br       5.88145326       1.46534382       5.78855539       0.00011492      -0.00016256      -0.00020009
Br       3.34202319       5.05664013      10.18697536      -0.00011441       0.00016247       0.00020051
Br       3.34202338       5.05664006       5.78855574      -0.00011252       0.00015919      -0.00019541
Br       5.88145304       1.46534362      10.18697584       0.00011709      -0.00016585       0.00020406
