9
Lattice="5.5271525944806585 1.5985003086950023e-07 3.1911032901652354 1.842384291210499 5.211049707332949 3.1911033900314254 1.5380723639067587e-07 2.3106877422306561e-07 6.382206313928472" Properties=species:S:1:pos:R:3:forces:R:3 energy=-42.852210998535156 free_energy=-42.852210998535156 stress="-1.0726044820330571e-05 -4.0143874890929965e-09 -2.8897565229613065e-08 -4.0143874890929965e-09 -1.0743156053649727e-05 -7.508013766255317e-09 -2.8897565229613065e-08 -7.508013766255317e-09 -1.07286759885028e-05" pbc="T T T"
Bi       1.84238671       1.30276211       3.19110363       0.00001509      -0.00000438       0.00000470
Bi       5.52715467       3.90828770       9.57330850       0.00001022       0.00000227      -0.00000624
Ti      -0.00000012       0.00000018       0.00000003      -0.00000538       0.00000149       0.00000015
S        1.91406727       1.35345067       6.38220653       0.00090422       0.00064434       0.00000064
S        5.45546871       3.85759934       6.38220710      -0.00090680      -0.00063695      -0.00000017
S        4.57011759       1.35345008       4.84873472      -0.00045949       0.00063670       0.00078128
S        2.79941823       3.85760030       7.91567822       0.00045108      -0.00063862      -0.00078784
S        2.79941719       3.85759932       4.84873457       0.00044957      -0.00064375       0.00078727
S        4.57011794       1.35345077       7.91567873      -0.00045866       0.00063896      -0.00078002
