9
Lattice="5.582707359113689 2.2916859994120444e-08 3.2231774530476787 1.8609024606795856 5.263426827792639 3.2231774772349895 -9.413085853464747e-10 2.8957657290279918e-08 6.446354907725667" Properties=species:S:1:pos:R:3:forces:R:3 energy=-46.772708892822266 free_energy=-46.772708892822266 stress="-0.0001748494541971013 -1.19039542667565e-08 -1.4506412071568775e-08 -1.19039542667565e-08 -0.0001748409413266927 -1.886777845072629e-08 -1.4506412071568775e-08 -1.886777845072629e-08 -0.00017484049021732062" pbc="T T T"
Bi       1.86090259       1.31585798       3.22317770       0.00000045       0.00000649       0.00000214
Bi       5.58270732       3.94756876       9.66953249       0.00000148      -0.00000645       0.00000222
Ta       0.00000025       0.00000015       0.00000042      -0.00000528      -0.00000213      -0.00000758
S        1.95028217       1.37905839       6.44635486      -0.00123659      -0.00087200      -0.00000026
S        5.49332732       3.88436837       6.44635447       0.00124247       0.00087553      -0.00000370
S        4.60756612       1.37905815       4.91217149       0.00061643      -0.00087151      -0.00107210
S        2.83604400       3.88436851       7.98053824      -0.00062058       0.00087493       0.00107508
S        2.83604338       3.88436860       4.91217162      -0.00062029       0.00087179      -0.00107208
S        4.60756613       1.37905858       7.98053799       0.00062199      -0.00087664       0.00107617
