9
Lattice="4.77660161303195 -1.8343403807616441e-07 2.757772220010498 1.5922004328504753 4.503422851837418 2.7577721020293806 4.226512013949465e-08 -1.1461079968272967e-07 5.5155443668156146" Properties=species:S:1:pos:R:3:forces:R:3 energy=-61.1436653137207 free_energy=-61.1436653137207 stress="-8.039673411985859e-05 4.4190180403802515e-09 5.918355805434317e-10 4.4190180403802515e-09 -8.039965177886188e-05 3.541178017485436e-08 5.918355805434317e-10 3.541178017485436e-08 -8.03905277280137e-05" pbc="T T T"
Bi       1.59220144       1.12585507       2.75777266       0.00000701      -0.00000163       0.00000431
Bi       4.77660201       3.37756720       8.27331714       0.00000214      -0.00000150       0.00000656
Ta      -0.00000007      -0.00000010      -0.00000007       0.00000435       0.00000031       0.00000262
O        1.60288552       1.13341162       5.51554432      -0.00094527      -0.00067031      -0.00000262
O        4.76591618       3.37001132       5.51554390       0.00094014       0.00067079      -0.00000280
O        3.97515850       1.13341144       4.14591188       0.00046831      -0.00067055      -0.00082189
O        2.39364307       3.37001140       6.88517629      -0.00047320       0.00067329       0.00081766
O        2.39364334       3.37001112       4.14591183      -0.00047189       0.00066775      -0.00082028
O        3.97515834       1.13341095       6.88517670       0.00046805      -0.00066912       0.00081652
