9
Lattice="7.042450251075514 -1.4356248415800723e-07 4.0659606177797984 2.34748330879585 6.639685739095143 4.065960570802044 -5.789946185755728e-10 -5.794525796183762e-08 8.131921236562567" Properties=species:S:1:pos:R:3:forces:R:3 energy=-27.467180252075195 free_energy=-27.467180252075195 stress="8.585384057369083e-05 -2.104621188436795e-08 4.1824479990459906e-10 -2.104621188436795e-08 8.585175237385556e-05 2.4276899934783103e-10 4.1824479990459906e-10 2.4276899934783103e-10 8.585979958297685e-05" pbc="T T T"
Bi       2.34748349       1.65992156       4.06596053       0.00000026       0.00000058       0.00000016
Bi       7.04245004       4.97976399      12.19788231       0.00000003      -0.00000035       0.00000055
Ti      -0.00000020      -0.00000012       0.00000089       0.00000037       0.00000134      -0.00000573
I        2.24455477       1.58713969       8.13192112      -0.00035380      -0.00024961       0.00000010
I        7.14537903       5.05254593       8.13192104       0.00035238       0.00024880      -0.00000042
I        5.92017272       1.58713992       6.00980186       0.00017735      -0.00024984      -0.00030577
I        3.46976099       5.05254542      10.25403996      -0.00017834       0.00025129       0.00030796
I        3.46976101       5.05254559       6.00980207      -0.00017706       0.00025030      -0.00030606
I        5.92017239       1.58714016      10.25403994       0.00017886      -0.00025239       0.00030927
