9
Lattice="4.663415824346198 1.2984185130257087e-08 2.692424460416512 1.5544719483269978 4.396710517925926 2.692424469706077 1.6724153783374075e-07 1.2963503324358348e-07 5.3848486311621055" Properties=species:S:1:pos:R:3:forces:R:3 energy=-55.97985076904297 free_energy=-55.97985076904297 stress="-0.00024843684514053166 -1.580664310552038e-08 -4.4796671261337906e-08 -1.580664310552038e-08 -0.00024826257140375674 -2.698086376540232e-08 -4.4796671261337906e-08 -2.698086376540232e-08 -0.0002485636796336621" pbc="T T T"
Bi       1.55447074       1.09917715       2.69242402      -0.00000677      -0.00000367      -0.00000351
Bi       4.66341575       3.29753374       8.07727339      -0.00000416       0.00000436       0.00000324
Ti      -0.00000021      -0.00000028       0.00000043      -0.00000180       0.00000246      -0.00000179
O        1.57560509       1.11412036       5.38484915      -0.00023127      -0.00016606      -0.00000086
O        4.64228338       3.28259011       5.38484879       0.00023162       0.00016361      -0.00000058
O        3.87561443       1.11412031       4.05693822       0.00011891      -0.00016350      -0.00019687
O        2.34227427       3.28258986       6.71275971      -0.00011462       0.00016659       0.00019842
O        2.34227476       3.28259055       4.05693780      -0.00011277       0.00016308      -0.00019723
O        3.87561365       1.11412085       6.71275918       0.00012124      -0.00016654       0.00019974
