9
Lattice="5.793043145958362 9.880581154995318e-08 3.3446153417992353 1.931014426784145 5.461733587705695 3.344615425556 -4.9663924202931786e-08 6.746300546540164e-08 6.689230769618944" Properties=species:S:1:pos:R:3:forces:R:3 energy=-32.87740707397461 free_energy=-32.87740707397461 stress="-9.070889791473746e-05 -4.091487681989747e-08 -1.2393678083810755e-08 -4.091487681989747e-08 -9.068648796528578e-05 -2.1493908874958834e-08 -1.2393678083810755e-08 -2.1493908874958834e-08 -9.067729843081906e-05" pbc="T T T"
Bi       1.93101644       1.36543327       3.34461557       0.00001193      -0.00000220       0.00000148
Bi       5.79304245       4.09630139      10.03384468      -0.00000185       0.00000744      -0.00000847
Te      -0.00000052      -0.00000035       0.00000021       0.00001423       0.00000984      -0.00000407
S        1.96121477       1.38678796       6.68923142       0.00161672       0.00113831       0.00000144
S        5.76284324       4.07494619       6.68923128      -0.00163165      -0.00114846       0.00000266
S        4.81243506       1.38678763       5.04307720      -0.00081620       0.00114360       0.00140348
S        2.91162234       4.07494599       8.33538415       0.00081104      -0.00114423      -0.00140071
S        2.91162104       4.07494478       5.04307705       0.00080739      -0.00114736       0.00140205
S        4.81243525       1.38678821       8.33538458      -0.00081158       0.00114304      -0.00139770
