9
Lattice="5.30564361908078 -3.3721723139874225e-07 3.063214015217842 1.7685475340568666 5.00220843628316 3.063214051657581 -3.006272797982111e-07 -1.679461774092049e-07 6.1264285511374155" Properties=species:S:1:pos:R:3:forces:R:3 energy=-33.472625732421875 free_energy=-33.472625732421875 stress="-1.706911098153796e-05 1.2697442741682607e-07 2.1653958981460164e-07 1.2697442741682607e-07 -1.6892074199859053e-05 1.8101842158557702e-07 2.1653958981460164e-07 1.8101842158557702e-07 -1.6701960703358054e-05" pbc="T T T"
Bi       1.76854825       1.25055229       3.06322178       0.00000408       0.00000080       0.00003529
Bi       5.30563515       3.75165537       9.18963899      -0.00004068      -0.00000104      -0.00001908
Tl      -0.00000041       0.00000028      -0.00000025      -0.00000096       0.00000139       0.00000225
F        1.82306975       1.28910284       6.12642530      -0.00213429      -0.00152084      -0.00001901
F        5.25112315       3.71310339       6.12643018       0.00213885       0.00151041       0.00000941
F        4.39410783       1.28910441       4.64203630       0.00106178      -0.00151061      -0.00185977
F        2.68008594       3.71310466       7.61082023      -0.00104848       0.00151970       0.00186074
F        2.68008401       3.71310417       4.64203530      -0.00105781       0.00150497      -0.00186084
F        4.39410996       1.28910446       7.61081873       0.00107768      -0.00150471       0.00185126
