9
Lattice="6.290329192450944 1.2370415332772333e-07 3.6317233398682394 2.0967765103276395 5.930579564701089 3.631723346424635 8.391132351753264e-08 6.736420851959062e-08 7.2634465343977785" Properties=species:S:1:pos:R:3:forces:R:3 energy=-34.9872932434082 free_energy=-34.9872932434082 stress="-3.190976713085547e-05 2.9456375116865274e-08 3.9473673218992644e-09 2.9456375116865274e-08 -3.1932551792124286e-05 -2.051272707248586e-09 3.9473673218992644e-09 -2.051272707248586e-09 -3.194370583514683e-05" pbc="T T T"
Bi       2.09677629       1.48264625       3.63172355      -0.00000013       0.00000710       0.00000104
Bi       6.29032955       4.44793494      10.89517140      -0.00000008       0.00000027       0.00000548
Ti       0.00000011      -0.00000015       0.00000037       0.00000026      -0.00000092      -0.00000315
Te       2.19944206       1.55524034       7.26344652       0.00124348       0.00087853      -0.00000121
Te       6.18766407       4.37533852       7.26344619      -0.00124283      -0.00088149      -0.00000035
Te       5.19060839       1.55524078       5.53649529      -0.00062287       0.00088131       0.00107966
Te       3.19649696       4.37533901       8.99039736       0.00062158      -0.00088183      -0.00108019
Te       3.19649756       4.37533911       5.53649517       0.00062373      -0.00088269       0.00107897
Te       5.19060814       1.55524022       8.99039704      -0.00062321       0.00087965      -0.00108030
