9
Lattice="6.227283504539127 -5.225077375279825e-07 3.595323815199173 2.0757608926934954 5.871138076244786 3.595323439103503 -3.3875338932433797e-07 -7.001559680987314e-07 7.190648217136297" Properties=species:S:1:pos:R:3:forces:R:3 energy=-49.70640182495117 free_energy=-49.70640182495117 stress="-1.7739868781063706e-05 -3.861167741092686e-08 -2.800271658998099e-08 -3.861167741092686e-08 -1.77561796590453e-05 5.362585397961084e-08 -2.800271658998099e-08 5.362585397961084e-08 -1.7670978195383213e-05" pbc="T T T"
Bi       2.07576259       1.46778508       3.59532460      -0.00000249      -0.00000190      -0.00000201
Bi       6.22728472       4.40335302      10.78597136      -0.00000223      -0.00000009       0.00000052
Ta      -0.00000084      -0.00000056      -0.00000043       0.00002452       0.00001071       0.00000852
F        1.55416037       1.09895641       7.19064761       0.00087678       0.00062245       0.00000024
F        6.74888294       4.77217999       7.19064733      -0.00089216      -0.00063324       0.00000044
F        5.45020257       1.09895732       4.94126634      -0.00043809       0.00061947       0.00075912
F        2.85284085       4.77217930       9.44002914       0.00043750      -0.00062114      -0.00076127
F        2.85284118       4.77218086       4.94126652       0.00043917      -0.00062406       0.00076324
F        5.45020190       1.09895625       9.44002897      -0.00044274       0.00062770      -0.00076896
