9
Lattice="6.351861354919405 1.0271497834083713e-07 3.667248850179354 2.117287222828877 5.988592296333507 3.6672488368740392 -4.3137588840859434e-08 -4.67985547243247e-08 7.33449777507528" Properties=species:S:1:pos:R:3:forces:R:3 energy=-38.221641540527344 free_energy=-38.221641540527344 stress="2.378351609877427e-06 -1.013914907588287e-08 3.5610379089945354e-09 -1.013914907588287e-08 2.3802977011655457e-06 4.47660086777546e-09 3.5610379089945354e-09 4.47660086777546e-09 2.373788447584957e-06" pbc="T T T"
Bi       2.11728631       1.49714728       3.66724862      -0.00000357      -0.00000246      -0.00000065
Bi       6.35186168       4.49144463      11.00174630       0.00000061       0.00000039      -0.00000140
Ta      -0.00000023      -0.00000013       0.00000003       0.00000070      -0.00000003       0.00000051
Te       2.22924601       1.57631483       7.33449778       0.00233118       0.00164847       0.00000064
Te       6.23990281       4.41227768       7.33449765      -0.00233221      -0.00164868       0.00000030
Te       5.23723864       1.57631495       5.59783261      -0.00116377       0.00164722       0.00201845
Te       3.23191010       4.41227763       9.07116315       0.00116599      -0.00164692      -0.00201833
Te       3.23190998       4.41227754       5.59783256       0.00116508      -0.00164668       0.00201927
Te       5.23723885       1.57631496       9.07116316      -0.00116393       0.00164871      -0.00201869
