9
Lattice="6.426339352759901 1.0949061756456902e-07 3.7102486674332917 2.142113198492459 6.058810913671502 3.7102487060976808 -5.069470388023823e-09 4.376939307619749e-08 7.420497343647103" Properties=species:S:1:pos:R:3:forces:R:3 energy=-29.938068389892578 free_energy=-29.938068389892578 stress="0.00014842725067865103 7.83815945482047e-09 8.502191839454554e-09 7.83815945482047e-09 0.00014842624659650028 2.988786329538584e-09 8.502191839454554e-09 2.988786329538584e-09 0.00014839362120255828" pbc="T T T"
Bi       2.14211308       1.51470266       3.71024814      -0.00000033       0.00000050      -0.00000076
Bi       6.42633976       4.54410819      11.13074630       0.00000066      -0.00000006      -0.00000039
V        0.00000028       0.00000019      -0.00000122      -0.00000247      -0.00000065       0.00000975
Br       2.06257307       1.45845950       7.42049750      -0.00202551      -0.00143278       0.00000086
Br       6.50587921       4.60035153       7.42049724       0.00202806       0.00143430       0.00000086
Br       5.39505284       1.45845980       5.49648906       0.00101423      -0.00143453      -0.00175560
Br       3.17339903       4.60035228       9.34450641      -0.00101035       0.00142786       0.00175018
Br       3.17339958       4.60035136       5.49648927      -0.00101398       0.00143420      -0.00175531
Br       5.39505332       1.45845881       9.34450621       0.00100982      -0.00142879       0.00175038
