9
Lattice="5.550931767052204 7.090646245803825e-08 3.2048321315788195 1.8503105807989413 5.233468810317064 3.204832261603347 -9.378800133844885e-09 1.526150921050876e-07 6.409664279402104" Properties=species:S:1:pos:R:3:forces:R:3 energy=-42.65630340576172 free_energy=-42.65630340576172 stress="-0.00016711620264686644 6.561869270171883e-09 -7.069417828908797e-10 6.561869270171883e-09 -0.00016705392044968903 1.9969711217981967e-08 -7.069417828908797e-10 1.9969711217981967e-08 -0.00016711719217710197" pbc="T T T"
Bi       1.85031120       1.30836831       3.20483165       0.00000574       0.00000831      -0.00000356
Bi       5.55093175       3.92510161       9.61449595      -0.00000021      -0.00000336      -0.00000179
V       -0.00000016       0.00000024       0.00000028       0.00000099      -0.00000516      -0.00000146
S        1.86770154       1.32066509       6.40966435       0.00112733       0.00079653       0.00000120
S        5.53354045       3.91280373       6.40966432      -0.00112432      -0.00079677      -0.00000067
S        4.61708064       1.32066477       4.82230920      -0.00056621       0.00079775       0.00097838
S        2.78416185       3.91280352       7.99701939       0.00056116      -0.00079867      -0.00096965
S        2.78416144       3.91280399       4.82230991       0.00056222      -0.00079700       0.00097430
S        4.61708061       1.32066490       7.99701965      -0.00056665       0.00079823      -0.00097662
