9
Lattice="4.691849612678876 -4.533413505679731e-08 2.708841018052018 1.5639498379058694 4.423518301850999 2.7088410011570287 1.3632740336875724e-08 -1.1052283369567421e-08 5.4176820124915235" Properties=species:S:1:pos:R:3:forces:R:3 energy=-53.95412826538086 free_energy=-53.95412826538086 stress="-0.0005189409712329507 2.0394386623934224e-08 1.1691342116648684e-08 2.0394386623934224e-08 -0.0005189515650272369 2.5285761040549914e-08 1.1691342116648684e-08 2.5285761040549914e-08 -0.0005190359661355615" pbc="T T T"
Bi       1.56395139       1.10588047       2.70884026       0.00001103       0.00000462      -0.00000393
Bi       4.69185008       3.31763877       8.12652318       0.00000490       0.00000041       0.00000106
V        0.00000006      -0.00000022      -0.00000038       0.00000269       0.00000335       0.00000265
O        1.53028944       1.08207790       5.41768216       0.00601155       0.00425130       0.00000137
O        4.72550970       3.34144039       5.41768202      -0.00601697      -0.00425237       0.00000231
O        3.92670458       1.08207830       4.03411078      -0.00300756       0.00425130       0.00520581
O        2.32909378       3.34143968       6.80125370       0.00300378      -0.00425863      -0.00521010
O        2.32909446       3.34143986       4.03411030       0.00300491      -0.00425732       0.00520992
O        3.92670436       1.08207776       6.80125428      -0.00301528       0.00425655      -0.00521004
