9
Lattice="6.132467800933041 -4.576797153226553e-08 3.5405823336809354 2.0441558738056154 5.781747845260098 3.540582362585917 -5.732805548939935e-07 -3.6996937449768535e-07 7.081165660312907" Properties=species:S:1:pos:R:3:forces:R:3 energy=-33.58616256713867 free_energy=-33.58616256713867 stress="0.0001294367975788191 2.1857230692035046e-08 1.3737154747062164e-09 2.1857230692035046e-08 0.00012944030459038913 -1.3748696403581562e-08 1.3737154747062164e-09 -1.3748696403581562e-08 0.00012944590707775205" pbc="T T T"
Bi       2.04415543       1.44543514       3.54058155      -0.00000201      -0.00000367      -0.00000357
Bi       6.13246732       4.33631269      10.62174649      -0.00000018       0.00000366      -0.00000481
V        0.00000048       0.00000020      -0.00000075      -0.00000535      -0.00000200       0.00000831
Cl       1.94129658       1.37270413       7.08116659      -0.00056234      -0.00040144       0.00000072
Cl       6.23532521       4.40904228       7.08116555       0.00057067       0.00040666      -0.00000103
Cl       5.16181980       1.37270397       5.22179568       0.00028087      -0.00040222      -0.00048992
Cl       3.01480464       4.40904270       8.94053530      -0.00028252       0.00040132       0.00048939
Cl       3.01480337       4.40904323       5.22179616      -0.00028314       0.00040153      -0.00049049
Cl       5.16181957       1.37270534       8.94053491       0.00028403      -0.00040383       0.00049146
