9
Lattice="5.803629959093519 -4.9809151147813125e-09 3.3507272894068563 1.9345433053174887 5.471714743279142 3.350727306180546 -2.9594747016106523e-08 -3.8319221236999624e-10 6.701454630073255" Properties=species:S:1:pos:R:3:forces:R:3 energy=-39.08800506591797 free_energy=-39.08800506591797 stress="-4.507499761530198e-05 -1.6806296798677067e-08 4.8629282822787445e-09 -1.6806296798677067e-08 -4.513626481639221e-05 -5.650362844278334e-09 4.8629282822787445e-09 -5.650362844278334e-09 -4.510864528128877e-05" pbc="T T T"
Bi       1.93454366       1.36792931       3.35072683       0.00000166       0.00000429      -0.00000273
Bi       5.80363021       4.10378649      10.05218083       0.00000162       0.00000171      -0.00000596
V       -0.00000027      -0.00000011      -0.00000025       0.00000195      -0.00000020      -0.00000056
Se       1.96606043       1.39021446       6.70145490       0.00108376       0.00076599       0.00000184
Se       5.77211286       4.08150019       6.70145517      -0.00108328      -0.00076907       0.00000165
Se       4.82059965       1.39021422       5.05338548      -0.00054320       0.00076587       0.00094217
Se       2.91757346       4.08149990       8.34952435       0.00054144      -0.00076768      -0.00093704
Se       2.91757322       4.08149995       5.05338550       0.00053885      -0.00076669       0.00093890
Se       4.82059976       1.39021454       8.34952407      -0.00054267       0.00076590      -0.00093818
