9
Lattice="6.211204751657237 -1.576163326881901e-07 3.586040768407547 2.07040147628907 5.855979855901025 3.586040697383946 1.0383504986543455e-07 -1.3563265663232152e-08 7.172081356967472" Properties=species:S:1:pos:R:3:forces:R:3 energy=-35.056827545166016 free_energy=-35.056827545166016 stress="-6.969668174860999e-05 -3.9259912654188156e-08 -3.595769237918489e-09 -3.9259912654188156e-08 -6.967101217014715e-05 2.3783078617611864e-08 -3.595769237918489e-09 2.3783078617611864e-08 -6.965029751881957e-05" pbc="T T T"
Bi       2.07040230       1.46399434       3.58604000       0.00000329      -0.00000205      -0.00000199
Bi       6.21120392       4.39198529      10.75812287      -0.00000273       0.00000184       0.00000131
V       -0.00000023      -0.00000015      -0.00000028       0.00000216      -0.00000078       0.00000108
Te       2.15201588       1.52170439       7.17208132      -0.00026149      -0.00018665      -0.00000001
Te       6.12959053       4.33427555       7.17208053       0.00026033       0.00018534      -0.00000077
Te       5.13519637       1.52170481       5.44974142       0.00013186      -0.00018863      -0.00022922
Te       3.14640950       4.33427440       8.89442192      -0.00013320       0.00018736       0.00023074
Te       3.14641052       4.33427505       5.44974124      -0.00013200       0.00018838      -0.00023006
Te       5.13519656       1.52170505       8.89442222       0.00013185      -0.00018477       0.00022893
