9
Lattice="6.295167501924398 -2.243091890958811e-07 3.6345168357145914 2.0983889817658348 5.935140943964361 3.6345167907877745 -8.315967261024083e-10 -5.5611904625896995e-08 7.269033672869635" Properties=species:S:1:pos:R:3:forces:R:3 energy=-37.88758087158203 free_energy=-37.88758087158203 stress="-0.00018624468066263944 -3.458805863942871e-08 2.4211175286836806e-08 -3.458805863942871e-08 -0.00018623302457854152 -2.4137007059721327e-08 2.4211175286836806e-08 -2.4137007059721327e-08 -0.00018621486378833652" pbc="T T T"
Bi       2.09838975       1.48378522       3.63451643       0.00000150      -0.00000056      -0.00000128
Bi       6.29516701       4.45135423      10.90355099      -0.00000205      -0.00000426       0.00000152
W       -0.00000116       0.00000030      -0.00000049       0.00001025      -0.00000546       0.00000354
Te       2.18035547       1.54174422       7.26903380       0.00262435       0.00185525      -0.00000015
Te       6.21320133       4.39339713       7.26903340      -0.00263006      -0.00185966       0.00000001
Te       5.20498988       1.54174461       5.52275965      -0.00131309       0.00186008       0.00227605
Te       3.18856685       4.39339621       9.01530707       0.00131259      -0.00185445      -0.00227135
Te       3.18856744       4.39339629       5.52276095       0.00130865      -0.00184876       0.00226609
Te       5.20498946       1.54174448       9.01530739      -0.00131214       0.00185786      -0.00227449
