9
Lattice="5.91188013306737 -1.7308298464916468e-07 3.413225589259606 1.9706265684403605 5.573774115717009 3.413225553575662 -3.385021046693899e-08 -6.763946926003892e-08 6.82645123714943" Properties=species:S:1:pos:R:3:forces:R:3 energy=-42.415557861328125 free_energy=-42.415557861328125 stress="7.915761671029031e-06 -6.825344200933614e-08 3.2297691632265924e-08 -6.825344200933614e-08 7.992101927811746e-06 1.9420973274009157e-08 3.2297691632265924e-08 1.9420973274009157e-08 8.039885869948193e-06" pbc="T T T"
Bi       1.97062692       1.39344326       3.41322590      -0.00000110      -0.00000077       0.00000294
Bi       5.91187977       4.18033040      10.23967725      -0.00000152      -0.00000155       0.00000179
W       -0.00000097      -0.00000113       0.00000049       0.00001171       0.00001028      -0.00001706
Se       2.00534498       1.41799339       6.82645138       0.00009595       0.00006707      -0.00000203
Se       5.87716217       4.15578142       6.82645118      -0.00011161      -0.00007574      -0.00000042
Se       4.90920765       1.41799325       5.14990509      -0.00004933       0.00007251       0.00008667
Se       2.97329938       4.15578034       8.50299640       0.00004599      -0.00006277      -0.00007946
Se       2.97329931       4.15578087       5.14990530       0.00005276      -0.00007216       0.00008477
Se       4.90920745       1.41799367       8.50299655      -0.00004289       0.00006301      -0.00007731
