9
Lattice="5.6844532988037155 -7.3555848673052635e-09 3.2819207136235873 1.8948177203049283 5.359354528054045 3.2819207812221953 9.360661912382857e-09 8.941003741969978e-08 6.5638414110339784" Properties=species:S:1:pos:R:3:forces:R:3 energy=-45.956390380859375 free_energy=-45.956390380859375 stress="-2.112343645421788e-05 5.502640476606757e-08 -3.304920426216995e-08 5.502640476606757e-08 -2.1200539777055383e-05 2.083091033000528e-09 -3.304920426216995e-08 2.083091033000528e-09 -2.1236681277514435e-05" pbc="T T T"
Bi       1.89481825       1.33983892       3.28192044       0.00000284       0.00000062      -0.00000127
Bi       5.68445383       4.01951592       9.84576168       0.00000216       0.00000177      -0.00000497
W        0.00000011       0.00000025      -0.00000061      -0.00001075      -0.00000566       0.00001368
S        1.91126847       1.35147076       6.56384138      -0.00022176      -0.00015471       0.00000213
S        5.66800169       4.00788292       6.56384159       0.00023477       0.00016557       0.00000284
S        4.72881866       1.35147158       4.93712836       0.00011481      -0.00016343      -0.00019822
S        2.85045226       4.00788421       8.19055535      -0.00011004       0.00015012       0.00018960
S        2.85045171       4.00788337       4.93712807      -0.00011658       0.00015865      -0.00019281
S        4.72881908       1.35147052       8.19055552       0.00010443      -0.00015290       0.00018916
