9
Lattice="4.767003764470863 -3.9390063280489085e-08 2.7522308734383545 1.5890012329840493 4.494374187374713 2.752230846941875 -3.2685666722031826e-09 -3.476265528230834e-08 5.50446175253801" Properties=species:S:1:pos:R:3:forces:R:3 energy=-55.38343048095703 free_energy=-55.38343048095703 stress="-9.479680738877505e-05 -3.359235378752601e-08 2.3725524656015295e-08 -3.359235378752601e-08 -9.47496373555623e-05 -2.0476663920021565e-08 2.3725524656015295e-08 -2.0476663920021565e-08 -9.468496136832982e-05" pbc="T T T"
Bi       1.58900106       1.12359384       2.75223086      -0.00000477       0.00000299       0.00000103
Bi       4.76700308       3.37078059       8.25669267      -0.00000531       0.00000114       0.00000189
W        0.00000001       0.00000007      -0.00000001       0.00000526      -0.00000382      -0.00000566
O        1.58269962       1.11913754       5.50446182      -0.00546235      -0.00386310      -0.00000069
O        4.77330572       3.37523628       5.50446176       0.00546283       0.00385875      -0.00000145
O        3.97565396       1.11913746       4.12288862       0.00273076      -0.00386065      -0.00473022
O        2.38035130       3.37523653       6.88603471      -0.00273219       0.00386697       0.00473619
O        2.38035140       3.37523685       4.12288860      -0.00272804       0.00386351      -0.00473422
O        3.97565393       1.11913741       6.88603466       0.00273392      -0.00386548       0.00473225
