9
Lattice="6.688904122037002 2.2344660588274212e-08 3.86184060688264 2.2296347834657837 6.306359145771387 3.8618405115273244 7.781951087777928e-08 -6.175916846651761e-08 7.723681078977946" Properties=species:S:1:pos:R:3:forces:R:3 energy=-31.008045196533203 free_energy=-31.008045196533203 stress="9.491141099715605e-05 -9.025421521258181e-10 3.730540765189971e-09 -9.025421521258181e-10 9.491696255281568e-05 -6.628166016042769e-09 3.730540765189971e-09 -6.628166016042769e-09 9.492469689575955e-05" pbc="T T T"
Bi       2.22963489       1.57658977       3.86184087       0.00000028      -0.00000041       0.00000066
Bi       6.68890397       4.72976902      11.58552198      -0.00000133      -0.00000035       0.00000101
Y        0.00000034      -0.00000009      -0.00000043      -0.00000339      -0.00000086       0.00000396
Br       2.26296980       1.60016123       7.72368096      -0.00073597      -0.00052059      -0.00000029
Br       6.65556886       4.70619788       7.72368091       0.00073984       0.00052334       0.00000026
Br       5.55741915       1.60016154       5.82162984       0.00036969      -0.00052335      -0.00064148
Br       3.36111967       4.70619816       9.62573243      -0.00036801       0.00052088       0.00063777
Br       3.36112006       4.70619764       5.82163001      -0.00037001       0.00052338      -0.00064118
Br       5.55741923       1.60016129       9.62573220       0.00036892      -0.00052199       0.00063930
