9
Lattice="7.187379491866755 2.3364326114644976e-07 4.14963530557438 2.395793338627205 6.77632645896578 4.149635384572084 -2.789320411573528e-08 7.702856351705145e-08 8.299270659461186" Properties=species:S:1:pos:R:3:forces:R:3 energy=-28.104877471923828 free_energy=-28.104877471923828 stress="0.00018248894775751978 1.206481137216997e-08 -2.286675154783424e-10 1.206481137216997e-08 0.00018247825209982693 8.429514308794239e-10 -2.286675154783424e-10 8.429514308794239e-10 0.0001824671489885077" pbc="T T T"
Bi       2.39579330       1.69408174       4.14963551       0.00000053      -0.00000117       0.00000027
Bi       7.18737977       5.08224509      12.44890603      -0.00000003       0.00000086      -0.00000021
Y       -0.00000026      -0.00000028      -0.00000032       0.00000350       0.00000269       0.00000293
I        2.44855109       1.73138740       8.29927062      -0.00479801      -0.00339261       0.00000065
I        7.13462212       5.04493983       8.29927072       0.00479366       0.00338964       0.00000036
I        5.96310398       1.73138702       6.27014206       0.00239852      -0.00339313      -0.00415372
I        3.62006854       5.04493980      10.32839930      -0.00239669       0.00339108       0.00415176
I        3.62006853       5.04493958       6.27014227      -0.00239845       0.00339294      -0.00415350
I        5.96310410       1.73138688      10.32839925       0.00239690      -0.00339034       0.00415140
