9
Lattice="5.3808655465790425 -1.6684989696285603e-07 3.106644199824641 1.7936217461070727 5.073128260373906 3.10664410533263 -5.3128945038948386e-08 -1.5329644524797083e-07 6.213288491671297" Properties=species:S:1:pos:R:3:forces:R:3 energy=-46.46772003173828 free_energy=-46.46772003173828 stress="0.00018044793978333473 2.8056557965783213e-08 -2.846645408283166e-08 2.8056557965783213e-08 0.00018044290482066572 -2.693705525302903e-08 -2.846645408283166e-08 -2.693705525302903e-08 0.00018041449948213995" pbc="T T T"
Bi       1.79362193       1.26828151       3.10664385       0.00000106      -0.00000290      -0.00000145
Bi       5.38086521       3.80484630       9.31993380      -0.00000073       0.00000241       0.00000410
Y        0.00000010      -0.00000009      -0.00000010      -0.00000279       0.00000051      -0.00000026
F        1.76808449       1.25022383       6.21328845       0.00318828       0.00225295       0.00000012
F        5.40640273       3.82290409       6.21328803      -0.00318608      -0.00225204      -0.00000188
F        4.49682353       1.25022424       4.63784963      -0.00159356       0.00225431       0.00276023
F        2.67766365       3.82290417       7.78872691       0.00159347      -0.00225371      -0.00276098
F        2.67766383       3.82290428       4.63784964       0.00159591      -0.00225528       0.00276211
F        4.49682346       1.25022323       7.78872700      -0.00159551       0.00225377      -0.00276181
