9
Lattice="6.5796729591757845 -1.1958950367910075e-07 3.79877607583706 2.193224129865927 6.203375645090393 3.7987762093942288 -9.184908204391451e-08 9.862633025800244e-08 7.597552310761443" Properties=species:S:1:pos:R:3:forces:R:3 energy=-33.079837799072266 free_energy=-33.079837799072266 stress="7.9680401540827e-05 -3.423636840693689e-08 4.455890323384892e-09 -3.423636840693689e-08 7.968569843797013e-05 4.280322318805929e-09 4.455890323384892e-09 4.280322318805929e-09 7.972776074893773e-05" pbc="T T T"
Bi       2.19322298       1.55084483       3.79877663      -0.00000635       0.00000399       0.00000197
Bi       6.57967367       4.65253157      11.39632903       0.00000485      -0.00000049       0.00000265
Y        0.00000000      -0.00000024       0.00000050       0.00000129       0.00000060      -0.00000452
Te       2.43674541       1.72304075       7.59755237       0.00443597       0.00313852      -0.00000073
Te       6.33615191       4.48033472       7.59755208      -0.00443590      -0.00314133      -0.00000056
Te       5.36129977       1.72303999       5.90906037      -0.00221813       0.00313659       0.00384139
Te       3.41159734       4.48033553       9.28604351       0.00221679      -0.00313424      -0.00384064
Te       3.41159720       4.48033565       5.90906060       0.00221832      -0.00313711       0.00384159
Te       5.36129972       1.72303962       9.28604331      -0.00221691       0.00313344      -0.00384117
