9
Lattice="4.852790349213472 1.5470166871155912e-08 2.801759856741733 1.6175968331255344 4.575254684754658 2.801759795307695 4.796026236466109e-08 -4.132800736334889e-08 5.60351963041388" Properties=species:S:1:pos:R:3:forces:R:3 energy=-49.98986053466797 free_energy=-49.98986053466797 stress="-0.000140882475534454 2.2608414695923784e-08 -6.781093730978682e-08 2.2608414695923784e-08 -0.00014101587294135243 -6.459401191705183e-08 -6.781093730978682e-08 -6.459401191705183e-08 -0.00014104267756920308" pbc="T T T"
Bi       1.61759595       1.14381322       2.80176042      -0.00000543      -0.00000118       0.00000604
Bi       4.85279044       3.43144043       8.40528081      -0.00000010      -0.00000609       0.00001134
Y        0.00000023       0.00000025       0.00000031      -0.00000577      -0.00000976      -0.00000087
O        1.75999922       1.24450769       5.60351947      -0.00318429      -0.00224891      -0.00000137
O        4.71038750       3.33074707       5.60351861       0.00318900       0.00225443      -0.00000937
O        3.97279115       1.24450770       4.32596369       0.00159353      -0.00224444      -0.00275645
O        2.49759634       3.33074752       6.88107503      -0.00159466       0.00225541       0.00275448
O        2.49759667       3.33074722       4.32596372      -0.00158855       0.00225189      -0.00275818
O        3.97279139       1.24450757       6.88107510       0.00159617      -0.00225130       0.00275454
