9
Lattice="5.732380546010022 1.7158386933941146e-08 3.309591393048938 1.9107935242701295 5.404540275811359 3.309591405595262 7.130812780918491e-08 6.578850893098794e-08 6.619182662588568" Properties=species:S:1:pos:R:3:forces:R:3 energy=-38.91015625 free_energy=-38.91015625 stress="-7.476367318304256e-05 -1.0153407004054316e-08 2.8767566107035236e-09 -1.0153407004054316e-08 -7.470235141227022e-05 -3.629042666375426e-08 2.8767566107035236e-09 -3.629042666375426e-08 -7.468234252883121e-05" pbc="T T T"
Bi       1.91079303       1.35113657       3.30959104      -0.00000542       0.00001056      -0.00000351
Bi       5.73238135       4.05340411       9.92877647       0.00000585      -0.00000728       0.00002028
Y       -0.00000110       0.00000069       0.00000155       0.00001659      -0.00000870      -0.00002464
S        2.08939313       1.47742471       6.61918293      -0.00057223      -0.00040109       0.00000273
S        5.55378162       3.92711558       6.61918202       0.00057039       0.00039358      -0.00000857
S        4.68768457       1.47742475       5.11905818       0.00027955      -0.00038616      -0.00048635
S        2.95548967       3.92711471       8.11930534      -0.00030028       0.00040786       0.00050317
S        2.95549028       3.92711582       5.11905898      -0.00028192       0.00039921      -0.00049607
S        4.68768399       1.47742453       8.11930530       0.00028760      -0.00040782       0.00049338
