9
Lattice="6.2886415507951545 2.4452817354784973e-08 3.630749128718435 2.096213884780889 5.928987976028957 3.630749108866582 1.4040415238187574e-07 7.496719437159373e-08 7.261498014249757" Properties=species:S:1:pos:R:3:forces:R:3 energy=-34.763885498046875 free_energy=-34.763885498046875 stress="0.00014968526375014335 2.806678622846448e-08 8.46526670983394e-09 2.806678622846448e-08 0.00014967760944273323 -1.2544709271367083e-08 8.46526670983394e-09 -1.2544709271367083e-08 0.0001496528129791841" pbc="T T T"
Bi       2.09621399       1.48224608       3.63074873      -0.00000007      -0.00000335      -0.00000036
Bi       6.28864245       4.44674107      10.89224741       0.00000135      -0.00000066       0.00000009
Y        0.00000008      -0.00000001      -0.00000036      -0.00000777      -0.00000148       0.00000259
Cl       2.13017752       1.50626325       7.26149780      -0.00023644      -0.00016597       0.00000003
Cl       6.25467691       4.42272439       7.26149848       0.00024341       0.00017396       0.00000038
Cl       5.22355270       1.50626313       5.47553676       0.00011823      -0.00016864      -0.00020587
Cl       3.16130257       4.42272569       9.04745980      -0.00011757       0.00016604       0.00020176
Cl       3.16130314       4.42272550       5.47553738      -0.00011937       0.00016911      -0.00020480
Cl       5.22355292       1.50626319       9.04745895       0.00011820      -0.00016905       0.00020611
