9
Lattice="6.064624039259744 3.017221923472516e-08 3.501412390448269 2.0215412984550767 5.717782723773187 3.5014125227968913 -3.638980260966474e-08 1.3636181823655996e-07 7.0028248439256275" Properties=species:S:1:pos:R:3:forces:R:3 energy=-35.520790100097656 free_energy=-35.520790100097656 stress="6.999258403084241e-06 -3.4895446532345886e-08 5.57398838196832e-09 -3.4895446532345886e-08 6.992504040681524e-06 -4.298069899988377e-09 5.57398838196832e-09 -4.298069899988377e-09 7.017421921773348e-06" pbc="T T T"
Bi       2.02154024       1.42944828       3.50141253      -0.00000879       0.00001830       0.00000142
Bi       6.06462602       4.28833546      10.50423917       0.00001667      -0.00001221       0.00001450
Y        0.00000024      -0.00000017      -0.00000020      -0.00000511       0.00000113      -0.00000033
Se       2.20308187       1.55781561       7.00282485       0.00003576       0.00003472      -0.00000160
Se       5.88308317       4.15996718       7.00282409      -0.00003445      -0.00003278      -0.00000421
Se       4.96308313       1.55781593       5.40933793      -0.00001475       0.00003150       0.00002810
Se       3.12308128       4.15996704       8.59631170       0.00001095      -0.00003368      -0.00003532
Se       3.12308205       4.15996758       5.40933798       0.00001529      -0.00003165       0.00003242
Se       4.96308316       1.55781471       8.59631094      -0.00001568       0.00002444      -0.00003538
