9
Lattice="4.808152199879723 -3.4916301802571446e-08 2.7759879689186113 1.60271735913857 4.533169285044556 2.7759879826051805 -4.0946502983391106e-08 -1.2191010446763609e-08 5.551976008758683" Properties=species:S:1:pos:R:3:forces:R:3 energy=-55.689971923828125 free_energy=-55.689971923828125 stress="-6.620864587603137e-05 -3.558240990741979e-08 3.263134473741047e-08 -3.558240990741979e-08 -6.626485264860094e-05 -3.9059280254605255e-08 3.263134473741047e-08 -3.9059280254605255e-08 -6.626663525821641e-05" pbc="T T T"
Bi       1.60271657       1.13329237       2.77598788      -0.00000612       0.00000250      -0.00000107
Bi       4.80815226       3.39987758       8.32796395      -0.00000142       0.00000506      -0.00000301
Zr      -0.00000009       0.00000026      -0.00000049      -0.00000196       0.00000135       0.00000811
O        1.67790510       1.18645763       5.55197609      -0.00104243      -0.00073922       0.00000024
O        4.73296478       3.34671127       5.55197608       0.00104469       0.00073534       0.00000194
O        3.96920004       1.18645771       4.22909632       0.00052691      -0.00074089      -0.00090200
O        2.44166961       3.34671153       6.87485609      -0.00051925       0.00073498       0.00090003
O        2.44166987       3.34671134       4.22909609      -0.00052240       0.00073838      -0.00090373
O        3.96919995       1.18645736       6.87485559       0.00052172      -0.00073689       0.00089836
