9
Lattice="6.2906761829189985 -1.2594588524455576e-08 3.6319235083911408 2.096892037288296 5.930906280143758 3.6319235288473624 -3.5262136563680626e-08 1.1952209705608352e-10 7.263847077858166" Properties=species:S:1:pos:R:3:forces:R:3 energy=-21.57846450805664 free_energy=-21.57846450805664 stress="5.1678460295079276e-05 3.4351266275933767e-09 -1.922308534574313e-09 3.4351266275933767e-09 5.170592703507282e-05 2.4817166099921906e-09 -1.922308534574313e-09 2.4817166099921906e-09 5.168593634152785e-05" pbc="T T T"
Bi       2.09689200       1.48272703       3.63192366       0.00000082       0.00000212       0.00000036
Bi       6.29067595       4.44817900      10.89577127      -0.00000039      -0.00000281       0.00000244
Zn       0.00000009      -0.00000028      -0.00000007       0.00000016       0.00000224       0.00000136
Br       2.09585447       1.48199267       7.26384710      -0.00064576      -0.00045469       0.00000007
Br       6.29171403       4.44891341       7.26384674       0.00064249       0.00045349      -0.00000067
Br       5.24274895       1.48199322       5.44698654       0.00032365      -0.00045508      -0.00056036
Br       3.14481914       4.44891359       9.08070774      -0.00032172       0.00045434       0.00055553
Br       3.14481918       4.44891354       5.44698620      -0.00032150       0.00045471      -0.00055689
Br       5.24274891       1.48199289       9.08070724       0.00032217      -0.00045426       0.00055830
