9
Lattice="5.886644876271208 -6.907318237837627e-08 3.398655949366737 1.9622149058712621 5.549982017319055 3.3986559281716557 -4.313078333457158e-08 -5.6456673099621814e-08 6.797311973438177" Properties=species:S:1:pos:R:3:forces:R:3 energy=-39.29389190673828 free_energy=-39.29389190673828 stress="-0.00026482102111913264 -2.4243469454177102e-08 -4.5371564283414045e-09 -2.4243469454177102e-08 -0.00026482678367756307 1.2916497205139876e-08 -4.5371564283414045e-09 1.2916497205139876e-08 -0.0002647952060215175" pbc="T T T"
Bi       1.96221520       1.38749593       3.39865557       0.00000125       0.00000329      -0.00000419
Bi       5.88664486       4.16248560      10.19596699       0.00000070      -0.00000418      -0.00000652
Zr       0.00000027       0.00000068      -0.00000093      -0.00000629      -0.00000825       0.00001292
Se       2.09673479       1.48261554       6.79731207      -0.00513451      -0.00362963       0.00000038
Se       5.75212434       4.06736621       6.79731231       0.00514363       0.00363711       0.00000416
Se       4.83827739       1.48261601       5.21448216       0.00257204      -0.00363817      -0.00445335
Se       3.01058247       4.06736586       8.38014209      -0.00256935       0.00363240       0.00445199
Se       3.01058259       4.06736612       5.21448251      -0.00257412       0.00363730      -0.00445390
Se       4.83827705       1.48261566       8.38014266       0.00256662      -0.00363001       0.00444834
