9
Lattice="5.591842770736388 -4.422680124380366e-08 3.2284519550368476 1.8639475282982396 5.272040517458976 3.2284519901105306 -5.469524848103792e-08 4.280894755032526e-09 6.45690400480865" Properties=species:S:1:pos:R:3:forces:R:3 energy=-43.22956085205078 free_energy=-43.22956085205078 stress="0.0002944523002952337 -2.93904847126214e-08 4.661339314537827e-09 -2.93904847126214e-08 0.00029451114824041724 2.7190520945907792e-09 4.661339314537827e-09 2.7190520945907792e-09 0.0002945265732705593" pbc="T T T"
Bi       1.86394790       1.31801048       3.22845232       0.00000212       0.00000303       0.00000126
Bi       5.59184364       3.95403150       9.68535551       0.00000472       0.00000869      -0.00000394
Zr       0.00000003       0.00000027       0.00000006      -0.00000201      -0.00000276      -0.00000201
S        2.00485151       1.41764373       6.45690356      -0.00474346      -0.00335390      -0.00000035
S        5.45093849       3.85439617       6.45690406       0.00474447       0.00335300       0.00000182
S        4.58941664       1.41764349       4.96470483       0.00237252      -0.00335934      -0.00410953
S        2.86637312       3.85439608       7.94910338      -0.00237475       0.00335504       0.00411057
S        2.86637300       3.85439619       4.96470448      -0.00237568       0.00335360      -0.00410950
S        4.58941666       1.41764401       7.94910346       0.00237213      -0.00335742       0.00411181
