9
Lattice="6.757047789664596 2.9057709393225362e-08 3.901183350071949 2.2523492458662533 6.370605965579957 3.9011834275832067 -3.2413521900758524e-08 7.201163974545036e-08 7.802366756285799" Properties=species:S:1:pos:R:3:forces:R:3 energy=-18.73394775390625 free_energy=-18.73394775390625 stress="-3.0961302400100976e-05 4.965357569552964e-10 -2.3641655300110642e-09 4.965357569552964e-10 -3.096914224443026e-05 3.08130354564895e-10 -2.3641655300110642e-09 3.08130354564895e-10 -3.096203727182001e-05" pbc="T T T"
Bi       2.25234881       1.59265153       3.90118361      -0.00000127      -0.00000000       0.00000040
Bi       6.75704823       4.77795414      11.70354986       0.00000142      -0.00000102       0.00000008
Zn       0.00000003       0.00000026       0.00000027      -0.00000016      -0.00000119      -0.00000096
I        2.27600298       1.60937766       7.80236675      -0.00077181      -0.00054503      -0.00000030
I        6.73339380       4.76122826       7.80236696       0.00077292       0.00054706      -0.00000041
I        5.61904623       1.60937760       5.87226019       0.00038586      -0.00054652      -0.00066903
I        3.39035097       4.76122868       9.73247306      -0.00038689       0.00054754       0.00066958
I        3.39035057       4.76122849       5.87226027      -0.00038638       0.00054630      -0.00066852
I        5.61904639       1.60937766       9.73247316       0.00038626      -0.00054710       0.00066917
