9
Lattice="5.887527003721948 -6.294754750729986e-08 3.399165285456836 1.962509062229777 5.55081336884522 3.3991650770276465 -2.274227453404159e-08 -2.713538240859418e-07 6.798330610304389" Properties=species:S:1:pos:R:3:forces:R:3 energy=-25.11561393737793 free_energy=-25.11561393737793 stress="6.166670209495351e-05 4.731912284228201e-08 4.919210994103196e-08 4.731912284228201e-08 6.172482972033322e-05 4.590675928284327e-08 4.919210994103196e-08 4.590675928284327e-08 6.174620648380369e-05" pbc="T T T"
Bi       1.96250684       1.38770279       3.39916496      -0.00001182      -0.00000015      -0.00000116
Bi       5.88752864       4.16310986      10.19749383       0.00000414      -0.00000322      -0.00001416
Zn      -0.00000066       0.00000050       0.00000057       0.00000347      -0.00000554      -0.00001307
Cl       1.94275147       1.37373296       6.79833095      -0.00301899      -0.00213415      -0.00000113
Cl       5.90728388       4.17708022       6.79833142       0.00302241       0.00213654       0.00000205
Cl       4.91615155       1.37373219       5.08163694       0.00150752      -0.00212823      -0.00260484
Cl       2.93388586       4.17707838       8.51502370      -0.00151422       0.00214261       0.00262753
Cl       2.93388418       4.17708202       5.08163806      -0.00150945       0.00213168      -0.00260602
Cl       4.91615240       1.37373319       8.51502338       0.00151689      -0.00213954       0.00261076
