9
Lattice="4.999258297351446 -5.550854233937449e-08 2.886323186356753 1.6664193580655682 4.713345930720841 2.886323224550112 -7.39556556946817e-08 -5.517416710836684e-09 5.772646500808492" Properties=species:S:1:pos:R:3:forces:R:3 energy=-36.46832275390625 free_energy=-36.46832275390625 stress="0.0004873893049079925 1.6059724217143412e-08 -1.4601511999501326e-08 1.6059724217143412e-08 0.00048734727897681296 -1.1122028631405101e-08 -1.4601511999501326e-08 -1.1122028631405101e-08 0.00048739099293015897" pbc="T T T"
Bi       1.66641992       1.17833674       2.88632288       0.00000324       0.00000086      -0.00000058
Bi       4.99925812       3.53500950       8.65896863      -0.00000032      -0.00000009      -0.00000390
Zn      -0.00000005      -0.00000019       0.00000010      -0.00000211       0.00000031      -0.00000351
F        1.63841050       1.15853145       5.77264661       0.00358438       0.00253443       0.00000058
F        5.02726706       3.55481462       5.77264677      -0.00358288      -0.00253416       0.00000109
F        4.18005282       1.15853102       4.30522885      -0.00179297       0.00253432       0.00310414
F        2.48562473       3.55481462       7.24006438       0.00179103      -0.00253391      -0.00310088
F        2.48562458       3.55481450       4.30522889       0.00179253      -0.00253572       0.00310456
F        4.18005274       1.15853138       7.24006457      -0.00179299       0.00253412      -0.00310141
