9
Lattice="4.5633726869571385 -6.760357762822787e-09 2.6346644598837488 1.52112427110741 4.302388860333223 2.634664375887222 7.207408011601319e-08 -5.191025333254737e-08 5.2693287949315355" Properties=species:S:1:pos:R:3:forces:R:3 energy=-28.341419219970703 free_energy=-28.341419219970703 stress="-3.3996402635239065e-05 -7.406625535111289e-09 3.6958955007548866e-08 -7.406625535111289e-09 -3.411820944165811e-05 -1.7477514546726525e-08 3.6958955007548866e-08 -1.7477514546726525e-08 -3.404295421205461e-05" pbc="T T T"
Br       1.52112433       1.07559721       2.63466448       0.00000044      -0.00000027      -0.00000233
Br       4.56337264       3.22679169       7.90399322      -0.00000068      -0.00000174       0.00000068
As      -0.00000000      -0.00000014      -0.00000029       0.00000109       0.00001106       0.00001832
F        1.48717805       1.05159344       5.26932879      -0.00008792      -0.00006095       0.00000196
F        4.59731903       3.25079534       5.26932875       0.00008239       0.00005893       0.00000179
F        3.81978384       1.05159367       3.92259833       0.00004642      -0.00006261      -0.00007917
F        2.26471322       3.25079527       6.61605933      -0.00003775       0.00004876       0.00006242
F        2.26471314       3.25079520       3.92259832      -0.00004479       0.00006296      -0.00007592
F        3.81978392       1.05159350       6.61605950       0.00004099      -0.00005628       0.00007260
