9
Lattice="6.097095950151447 -1.5390774051293694e-07 3.520159865864095 2.0323651045278672 5.748397224571507 3.5201599820563327 -2.584752286553758e-07 -4.0463718836836054e-08 7.040320179420418" Properties=species:S:1:pos:R:3:forces:R:3 energy=-18.325843811035156 free_energy=-18.325843811035156 stress="-4.179061943432316e-05 7.684120006956618e-09 -3.655075409003672e-10 7.684120006956618e-09 -4.179055758868344e-05 -4.437916256705421e-09 -3.655075409003672e-10 -4.437916256705421e-09 -4.178008748567663e-05" pbc="T T T"
Br       2.03236548       1.43709914       3.52015919       0.00000073      -0.00000027      -0.00000061
Br       6.09709560       4.31129790      10.56047973      -0.00000040       0.00000051      -0.00000051
As      -0.00000002      -0.00000013      -0.00000125       0.00000020       0.00000141      -0.00000245
Cl       1.93634425       1.36920231       7.04032000       0.00252247       0.00178313       0.00000154
Cl       6.19311612       4.37919438       7.04032031      -0.00252062      -0.00178158       0.00000221
Cl       5.12892337       1.36920294       5.19708433      -0.00125936       0.00177944       0.00218248
Cl       3.00053721       4.37919470       8.88355660       0.00125983      -0.00178468      -0.00218266
Cl       3.00053809       4.37919437       5.19708466       0.00125912      -0.00178105       0.00218278
Cl       5.12892329       1.36920243       8.88355640      -0.00126228       0.00178272      -0.00218290
