9
Lattice="5.6062441625059725 -1.5591343681671488e-07 3.236766757256303 1.8687479849457258 5.28561800674303 3.2367666225483944 1.8217778239566858e-07 -3.616361984115373e-08 6.4735331989713645" Properties=species:S:1:pos:R:3:forces:R:3 energy=-28.0655574798584 free_energy=-28.0655574798584 stress="-0.0002895515935961157 1.0059406463369669e-07 6.386501638644404e-08 1.0059406463369669e-07 -0.0002895854413509369 -1.053356726288257e-07 6.386501638644404e-08 -1.053356726288257e-07 -0.0002897094236686826" pbc="T T T"
Br       1.86874568       1.32140603       3.23676622       0.00000160      -0.00000242      -0.00000000
Br       5.60624279       3.96421803       9.71030038       0.00000171      -0.00000220      -0.00000048
Bi       0.00000093      -0.00000097      -0.00000079      -0.00002303      -0.00000072       0.00005578
F        1.66531414       1.17755410       6.47353315       0.00100955       0.00071409       0.00000104
F        5.80967873       4.10806145       6.47353300      -0.00099304      -0.00070086       0.00000075
F        4.77358809       1.17755339       4.67897127      -0.00049861       0.00070331       0.00086144
F        2.70140575       4.10806256       8.26809689       0.00051652      -0.00073078      -0.00089729
F        2.70140549       4.10806151       4.67897038       0.00049548      -0.00069997       0.00086027
F        4.77358750       1.17755370       8.26809697      -0.00051047       0.00071937      -0.00088179
