9
Lattice="5.920042835442861 -8.805404396905367e-09 3.417938233739721 1.9733476280620221 5.581469661426612 3.417938191218744 -6.488875338865098e-09 -5.666574535651973e-08 6.83587647871862" Properties=species:S:1:pos:R:3:forces:R:3 energy=-17.042400360107422 free_energy=-17.042400360107422 stress="-0.00011650630040094256 -5.7107376605358695e-09 3.2946263495148287e-09 -5.7107376605358695e-09 -0.00011645899212453514 3.6636624844987864e-09 3.2946263495148287e-09 3.6636624844987864e-09 -0.00011644751793937758" pbc="T T T"
Br       1.97334772       1.39536807       3.41793810      -0.00000093       0.00000020       0.00000051
Br       5.92004290       4.18610189      10.25381526       0.00000095      -0.00000281      -0.00000078
Ga      -0.00000005      -0.00000006       0.00000005       0.00000078      -0.00000099      -0.00000101
Cl       1.91647083       1.35514896       6.83587628       0.00342146       0.00242200      -0.00000075
Cl       5.97691950       4.22632054       6.83587651      -0.00342089      -0.00242209      -0.00000049
Cl       4.96180766       1.35514920       5.07765018      -0.00171192       0.00242162       0.00296795
Cl       2.93158289       4.22632012       8.59410225       0.00170951      -0.00241888      -0.00296038
Cl       2.93158277       4.22632030       5.07765048       0.00171192      -0.00241977       0.00296250
Cl       4.96180753       1.35514937       8.59410248      -0.00171107       0.00242093      -0.00296697
