9
Lattice="5.138490744136547 -1.059605962958431e-06 2.9667089943104314 1.712829461839819 4.844614925007213 2.966708625729291 -5.446644014442228e-07 -8.365537284814553e-07 5.933418932007262" Properties=species:S:1:pos:R:3:forces:R:3 energy=-21.04596519470215 free_energy=-21.04596519470215 stress="-9.89962700259639e-06 9.194471317641728e-08 1.502754116700089e-07 9.194471317641728e-08 -1.0036874300567433e-05 1.1383031051082071e-07 1.502754116700089e-07 1.1383031051082071e-07 -1.000200973066967e-05" pbc="T T T"
Br       1.71282818       1.21115395       2.96670720      -0.00000019      -0.00000061      -0.00000146
Br       5.13848989       3.63345579       8.90012740      -0.00000147      -0.00000272      -0.00000141
N        0.00000019       0.00000022       0.00000023       0.00000258       0.00000188       0.00000984
F        1.37133203       0.96967734       5.93341898       0.00049746       0.00035691      -0.00000343
F        5.47998949       3.87493672       5.93341896      -0.00050735      -0.00035340      -0.00000108
F        4.45282558       0.96967735       4.15431812      -0.00025064       0.00035799       0.00043005
F        2.39849431       3.87493628       7.71252084       0.00025338      -0.00035679      -0.00044608
F        2.39849537       3.87493839       4.15431537       0.00025594      -0.00035840       0.00044346
F        4.45282365       0.96967671       7.71251905      -0.00024939       0.00035489      -0.00043219
