9
Lattice="9.632023659981334 6.448282409241443e-07 5.561052096778431 3.210674801283441 9.08115981674439 5.5610527203062015 -1.9908129849827574e-06 -6.440547659729393e-07 11.122107641746025" Properties=species:S:1:pos:R:3:forces:R:3 energy=-18.172027587890625 free_energy=-18.172027587890625 stress="-4.441185592440888e-05 7.0674635033185496e-09 -2.361862261324177e-09 7.0674635033185496e-09 -4.442780482349917e-05 -8.53789305921282e-09 -2.361862261324177e-09 -8.53789305921282e-09 -4.441127020982094e-05" pbc="T T T"
Br       3.21068427       2.27028620       5.56105420      -0.00000023      -0.00000125       0.00000077
Br       9.63201914       6.81086231      16.68318068       0.00000064       0.00000044      -0.00000053
N        0.00000015       0.00000209      -0.00000334      -0.00003098      -0.00001353       0.00000554
Cl       1.72807553       1.22193790      11.12210567       0.00369084       0.00261179      -0.00000230
Cl      11.11461809       7.85922426      11.12210154      -0.00366050      -0.00258771      -0.00000253
Cl       8.76798247       1.22193700       7.05761065      -0.00184023       0.00260141       0.00318223
Cl       4.07471240       7.85922493      15.18659646       0.00183883      -0.00260283      -0.00318924
Cl       4.07471354       7.85922483       7.05760992       0.00183974      -0.00260420       0.00318742
Cl       8.76798043       1.22193899      15.18659637      -0.00183791       0.00259590      -0.00318128
