9
Lattice="9.754731992665537 -1.0443879513336388e-06 5.63189850405273 3.25157703125421 9.196850039189517 5.6318973175556275 3.505720925601321e-07 -1.2052639511668497e-06 11.26379640089676" Properties=species:S:1:pos:R:3:forces:R:3 energy=-21.81591033935547 free_energy=-21.81591033935547 stress="-3.028061837540008e-05 3.6637302081032885e-09 -7.557138026470511e-09 3.6637302081032885e-09 -3.0284589229268022e-05 7.228859288943568e-09 -7.557138026470511e-09 7.228859288943568e-09 -3.0287677873275243e-05" pbc="T T T"
Br       3.25157691       2.29921424       5.63190168       0.00000002      -0.00000013       0.00000014
Br       9.75473147       6.89764135      16.89569467       0.00000063      -0.00000032      -0.00000008
Sb       0.00000020      -0.00000119      -0.00000053       0.00000203      -0.00000549      -0.00000318
Cl       1.97353974       1.39550134      11.26379403       0.00047317       0.00033572      -0.00000023
Cl      11.03277009       7.80134390      11.26379653      -0.00047195      -0.00033465      -0.00000022
Cl       8.76796346       1.39550104       7.34103334      -0.00023808       0.00033739       0.00041229
Cl       4.23834682       7.80134409      15.18655788       0.00023350      -0.00033161      -0.00040665
Cl       4.23834839       7.80134684       7.34103215       0.00023820      -0.00033727       0.00041181
Cl       8.76796068       1.39549902      15.18655995      -0.00023755       0.00033650      -0.00041378
