9
Lattice="9.71533991787082 -2.5674333587973226e-06 5.609169108061697 3.2384494138189015 9.159718793266446 5.6091601098205714 1.6110632828846312e-05 3.712375582801539e-07 11.218310311901543" Properties=species:S:1:pos:R:3:forces:R:3 energy=-33.626888275146484 free_energy=-33.626888275146484 stress="-1.569531036693661e-06 5.298408041198854e-07 -9.59859221438819e-07 5.298408041198854e-07 -2.3117015643947525e-06 7.361358598245715e-07 -9.59859221438819e-07 7.361358598245715e-07 -2.29994520850596e-06" pbc="T T T"
Br       3.23845715       2.28994509       5.60915207      -0.00000077      -0.00000055       0.00000013
Br       9.71535143       6.86978324      16.82748338       0.00000193       0.00000042      -0.00000053
Sb       0.00009124       0.00000302      -0.00002646      -0.00423944      -0.00016266       0.00105408
F        1.57762869       1.11552497      11.21829037       0.00143099       0.00097138       0.00003103
F       11.37613426       8.04416734      11.21836274       0.00113559       0.00065678      -0.00015293
F        8.92650260       1.11552799       6.97545079       0.00050098      -0.00031793      -0.00057709
F        4.02728053       8.04418834      15.46120926       0.00053197      -0.00069630      -0.00081336
F        4.02722013       8.04419266       6.97540093       0.00068468      -0.00068539       0.00077093
F        8.92655396       1.11553232      15.46123580      -0.00004613       0.00023437      -0.00031209
