9
Lattice="5.526670312045384 -1.3336944072470478e-07 3.1908251740217057 1.8422234904765882 5.2105933905885005 3.1908248642097976 1.8991829566214962e-07 -2.451481347578082e-07 6.381650019095301" Properties=species:S:1:pos:R:3:forces:R:3 energy=-33.59058380126953 free_energy=-33.59058380126953 stress="1.2967681868758518e-05 -1.8741740603900325e-08 -1.150635764446406e-08 -1.8741740603900325e-08 1.3008426321903244e-05 2.7618970221965355e-08 -1.150635764446406e-08 2.7618970221965355e-08 1.3046837921137922e-05" pbc="T T T"
Br       1.84222187       1.30264827       3.19082750      -0.00000330      -0.00000161       0.00000478
Br       5.52666937       3.90794496       9.57247712      -0.00000202       0.00000254       0.00000357
Y        0.00000015       0.00000014       0.00000062      -0.00000778      -0.00000011      -0.00000414
F        1.81447165       1.28302712       6.38164925       0.00163314       0.00115994      -0.00000211
F        5.55442200       3.92756518       6.38164990      -0.00162625      -0.00115573      -0.00000249
F        4.61943206       1.28302537       4.76220548      -0.00081621       0.00115144       0.00140899
F        2.74946280       3.92756832       8.00109386       0.00081514      -0.00114858      -0.00141042
F        2.74946274       3.92756867       4.76220380       0.00082061      -0.00115454       0.00141281
F        4.61943334       1.28302422       8.00109316      -0.00081345       0.00114655      -0.00141066
