9
Lattice="6.349857588864575 -3.079544509925288e-08 3.666091748338962 2.116619166520042 5.9867027703455715 3.666091749610175 -9.643476158154837e-08 -6.663277821020691e-08 7.332183663707787" Properties=species:S:1:pos:R:3:forces:R:3 energy=-25.015846252441406 free_energy=-25.015846252441406 stress="-3.5409670090302825e-05 -2.3196419007831537e-08 -3.7640443650843736e-08 -2.3196419007831537e-08 -3.5432585718808696e-05 2.993167314002676e-08 -3.7640443650843736e-08 2.993167314002676e-08 -3.5284192563267425e-05" pbc="T T T"
Br       2.11661893       1.49667581       3.66609188       0.00000074       0.00000004      -0.00000039
Br       6.34985764       4.49002658      10.99827606      -0.00000046      -0.00000038       0.00000055
Y        0.00000012       0.00000013      -0.00000019      -0.00000163       0.00000450      -0.00000034
Cl       2.13932605       1.51273198       7.33218374       0.00153685       0.00108384      -0.00000066
Cl       6.32715057       4.47397104       7.33218353      -0.00153562      -0.00108553       0.00000201
Cl       5.28019443       1.51273198       5.51880242      -0.00076637       0.00108352       0.00132871
Cl       3.18628227       4.47397046       9.14556457       0.00076643      -0.00108597      -0.00133149
Cl       3.18628207       4.47397091       5.51880220       0.00076681      -0.00108469       0.00133079
Cl       5.28019464       1.51273175       9.14556444      -0.00076684       0.00108454      -0.00132936
