9
Lattice="10.395217544001172 1.6986103774899333 10.880790266138604 5.29921875423002 7.500458192599287 10.503048704403877 0.5307106246531735 -0.5010181098843 21.083278104043465" Properties=species:S:1:pos:R:3:forces:R:3 energy=-62.96503448486328 free_energy=-62.96503448486328 stress="-1.1821925909316633e-06 9.8389205049898e-07 1.6321932889695745e-06 9.8389205049898e-07 -1.3598013310911483e-06 3.033730706647475e-07 1.6321932889695745e-06 3.033730706647475e-07 4.358145361038623e-06" pbc="T T T"
C        0.00575537      -0.88445016       3.48059383       0.00085431       0.00079110       0.00012398
C       14.99626162       8.49746310      23.16472348       0.00032657       0.00034645      -0.00010127
N        0.74973023       1.42417241       1.38972859      -0.00071657       0.00157768      -0.00041437
O        1.15915411      -1.44638459      25.57702677      -0.00210786      -0.00065870      -0.00219333
O       14.61846398       8.75500801      22.06576521      -0.00050509      -0.00079991       0.00126350
O        9.48247788       1.74253047      13.89143877       0.00057483      -0.00013852       0.00018120
O        7.05292097       7.33945234      33.41267450       0.00117593      -0.00104690       0.00038111
O        5.34042251       5.75387649      12.84220176       0.00012898       0.00034142       0.00071770
O       11.49568916       3.61045045      34.04505057       0.00026898      -0.00041294       0.00004101
