9
Lattice="6.845542689946372 1.1065184719281697e-08 3.9522758638813595 2.2818475441385453 6.454039683257588 3.9522759151660685 -6.39873944975825e-08 1.7564767564257503e-08 7.904551838592097" Properties=species:S:1:pos:R:3:forces:R:3 energy=-24.515445709228516 free_energy=-24.515445709228516 stress="6.74682087264955e-05 2.504032980965576e-09 -4.791632424172576e-09 2.504032980965576e-09 6.744835991412401e-05 8.425211639462304e-09 -4.791632424172576e-09 8.425211639462304e-09 6.746873987140134e-05" pbc="T T T"
Ca       2.28184768       1.61351021       3.95227619      -0.00000024       0.00000054       0.00000136
Ca       6.84554259       4.84052974      11.85682734       0.00000001      -0.00000075       0.00000014
As      -0.00000009       0.00000004       0.00000023       0.00000034      -0.00000011       0.00000038
I        2.33036579       1.64781760       7.90455170      -0.00089745      -0.00063415      -0.00000024
I        6.79702435       4.80622206       7.90455182       0.00089727       0.00063445      -0.00000041
I        5.68035962       1.64781748       5.97043202       0.00044892      -0.00063514      -0.00077750
I        3.44703049       4.80622209       9.83867165      -0.00044890       0.00063549       0.00077747
I        3.44703047       4.80622202       5.97043191      -0.00044861       0.00063456      -0.00077780
I        5.68035978       1.64781760       9.83867161       0.00044858      -0.00063491       0.00077666
