9
Lattice="6.013779802923789 -5.0786300157070863e-08 3.4720574463929403 2.004593312769464 5.669845857676113 3.4720572852948868 1.3338382698865366e-07 -1.02987396614951e-07 6.944114661758313" Properties=species:S:1:pos:R:3:forces:R:3 energy=-32.18158721923828 free_energy=-32.18158721923828 stress="0.00011169129720656201 3.4112931923679923e-10 3.0063819878023423e-08 3.4112931923679923e-10 0.00011168817582074553 -5.241232159391984e-08 3.0063819878023423e-08 -5.241232159391984e-08 0.00011167515185661614" pbc="T T T"
Ca       2.00459365       1.41746080       3.47205718       0.00000069      -0.00000120      -0.00000020
Ca       6.01378097       4.25238455      10.41617253       0.00000277       0.00000022       0.00000174
As       0.00000002      -0.00000017       0.00000020      -0.00000503      -0.00000199      -0.00000066
Cl       2.01742802       1.42653696       6.94411482       0.00044918       0.00031856       0.00000064
Cl       6.00094473       4.24330864       6.94411447      -0.00044721      -0.00031486      -0.00000142
Cl       5.00506553       1.42653709       5.21920114      -0.00022596       0.00031987       0.00039077
Cl       3.01330735       4.24330915       8.66902819       0.00022525      -0.00031897      -0.00039303
Cl       3.01330737       4.24330832       5.21920141       0.00022301      -0.00031468       0.00038779
Cl       5.00506535       1.42653750       8.66902768      -0.00022298       0.00031319      -0.00038558
