9
Lattice="5.132787887878527 2.5265622725567797e-07 2.9634171410492116 1.7109294621599656 4.839239174246819 2.9634172657673568 -6.485514927188427e-08 1.0688843285982925e-07 5.926834394430778" Properties=species:S:1:pos:R:3:forces:R:3 energy=-43.03667068481445 free_energy=-43.03667068481445 stress="0.00012738713121507317 5.761000920756487e-08 -4.7216669685212764e-08 5.761000920756487e-08 0.00012742971011903137 5.244476497523465e-08 -4.7216669685212764e-08 5.244476497523465e-08 0.0001274892856599763" pbc="T T T"
Ca       1.71093115       1.20981009       2.96341649       0.00000711      -0.00000114      -0.00000601
Ca       5.13278685       3.62942932       8.89024969      -0.00000360      -0.00000117      -0.00001053
As      -0.00000004      -0.00000026      -0.00000097       0.00000098       0.00000514       0.00001574
F        1.74144791       1.23139056       5.92683421      -0.00209230      -0.00147957      -0.00000304
F        5.10226898       3.60784940       5.92683609       0.00209016       0.00147945       0.00000852
F        4.26206393       1.23138984       4.47155647       0.00104538      -0.00148374      -0.00181389
F        2.58165366       3.60784915       7.38211342      -0.00104186       0.00147569       0.00181019
F        2.58165414       3.60785045       4.47155525      -0.00103989       0.00147414      -0.00180787
F        4.26206268       1.23138993       7.38211527       0.00103405      -0.00146836       0.00180721
