9
Lattice="4.608439505064878 -9.507805172186432e-08 2.660683770639515 1.536146409219571 4.344877774903397 2.660683775538186 -4.5470500650060375e-08 -2.6152880106842166e-08 5.321367620036271" Properties=species:S:1:pos:R:3:forces:R:3 energy=-46.58363342285156 free_energy=-46.58363342285156 stress="0.0003620874776970595 -1.0139434181155593e-07 5.798462154871231e-09 -1.0139434181155593e-07 0.0003618782793637365 -8.332280998502029e-08 5.798462154871231e-09 -8.332280998502029e-08 0.0003620069765020162" pbc="T T T"
Ca       1.53614652       1.08621907       2.66068403       0.00000070      -0.00000037       0.00000224
Ca       4.60843889       3.25865807       7.98205108      -0.00000207      -0.00000306      -0.00000183
B       -0.00000006      -0.00000044       0.00000035       0.00000110       0.00000102       0.00000100
F        1.47477227       1.04282102       5.32136774      -0.00493264      -0.00348812       0.00000070
F        4.66981404       3.30205685       5.32136736       0.00493205       0.00348926      -0.00000003
F        3.87105360       1.04282109       3.93787334       0.00246543      -0.00348878      -0.00427276
F        2.27353237       3.30205679       6.70486139      -0.00246650       0.00348800       0.00427324
F        2.27353221       3.30205624       3.93787393      -0.00246763       0.00349146      -0.00427628
F        3.87105358       1.04282178       6.70486117       0.00246984      -0.00348973       0.00427413
