9
Lattice="7.03526069456858 -1.6319583845696834e-07 4.061809742131835 2.3450867544511342 6.6329074650557285 4.061809724596326 1.806673463109184e-08 -8.70139992779622e-09 8.123619452971171" Properties=species:S:1:pos:R:3:forces:R:3 energy=-24.053539276123047 free_energy=-24.053539276123047 stress="6.00807907176204e-05 -8.994898159642162e-09 5.429820593150225e-09 -8.994898159642162e-09 6.009396747685969e-05 -5.954365001059614e-09 5.429820593150225e-09 -5.954365001059614e-09 6.008900163578801e-05" pbc="T T T"
Ca       2.34508739       1.65822697       4.06181007       0.00000179      -0.00000192       0.00000065
Ca       7.03525991       4.97468048      12.18542853      -0.00000239       0.00000211      -0.00000053
Bi       0.00000027      -0.00000029      -0.00000008      -0.00000159       0.00000203       0.00000247
I        2.47271231       1.74847161       8.12361954      -0.00037526      -0.00026552      -0.00000002
I        6.90763529       4.88443556       8.12361941       0.00037521       0.00026518      -0.00000016
I        5.79890412       1.74847179       6.20324144       0.00018793      -0.00026652      -0.00032572
I        3.58144303       4.88443568      10.04399782      -0.00018574       0.00026418       0.00032356
I        3.58144316       4.88443581       6.20324149      -0.00018774       0.00026589      -0.00032470
I        5.79890439       1.74847156      10.04399746       0.00018780      -0.00026539       0.00032441
