9
Lattice="6.114756196760112 -2.975784601966383e-07 3.5303558937631214 2.038251829767867 5.765047377690196 3.5303558162697293 8.075764147840915e-08 -3.780536891334276e-08 7.060711647649845" Properties=species:S:1:pos:R:3:forces:R:3 energy=-27.89461898803711 free_energy=-27.89461898803711 stress="-7.401773473247886e-05 -2.5874012266058344e-08 2.07152233144825e-08 -2.5874012266058344e-08 -7.409734098473564e-05 1.8474144880542553e-08 2.07152233144825e-08 1.8474144880542553e-08 -7.421601185342297e-05" pbc="T T T"
Ca       2.03825136       1.44126077       3.53035504      -0.00000364      -0.00000630      -0.00000194
Ca       6.11475544       4.32378537      10.59106770      -0.00000674      -0.00000271      -0.00000051
B        0.00001173       0.00000870       0.00000373       0.00014347       0.00010770       0.00004170
Br       1.88804856       1.33505138       7.06071100       0.00790063       0.00558755       0.00000128
Br       6.26495131       4.42999008       7.06071096      -0.00800091      -0.00566059       0.00000213
Br       5.17072877       1.33505469       5.16545631      -0.00397550       0.00560549       0.00687963
Br       2.98227824       4.42999157       8.95596620       0.00397216      -0.00563812      -0.00690147
Br       2.98227839       4.42999153       5.16545664       0.00395881      -0.00561795       0.00688100
Br       5.17072871       1.33505415       8.95596587      -0.00398834       0.00562498      -0.00690192
