9
Lattice="6.5196185300962055 -7.669129978860878e-08 3.7641036081952466 2.1732060906782595 6.14675544962063 3.7641036319507504 -1.875752325768177e-09 2.7768100148638632e-08 7.528207219639404" Properties=species:S:1:pos:R:3:forces:R:3 energy=-28.021718978881836 free_energy=-28.021718978881836 stress="0.00012001820869045332 -1.132897597955207e-08 6.292863119483627e-09 -1.132897597955207e-08 0.0001200325641548261 -1.1411391831472883e-08 6.292863119483627e-09 -1.1411391831472883e-08 0.00012002097355434671" pbc="T T T"
Ca       2.17320569       1.53668896       3.76410340      -0.00000200      -0.00000150       0.00000021
Ca       6.51961866       4.61006636      11.29231114       0.00000034       0.00000046      -0.00000131
Bi       0.00000003      -0.00000016       0.00000015      -0.00000043       0.00000287      -0.00000079
Br       2.29211917       1.62077311       7.52820732      -0.00076693      -0.00054231       0.00000017
Br       6.40070553       4.52598222       7.52820716       0.00076674       0.00054163       0.00000036
Br       5.37355896       1.62077332       5.74913717       0.00038508      -0.00054303      -0.00066516
Br       3.31926588       4.52598218       9.30727716      -0.00038397       0.00054301       0.00066487
Br       3.31926592       4.52598237       5.74913724      -0.00038395       0.00054280      -0.00066496
Br       5.37355866       1.62077321       9.30727712       0.00038532      -0.00054394       0.00066665
