9
Lattice="6.607498314747533 -4.5416714499806545e-09 3.814840990466944 2.2024994346719433 6.229609083302468 3.8148409892464454 2.7048797935592417e-08 1.7631551235419217e-08 7.629681934084" Properties=species:S:1:pos:R:3:forces:R:3 energy=-24.069072723388672 free_energy=-24.069072723388672 stress="-9.160524496110156e-05 3.2166211916262455e-09 7.171918170456593e-09 3.2166211916262455e-09 -9.160424815490842e-05 -7.0181256361934174e-09 7.171918170456593e-09 -7.0181256361934174e-09 -9.162180504063144e-05" pbc="T T T"
Ca       2.20250035       1.55740201       3.81484146       0.00000124      -0.00000008       0.00000251
Ca       6.60749736       4.67220784      11.44452327      -0.00000142       0.00000172       0.00000031
B        0.00000020      -0.00000022      -0.00000006      -0.00000029      -0.00000023      -0.00000098
I        2.16269240       1.52925407       7.62968180       0.00211104       0.00149150      -0.00000065
I        6.64730516       4.70035470       7.62968201      -0.00210908      -0.00149040      -0.00000009
I        5.52615216       1.52925430       5.68778728      -0.00105590       0.00149146       0.00182708
I        3.28384563       4.70035477       9.57157648       0.00105472      -0.00149209      -0.00182750
I        3.28384584       4.70035455       5.68778709       0.00105564      -0.00149263       0.00182679
I        5.52615203       1.52925441       9.57157633      -0.00105596       0.00149072      -0.00182742
