9
Lattice="6.204198106635351 -6.439110492924165e-08 3.5819954950804638 2.068065946014437 5.849374151580378 3.5819955450019627 -3.096487440974098e-08 3.924556982077664e-08 7.163991043793713" Properties=species:S:1:pos:R:3:forces:R:3 energy=-28.322681427001953 free_energy=-28.322681427001953 stress="0.00014445262786466628 -1.4150470128981851e-08 -2.3313924124579444e-09 -1.4150470128981851e-08 0.00014445047418121248 -1.082981881950218e-08 -2.3313924124579444e-09 -1.082981881950218e-08 0.00014443793043028563" pbc="T T T"
Ca       2.06806640       1.46234314       3.58199569      -0.00000038       0.00000020       0.00000007
Ca       6.20419779       4.38703099      10.74598642      -0.00000040       0.00000053      -0.00000027
Ga      -0.00000005      -0.00000028      -0.00000007      -0.00000013       0.00000399       0.00000096
Br       2.07664988       1.46841307       7.16399103      -0.00686426      -0.00485334      -0.00000051
Br       6.19561421       4.38096100       7.16399092       0.00686161       0.00485341       0.00000109
Br       5.16587281       1.46841351       5.38042715       0.00343246      -0.00485603      -0.00594702
Br       3.10639093       4.38096101       8.94755517      -0.00343022       0.00485306       0.00594214
Br       3.10639107       4.38096087       5.38042704      -0.00343194       0.00485325      -0.00594258
Br       5.16587304       1.46841322       8.94755497       0.00343326      -0.00485506       0.00594618
