9
Lattice="6.774456320244293 9.535935426188369e-08 3.9112340506409233 2.2581521865991414 6.38701868728703 3.9112340680560607 -3.7700498272760636e-08 -5.32918075409105e-09 7.822468166581019" Properties=species:S:1:pos:R:3:forces:R:3 energy=-23.803951263427734 free_energy=-23.803951263427734 stress="3.434787504374981e-05 -2.2275470357158156e-09 -4.124728059107241e-10 -2.2275470357158156e-09 3.4344215237069875e-05 4.653083252037504e-09 -4.124728059107241e-10 4.653083252037504e-09 3.434811151237227e-05" pbc="T T T"
Ca       2.25815161       1.59675464       3.91123399      -0.00000040      -0.00000011      -0.00000046
Ca       6.77445636       4.79026442      11.73370261      -0.00000008       0.00000035       0.00000099
Ga       0.00000020       0.00000038      -0.00000043      -0.00000170      -0.00000329       0.00000013
I        2.28296517       1.61430008       7.82246813      -0.00313730      -0.00221862       0.00000025
I        6.74964296       4.77271828       7.82246814       0.00314209       0.00222057      -0.00000068
I        5.63297381       1.61430023       5.88833957       0.00156921      -0.00221957      -0.00271593
I        3.39963480       4.77271864       9.75659644      -0.00157072       0.00222005       0.00271857
I        3.39963514       4.77271838       5.88834003      -0.00157075       0.00222076      -0.00271935
I        5.63297384       1.61430008       9.75659666       0.00156961      -0.00222014       0.00271652
