9
Lattice="4.879714559582066 -2.808384186385829e-07 2.8173043820119315 1.626571274015255 4.600638869140795 2.8173043492215117 -9.218463765030742e-08 -1.053443269717526e-07 5.634608923692378" Properties=species:S:1:pos:R:3:forces:R:3 energy=-45.60745620727539 free_energy=-45.60745620727539 stress="0.0004905378445982933 -2.104716045892019e-08 -1.0158806240667673e-08 -2.104716045892019e-08 0.0004906061803922057 -3.080138810673816e-09 -1.0158806240667673e-08 -3.080138810673816e-09 0.0004905519308522344" pbc="T T T"
Ca       1.62657120       1.15015934       2.81730511       0.00000025      -0.00000063       0.00000256
Ca       4.87971441       3.45047826       8.45191376      -0.00000036      -0.00000151       0.00000198
Ga       0.00000022       0.00000014       0.00000042       0.00000007       0.00000198      -0.00000441
F        1.57021447       1.11030991       5.63460873      -0.00180638      -0.00127578       0.00000042
F        4.93607163       3.49032930       5.63460823       0.00180125       0.00127298      -0.00000145
F        4.09460636       1.11030928       4.17715006       0.00090328      -0.00127584      -0.00156373
F        2.41167899       3.49032944       7.09206708      -0.00090232       0.00127929       0.00156325
F        2.41167855       3.49032917       4.17715037      -0.00090095       0.00127643      -0.00156146
F        4.09460699       1.11030928       7.09206714       0.00090462      -0.00127697       0.00156331
