9
Lattice="5.893691681048198 -2.8580094900998295e-08 3.402724457789779 1.964563822441821 5.5566260548660384 3.4027245345114556 -4.3253145010958694e-08 6.337991468479662e-08 6.805448990496142" Properties=species:S:1:pos:R:3:forces:R:3 energy=-32.60451126098633 free_energy=-32.60451126098633 stress="8.568744669901207e-05 -3.434678319536033e-08 -9.265731515384346e-10 -3.434678319536033e-08 8.57141349115409e-05 3.797171910235875e-09 -9.265731515384346e-10 3.797171910235875e-09 8.563420124119148e-05" pbc="T T T"
Ca       1.96456354       1.38915717       3.40272429      -0.00000140       0.00000275      -0.00000010
Ca       5.89369167       4.16746865      10.20817410       0.00000162      -0.00000390       0.00000079
Ga      -0.00000013       0.00000021      -0.00000167       0.00000020       0.00000098       0.00002268
Cl       1.94508951       1.37538627       6.80544890      -0.00038788      -0.00027367       0.00000003
Cl       5.91316623       4.18123988       6.80544899       0.00038733       0.00027295      -0.00000004
Cl       4.92114696       1.37538674       5.08722154       0.00019807      -0.00027806      -0.00034098
Cl       2.93710798       4.18124037       8.52367693      -0.00018900       0.00026674       0.00032941
Cl       2.93710889       4.18123942       5.08722168      -0.00019813       0.00027895      -0.00034120
Cl       4.92114719       1.37538567       8.52367720       0.00018930      -0.00026678       0.00032935
