9
Lattice="5.943127062138189 1.1964801216272395e-07 3.4312660129802564 1.981042478162478 5.603233813928248 3.431265993388632 7.26364926473979e-08 2.736707668830069e-08 6.8625319001504055" Properties=species:S:1:pos:R:3:forces:R:3 energy=-36.000972747802734 free_energy=-36.000972747802734 stress="0.00023477464856114239 -1.1970853197595943e-09 -1.0977765363406888e-08 -1.1970853197595943e-09 0.00023475682246498764 4.2967505109459125e-09 -1.0977765363406888e-08 4.2967505109459125e-09 0.0002347303816350177" pbc="T T T"
Ca       1.98104220       1.40080841       3.43126593      -0.00000045       0.00000079      -0.00000194
Ca       5.94312699       4.20242544      10.29379817      -0.00000038      -0.00000120       0.00000366
Ir       0.00000005       0.00000054       0.00000015       0.00000298      -0.00001396       0.00000413
Cl       1.93131072       1.36564296       6.86253201      -0.00214339      -0.00151444      -0.00000089
Cl       5.99285872       4.23759064       6.86253187       0.00214648       0.00151845      -0.00000032
Cl       4.97747180       1.36564298       5.10383000       0.00107137      -0.00151502      -0.00185433
Cl       2.94669806       4.23759094       8.62123350      -0.00107265       0.00151895       0.00185610
Cl       2.94669812       4.23759098       5.10383009      -0.00107412       0.00151879      -0.00185836
Cl       4.97747178       1.36564300       8.62123391       0.00107010      -0.00151237       0.00185203
