9
Lattice="4.844551729769012 -1.2817905247163642e-07 2.797003237600921 1.6148504533971997 4.567487149751948 2.7970032416611046 -2.102615850652646e-08 -9.895061005098164e-09 5.59400651162024" Properties=species:S:1:pos:R:3:forces:R:3 energy=-46.85542297363281 free_energy=-46.85542297363281 stress="0.0006913283141329885 -1.263246645066829e-07 -6.842145694463397e-08 -1.263246645066829e-07 0.0006913829129189253 2.4339193771538703e-08 -6.842145694463397e-08 2.4339193771538703e-08 0.0006914887926541269" pbc="T T T"
Ca       1.61485117       1.14187201       2.79700330       0.00000118       0.00000047      -0.00000054
Ca       4.84455222       3.42561517       8.39100990       0.00000208      -0.00000043       0.00000165
Ir       0.00000011      -0.00000018       0.00000053      -0.00000060       0.00000301      -0.00001930
F        1.66587063       1.17794870       5.59400651      -0.00546533      -0.00386414       0.00000042
F        4.79353156       3.38953881       5.59400613       0.00546157       0.00386262       0.00000013
F        4.01161605       1.17794882       4.23969012       0.00273567      -0.00386789      -0.00473693
F        2.44778554       3.38953791       6.94832256      -0.00274011       0.00387338       0.00474381
F        2.44778584       3.38953793       4.23968992      -0.00273243       0.00386360      -0.00473237
F        4.01161553       1.17794876       6.94832319       0.00273770      -0.00387079       0.00474283
