9
Lattice="6.204992251034147 5.0877004831637416e-08 3.582453793742793 2.0683307674589764 5.850122775562768 3.5824538471818115 -4.371838157206869e-08 3.4535603255680364e-08 7.164907663208037" Properties=species:S:1:pos:R:3:forces:R:3 energy=-32.66292953491211 free_energy=-32.66292953491211 stress="0.00011740952322725207 4.3592543463866207e-10 -6.380012074203023e-09 4.3592543463866207e-10 0.0001174149292637594 2.6216365967002275e-08 -6.380012074203023e-09 2.6216365967002275e-08 0.00011738165630958974" pbc="T T T"
Ca       2.06833057       1.46253064       3.58245335      -0.00000023       0.00000021      -0.00000050
Ca       6.20499235       4.38759238      10.74736237      -0.00000046       0.00000014       0.00000189
Ir      -0.00000005       0.00000084      -0.00000073      -0.00000394      -0.00001881       0.00001927
Br       2.03362259       1.43798833       7.16490761      -0.00418562      -0.00295983      -0.00000045
Br       6.23970004       4.41213422       7.16490741       0.00419620       0.00296804      -0.00000135
Br       5.18818096       1.43798867       5.34362282       0.00209691      -0.00296388      -0.00363058
Br       3.08514206       4.41213415       8.98619245      -0.00209508       0.00296292       0.00362576
Br       3.08514246       4.41213409       5.34362277      -0.00209846       0.00296895      -0.00363424
Br       5.18818092       1.43798812       8.98619316       0.00209066      -0.00295759       0.00362030
