9
Lattice="6.679404911585754 5.31892916527988e-08 3.856356194373776 2.2264683578338578 6.29740337356853 3.856356187749359 7.97949079703892e-09 -2.4708186545443602e-09 7.712712374926724" Properties=species:S:1:pos:R:3:forces:R:3 energy=-29.118240356445312 free_energy=-29.118240356445312 stress="-0.0001087998753064312 -4.996433933257549e-09 1.0884986245685013e-08 -4.996433933257549e-09 -0.00010879906767513603 -1.4800621173094441e-08 1.0884986245685013e-08 -1.4800621173094441e-08 -0.0001087780183297582" pbc="T T T"
Ca       2.22646828       1.57435081       3.85635635      -0.00000000      -0.00000024       0.00000063
Ca       6.67940497       4.72305256      11.56906861       0.00000016       0.00000081       0.00000024
Ir       0.00000012       0.00000019       0.00000035      -0.00000012      -0.00000240      -0.00000266
I        2.19466414       1.55186186       7.71271237       0.00412557       0.00291705       0.00000032
I        6.71120900       4.74554145       7.71271227      -0.00412443      -0.00291596      -0.00000016
I        5.58207292       1.55186203       5.75699122      -0.00206310       0.00291757       0.00357294
I        3.32380039       4.74554144       9.66843332       0.00206216      -0.00291680      -0.00357175
I        3.32380042       4.74554132       5.75699123       0.00206210      -0.00291688       0.00357163
I        5.58207286       1.55186203       9.66843330      -0.00206236       0.00291678      -0.00357126
