9
Lattice="6.2743820653621425 -6.086724215226797e-08 3.6225161809776947 2.091460631584766 5.915544222113768 3.622516180082432 3.077411553410343e-08 2.0664106075219083e-08 7.245032308653071" Properties=species:S:1:pos:R:3:forces:R:3 energy=-34.61489486694336 free_energy=-34.61489486694336 stress="0.00012173569848528132 1.063492760522422e-08 1.188073461833028e-08 1.063492760522422e-08 0.00012172651622677222 -2.939952459257711e-08 1.188073461833028e-08 -2.939952459257711e-08 0.00012172734568594024" pbc="T T T"
Ca       2.09146051       1.47888602       3.62251662       0.00000030      -0.00000048       0.00000107
Ca       6.27438228       4.43665828      10.86754736      -0.00000050       0.00000077      -0.00000325
Mo      -0.00000024      -0.00000046      -0.00000091       0.00000382       0.00000927       0.00001809
Br       2.11678472       1.49679278       7.24503202      -0.00244963      -0.00173244      -0.00000028
Br       6.24905834       4.41875168       7.24503279       0.00244181       0.00172716       0.00000162
Br       5.21598942       1.49679304       5.45570582       0.00122596      -0.00173350      -0.00212201
Br       3.14985297       4.41875166       9.03435956      -0.00121750       0.00172293       0.00211074
Br       3.14985311       4.41875094       5.45570608      -0.00122685       0.00173403      -0.00212245
Br       5.21598983       1.49679274       9.03435934       0.00122255      -0.00172782       0.00211643
