9
Lattice="6.805381428779917 -1.1395440546713944e-07 3.929088917962359 2.2684603558993413 6.4161752097229785 3.929088940346284 -1.4998225360324359e-09 2.6354134090556215e-08 7.858177838522414" Properties=species:S:1:pos:R:3:forces:R:3 energy=-30.472204208374023 free_energy=-30.472204208374023 stress="0.0001102597379940562 -3.7066765656845746e-08 4.367361139401282e-09 -3.7066765656845746e-08 0.00011028640437871218 -9.058606309508832e-09 4.367361139401282e-09 -9.058606309508832e-09 0.00011030304449377581" pbc="T T T"
Ca       2.26846047       1.60404374       3.92908926       0.00000024       0.00000006       0.00000051
Ca       6.80538127       4.81213117      11.78726620       0.00000018      -0.00000102      -0.00000147
Mo      -0.00000005      -0.00000007      -0.00000016       0.00000428       0.00000080       0.00000199
I        2.28733809       1.61739261       7.85817773      -0.00577751      -0.00408481      -0.00000029
I        6.78650367       4.79878274       7.85817802       0.00577405       0.00408274       0.00000098
I        5.66171219       1.61739251       5.90998223       0.00288905      -0.00408638      -0.00500363
I        3.41212968       4.79878282       9.80637363      -0.00288900       0.00408598       0.00500383
I        3.41212960       4.79878258       5.90998234      -0.00289032       0.00408772      -0.00500542
I        5.66171222       1.61739236       9.80637351       0.00288899      -0.00408507       0.00500352
