9
Lattice="5.062736774625134 -8.527816241304864e-08 2.9229723929229023 1.6875788429913408 4.7731935149437685 2.9229723954910445 7.797106157254746e-09 8.658633385474241e-09 5.845944772340793" Properties=species:S:1:pos:R:3:forces:R:3 energy=-48.43037033081055 free_energy=-48.43037033081055 stress="0.000176316243596375 -6.624270465493964e-09 2.4706579893063463e-08 -6.624270465493964e-09 0.0001763090695021674 -2.3122520786955647e-08 2.4706579893063463e-08 -2.3122520786955647e-08 0.00017636561824474484" pbc="T T T"
Ca       1.68757925       1.19329772       2.92297217       0.00000104      -0.00000174       0.00000017
Ca       5.06273693       3.57989516       8.76891666      -0.00000122       0.00000114      -0.00000159
Mo      -0.00000023       0.00000006      -0.00000007       0.00000166       0.00000712      -0.00000546
F        1.71003717       1.20917812       5.84594500       0.00009859       0.00006843       0.00000079
F        5.04027844       3.56401539       5.84594507      -0.00010264      -0.00007045      -0.00000042
F        4.20771802       1.20917814       4.40390763      -0.00005096       0.00007176       0.00008893
F        2.54259726       3.56401500       7.28798196       0.00005108      -0.00007150      -0.00008869
F        2.54259717       3.56401515       4.40390777       0.00005090      -0.00007185       0.00008941
F        4.20771833       1.20917913       7.28798190      -0.00004825       0.00006735      -0.00008291
