9
Lattice="5.969823300984579 5.138849252523822e-08 3.4466790544749046 1.9899409865111788 5.62840390564538 3.4466793355287524 -2.5758793281177243e-07 1.6207711530517178e-07 6.893358555105133" Properties=species:S:1:pos:R:3:forces:R:3 energy=-38.63833999633789 free_energy=-38.63833999633789 stress="0.00029746571090072393 -7.760516673727125e-09 -7.09262408804534e-08 -7.760516673727125e-09 0.0002975775278173387 -2.3988718567125034e-08 -7.09262408804534e-08 -2.3988718567125034e-08 0.00029740421450696886" pbc="T T T"
Ca       1.98994167       1.40710043       3.44667914       0.00000339       0.00000257      -0.00000191
Ca       5.96982302       4.22130370      10.34003839       0.00000063      -0.00000190      -0.00000189
Mo      -0.00000002       0.00000047       0.00000039      -0.00000024      -0.00000977      -0.00000963
Cl       1.99839170       1.41307729       6.89335875      -0.00606823      -0.00429004       0.00000211
Cl       5.96137189       4.21532706       6.89335792       0.00606999       0.00429311      -0.00000131
Cl       4.97062650       1.41307644       5.17733727       0.00302885      -0.00428775      -0.00525013
Cl       2.98913725       4.21532709       8.60937863      -0.00303546       0.00429527       0.00526021
Cl       2.98913735       4.21532715       5.17733818      -0.00303255       0.00429140      -0.00525314
Cl       4.97062675       1.41307692       8.60937897       0.00303368      -0.00429285       0.00525558
