9
Lattice="5.636116074910322 9.472923755711149e-08 3.2540130149986477 1.8787054563580015 5.313780950064412 3.254012999855393 2.2404312890772045e-08 -2.7044081680498664e-09 6.5080259911919045" Properties=species:S:1:pos:R:3:forces:R:3 energy=-29.549991607666016 free_energy=-29.549991607666016 stress="-6.314869096968323e-05 1.9904325410102786e-10 -1.3706957346926174e-08 1.9904325410102786e-10 -6.314880010904744e-05 2.353033146107464e-08 -1.3706957346926174e-08 2.353033146107464e-08 -6.318688974715769e-05" pbc="T T T"
Ca       1.87870580       1.32844483       3.25401309       0.00000092      -0.00000032       0.00000017
Ca       5.63611563       3.98533573       9.76203937      -0.00000026       0.00000098       0.00000019
N       -0.00001162      -0.00000780       0.00000682      -0.00021385      -0.00014694       0.00012932
Cl       1.88047012       1.32969304       6.50802577      -0.00152647      -0.00107975      -0.00000412
Cl       5.63436180       3.98409554       6.50802556       0.00171210       0.00121043      -0.00000278
Cl       4.69588468       1.32968856       4.88254171       0.00083139      -0.00116228      -0.00143363
Cl       2.81893931       3.98409041       8.13350691      -0.00078743       0.00112696       0.00137091
Cl       2.81893747       3.98409286       4.88254181      -0.00081781       0.00117016      -0.00143233
Cl       4.69588298       1.32969100       8.13350691       0.00080145      -0.00111933       0.00137236
