9
Lattice="4.451478443903789 -1.4864350161832246e-07 2.5700623881537883 1.4838260937778582 4.1968940239703745 2.570062239279886 9.251727181942998e-08 -1.1691294383330996e-07 5.140124616062979" Properties=species:S:1:pos:R:3:forces:R:3 energy=-42.988773345947266 free_energy=-42.988773345947266 stress="-4.892682045465335e-05 -3.3983064895437565e-07 1.1641186858923902e-07 -3.3983064895437565e-07 -4.871078272117302e-05 -2.1914252101851162e-07 1.1641186858923902e-07 -2.1914252101851162e-07 -4.837724918616004e-05" pbc="T T T"
Ca       1.48382664       1.04922343       2.57006238      -0.00000123       0.00000031      -0.00000025
Ca       4.45147825       3.14767052       7.71018701       0.00000014      -0.00000043       0.00000020
N       -0.00000187      -0.00000243      -0.00000151       0.00004485       0.00005731       0.00003260
F        1.46226762       1.03397881       5.14012446       0.00018764       0.00013411      -0.00000041
F        4.47303895       3.16291602       5.14012444      -0.00022632      -0.00016260      -0.00000188
F        3.72034438       1.03397878       3.83642359      -0.00009400       0.00013030       0.00015312
F        2.21495931       3.16291541       6.44382676       0.00009942      -0.00015074      -0.00017637
F        2.21496038       3.16291496       3.83642418       0.00008371      -0.00013047       0.00014633
F        3.72034509       1.03397940       6.44382536      -0.00009370       0.00012189      -0.00015360
