9
Lattice="6.7706577174675395 1.3606462419700474e-08 3.909041039492183 2.256885918107974 6.383437369368219 3.909041040432466 4.362239355286144e-09 4.236107002758063e-09 7.818082071428797" Properties=species:S:1:pos:R:3:forces:R:3 energy=-24.576385498046875 free_energy=-24.576385498046875 stress="8.754795271670446e-05 -2.175912428015181e-08 -8.533772799523831e-09 -2.175912428015181e-08 8.756310126045719e-05 2.0200236150458295e-08 -8.533772799523831e-09 2.0200236150458295e-08 8.759114280110225e-05" pbc="T T T"
Ca       2.25688544       1.59585885       3.90904096      -0.00000041      -0.00000090      -0.00000108
Ca       6.77065827       4.78757811      11.72712356       0.00000123      -0.00000052       0.00000171
P       -0.00000010       0.00000010      -0.00000009      -0.00000028       0.00000044       0.00000004
I        2.30529138       1.63008721       7.81808219      -0.00244460      -0.00172836       0.00000006
I        6.72225228       4.75335042       7.81808181       0.00244376       0.00172858       0.00000043
I        5.61801194       1.63008731       5.90548182       0.00122257      -0.00172970      -0.00211664
I        3.40953155       4.75335021       9.73068212      -0.00122208       0.00172941       0.00211556
I        3.40953190       4.75335018       5.90548194      -0.00122236       0.00172959      -0.00211565
I        5.61801190       1.63008714       9.73068229       0.00122216      -0.00172851       0.00211550
