9
Lattice="5.014586420768675 -1.9001221949648807e-07 2.895172021110681 1.6715285186191535 4.727797466878119 2.895172210178825 -4.262194329385168e-07 -6.982235966741641e-08 5.790344780455099" Properties=species:S:1:pos:R:3:forces:R:3 energy=-42.72868728637695 free_energy=-42.72868728637695 stress="9.375879017170519e-05 -4.285778132384621e-08 -1.3518112496058166e-07 -4.285778132384621e-08 9.347996819997206e-05 -4.037798717604346e-08 -1.3518112496058166e-07 -4.037798717604346e-08 9.384145232615992e-05" pbc="T T T"
Ca       1.67152836       1.18195348       2.89517049      -0.00000072       0.00001758      -0.00000510
Ca       5.01458460       3.54584509       8.68551970      -0.00000838      -0.00001263       0.00001386
P        0.00000099      -0.00000143      -0.00000185      -0.00000444       0.00000530       0.00000862
F        1.73740889       1.22853451       5.79034526      -0.00023088      -0.00015894       0.00000286
F        4.94870560       3.49926046       5.79034232       0.00023630       0.00015476      -0.00000950
F        4.14588165       1.22853641       4.39981124       0.00011738      -0.00015366      -0.00020739
F        2.54023266       3.49926206       7.18087920      -0.00011350       0.00015023       0.00020120
F        2.54023408       3.49926280       4.39981211      -0.00011140       0.00015974      -0.00020325
F        4.14588139       1.22853443       7.18087636       0.00011554      -0.00016233       0.00019842
