9
Lattice="6.048921755362351 2.264777589217901e-08 3.492346446720336 2.016307267142572 5.702977938874562 3.492346457108181 1.605180930613191e-08 2.4072793392113892e-08 6.984692865638167" Properties=species:S:1:pos:R:3:forces:R:3 energy=-30.78923988342285 free_energy=-30.78923988342285 stress="3.4130978747271e-05 1.1217656137318954e-08 -4.161411659708847e-09 1.1217656137318954e-08 3.4123229852411896e-05 -5.795122604013159e-09 -4.161411659708847e-09 -5.795122604013159e-09 3.412541263969615e-05" pbc="T T T"
Ca       2.01630728       1.42574437       3.49234683      -0.00000089       0.00000159       0.00000141
Ca       6.04892128       4.27723428      10.47703939      -0.00000058       0.00000115      -0.00000035
P        0.00000037      -0.00000076      -0.00000003      -0.00000049      -0.00000061       0.00000049
Cl       2.08468472       1.47409426       6.98469265      -0.00180972      -0.00128141      -0.00000032
Cl       5.98054481       4.22888373       6.98469299       0.00181037       0.00127935       0.00000057
Cl       5.00657945       1.47409430       5.29773621       0.00090490      -0.00128001      -0.00156665
Cl       3.05864943       4.22888370       8.67165008      -0.00090389       0.00127977       0.00156665
Cl       3.05864940       4.22888359       5.29773537      -0.00090370       0.00127864      -0.00156689
Cl       5.00657941       1.47409445       8.67164965       0.00090402      -0.00127855       0.00156516
