9
Lattice="6.320909215345476 -1.0558985752974506e-07 3.6493785843040345 2.1069696714223998 5.959410342413581 3.64937852796919 1.381344552721118e-08 -5.922826323329104e-08 7.298757144682519" Properties=species:S:1:pos:R:3:forces:R:3 energy=-27.867359161376953 free_energy=-27.867359161376953 stress="7.56159279262647e-05 -3.6085903154514654e-09 -5.86442538974552e-09 -3.6085903154514654e-09 7.561032543890178e-05 6.339263780574811e-09 -5.86442538974552e-09 6.339263780574811e-09 7.560585800092667e-05" pbc="T T T"
Ca       2.10697015       1.48985230       3.64937891       0.00000130       0.00000008       0.00000103
Ca       6.32090832       4.46955777      10.94813505      -0.00000210      -0.00000007      -0.00000125
P       -0.00000007      -0.00000023      -0.00000007       0.00000033       0.00000089       0.00000057
Br       2.17587899       1.53857852       7.29875714      -0.00021161      -0.00015034      -0.00000071
Br       6.25200001       4.42083167       7.29875738       0.00021262       0.00015022       0.00000023
Br       5.23296979       1.53857869       5.53374492       0.00010587      -0.00015013      -0.00018418
Br       3.19490941       4.42083159       9.06376951      -0.00010613       0.00014986       0.00018424
Br       3.19490916       4.42083154       5.53374475      -0.00010598       0.00014934      -0.00018398
Br       5.23296987       1.53857887       9.06376941       0.00010578      -0.00014995       0.00018403
