9
Lattice="5.900832771188173 -1.5507180068110082e-07 3.406847420993647 1.9669441296927312 5.563358388598621 3.4068473883736763 -3.21333510250257e-08 -6.26727791194523e-08 6.813694897643858" Properties=species:S:1:pos:R:3:forces:R:3 energy=-36.56916046142578 free_energy=-36.56916046142578 stress="7.459417975042015e-05 -4.504408224192957e-08 -1.108494984691788e-08 -4.504408224192957e-08 7.462099165422842e-05 9.630494623991126e-09 -1.108494984691788e-08 9.630494623991126e-09 7.467217074008659e-05" pbc="T T T"
Ca       1.96694532       1.39084094       3.40684769       0.00000274       0.00000315       0.00000108
Ca       5.90083126       4.17251687      10.22054355      -0.00000384      -0.00000782       0.00000512
Ru       0.00000009      -0.00000008       0.00000014      -0.00000280       0.00000117      -0.00000800
Cl       1.94249638       1.37355269       6.81369476      -0.00034669      -0.00024418       0.00000020
Cl       5.92528018       4.18980561       6.81369456       0.00035008       0.00024721      -0.00000228
Cl       4.92958419       1.37355300       5.08909885       0.00017488      -0.00024576      -0.00030601
Cl       2.93819262       4.18980540       8.53829026      -0.00017619       0.00024982       0.00030817
Cl       2.93819307       4.18980544       5.08909861      -0.00017428       0.00024621      -0.00030552
Cl       4.92958435       1.37355280       8.53829036       0.00017599      -0.00024980       0.00030714
