9
Lattice="4.817886572581805 -4.394857644865294e-08 2.781607919172673 1.6059621104193318 4.542346963107721 2.781607986733266 -5.989362017264037e-08 4.039338741208367e-08 5.5632159420840965" Properties=species:S:1:pos:R:3:forces:R:3 energy=-48.033470153808594 free_energy=-48.033470153808594 stress="0.0004336810379754752 9.24805299007403e-09 -4.589863067394617e-08 9.24805299007403e-09 0.00043380126589909196 -3.2268367533561104e-08 -4.589863067394617e-08 -3.2268367533561104e-08 0.0004337762657087296" pbc="T T T"
Ca       1.60596273       1.13558625       2.78160825       0.00000018      -0.00000054       0.00000065
Ca       4.81788640       3.40676069       8.34482435       0.00000104       0.00000129       0.00000239
Ru      -0.00000010      -0.00000006      -0.00000017       0.00000129       0.00000054       0.00000060
F        1.66519224       1.17746835       5.56321599      -0.00336510      -0.00238028       0.00000073
F        4.75865637       3.36487866       5.56321582       0.00336352       0.00237957      -0.00000251
F        3.98529012       1.17746867       4.22370685       0.00168189      -0.00237954      -0.00291535
F        2.43855831       3.36487858       6.90272478      -0.00168249       0.00238016       0.00291380
F        2.43855820       3.36487807       4.22370660      -0.00168206       0.00237906      -0.00291488
F        3.98529018       1.17746860       6.90272498       0.00168246      -0.00238028       0.00291485
