9
Lattice="5.887171068776354 7.699097484787781e-08 3.3989599926643246 1.9623903819885797 5.550478411653359 3.3989600738248282 -6.830773465004565e-08 5.110005755856826e-08 6.7979201036411405" Properties=species:S:1:pos:R:3:forces:R:3 energy=-35.63313293457031 free_energy=-35.63313293457031 stress="0.00014562642900273204 -2.9277840596364513e-08 3.592751873782163e-09 -2.9277840596364513e-08 0.00014563006698153913 1.2224223411294588e-08 3.592751873782163e-09 1.2224223411294588e-08 0.00014565158926416188" pbc="T T T"
Ca       1.96239078       1.38761979       3.39896047       0.00000360      -0.00000052       0.00000090
Ca       5.88717089       4.16285862      10.19687932      -0.00000024      -0.00000091      -0.00000161
Rh      -0.00000014      -0.00000042       0.00000061      -0.00000090       0.00000653      -0.00001201
Cl       1.92749372       1.36294405       6.79792022      -0.00170257      -0.00120376      -0.00000036
Cl       5.92206786       4.18753500       6.79791999       0.00169984       0.00120280       0.00000190
Cl       4.92342404       1.36294432       5.06821882       0.00085019      -0.00120416      -0.00147306
Cl       2.92613733       4.18753427       8.52762130      -0.00085267       0.00120491       0.00147708
Cl       2.92613738       4.18753427       5.06821864      -0.00085021       0.00120096      -0.00147192
Cl       4.92342366       1.36294427       8.52762128       0.00085282      -0.00120584       0.00147905
