9
Lattice="4.856629383425218 -6.035731941768713e-08 2.803976483910785 1.618876457298854 4.57887396895853 2.803976392003805 6.175912525260403e-08 -6.889232635099716e-08 5.607952860851601" Properties=species:S:1:pos:R:3:forces:R:3 energy=-46.829368591308594 free_energy=-46.829368591308594 stress="0.00021132492111064494 -2.3983774966040983e-08 5.827198990004945e-08 -2.3983774966040983e-08 0.00021134271810296923 -9.649550491985792e-08 5.827198990004945e-08 -9.649550491985792e-08 0.00021134736016392708" pbc="T T T"
Ca       1.61887637       1.14471842       2.80397639      -0.00000008      -0.00000024      -0.00000062
Ca       4.85662964       3.43415524       8.41192915       0.00000090      -0.00000103      -0.00000015
Rh       0.00000006       0.00000016      -0.00000004      -0.00000579      -0.00000640      -0.00000325
F        1.63959196       1.15936658       5.60795272       0.00095898       0.00067839       0.00000014
F        4.83591382       3.41950720       5.60795311      -0.00095171      -0.00067317       0.00000119
F        4.03683361       1.15936656       4.22390479      -0.00047910       0.00067893       0.00083166
F        2.43867236       3.41950739       6.99200087       0.00047752      -0.00067717      -0.00082910
F        2.43867240       3.41950731       4.22390509       0.00047493      -0.00067216       0.00082481
F        4.03683349       1.15936666       6.99200098      -0.00047556       0.00067252      -0.00082469
