9
Lattice="6.155145847083737 1.6796324240792234e-08 3.553675050152918 2.051715289185517 5.8031271678909295 3.553675065761112 -5.100132758573906e-09 1.550980957752938e-08 7.107350109139489" Properties=species:S:1:pos:R:3:forces:R:3 energy=-32.22100830078125 free_energy=-32.22100830078125 stress="4.2572551137709524e-06 1.2784313163649585e-08 -2.434334511747238e-09 1.2784313163649585e-08 4.258517037669662e-06 3.3378926289628907e-09 -2.434334511747238e-09 3.3378926289628907e-09 4.247467586537823e-06" pbc="T T T"
Ca       2.05171475       1.45078175       3.55367524      -0.00000197      -0.00000034       0.00000036
Ca       6.15514649       4.35234550      10.66102502       0.00000256       0.00000036      -0.00000028
Rh       0.00000018       0.00000016      -0.00000033      -0.00000241      -0.00000061       0.00000379
Br       2.02675300       1.43313080       7.10734993      -0.00501619      -0.00354671      -0.00000056
Br       6.18010816       4.36999642       7.10735032       0.00501749       0.00354765      -0.00000063
Br       5.14176923       1.43313052       5.30889468       0.00250878      -0.00354700      -0.00434422
Br       3.06509157       4.36999662       8.90580578      -0.00250809       0.00354641       0.00434261
Br       3.06509154       4.36999639       5.30889466      -0.00250793       0.00354654      -0.00434358
Br       5.14176960       1.43313064       8.90580561       0.00250769      -0.00354631       0.00434246
