9
Lattice="6.6821842296152685 -1.0753153077696018e-07 3.8579609518132756 2.227394658052367 6.300023689040893 3.857960923703875 7.199304145744142e-09 -2.9336148403492915e-08 7.715921891156959" Properties=species:S:1:pos:R:3:forces:R:3 energy=-28.987594604492188 free_energy=-28.987594604492188 stress="-4.9528774979989976e-05 -3.0652390847762945e-08 2.0992843019485008e-08 -3.0652390847762945e-08 -4.950969378114678e-05 -2.732692294671324e-08 2.0992843019485008e-08 -2.732692294671324e-08 -4.9489492084831e-05" pbc="T T T"
Ca       2.22739491       1.57500575       3.85796065       0.00000107      -0.00000040      -0.00000087
Ca       6.68218387       4.72501778      11.57388328      -0.00000139      -0.00000012       0.00000072
Ru       0.00000007      -0.00000024      -0.00000006       0.00000166       0.00000332      -0.00000059
I        2.21805437       1.56840115       7.71592191      -0.00157962      -0.00111766       0.00000022
I        6.69152469       4.73162248       7.71592181       0.00157684       0.00111485      -0.00000041
I        5.57315690       1.56840137       5.77885236       0.00079093      -0.00111783      -0.00136966
I        3.33642195       4.73162235       9.65299131      -0.00079067       0.00111853       0.00136979
I        3.33642185       4.73162226       5.77885239      -0.00079010       0.00111814      -0.00136947
I        5.57315696       1.56840131       9.65299140       0.00079126      -0.00111884       0.00137025
