9
Lattice="6.182829710167023 1.4846126772097691e-08 3.5696583854895505 2.0609432459307047 5.829227744338684 3.5696583937838122 -6.317724639194058e-09 5.69104719431669e-09 7.139316781921712" Properties=species:S:1:pos:R:3:forces:R:3 energy=-33.18363571166992 free_energy=-33.18363571166992 stress="-0.00014911698235664517 -5.162401173208764e-09 4.753986537764376e-09 -5.162401173208764e-09 -0.00014912070764694363 3.835519013506428e-09 4.753986537764376e-09 3.835519013506428e-09 -0.0001491373695898801" pbc="T T T"
Ca       2.06094326       1.45730690       3.56965838       0.00000007       0.00000031      -0.00000082
Ca       6.18282971       4.37192087      10.70897522       0.00000149      -0.00000056      -0.00000031
Ru       0.00000012       0.00000006       0.00000004      -0.00000259      -0.00000038       0.00000119
Br       2.03908670       1.44185208       7.13931683       0.00019198       0.00013588       0.00000014
Br       6.20468622       4.38737565       7.13931676      -0.00019076      -0.00013443       0.00000038
Br       5.16328642       1.44185199       5.33555926      -0.00009608       0.00013449       0.00016560
Br       3.08048651       4.38737569       8.94307427       0.00009645      -0.00013537      -0.00016638
Br       3.08048651       4.38737579       5.33555923       0.00009514      -0.00013541       0.00016618
Br       5.16328634       1.44185204       8.94307427      -0.00009573       0.00013558      -0.00016597
