9
Lattice="6.47806977966174 -5.8399386417368844e-08 3.7401154013618383 2.15935656450349 6.107582764946075 3.740115355735439 -1.0391022813322133e-08 -6.322820797176205e-08 7.480230820721445" Properties=species:S:1:pos:R:3:forces:R:3 energy=-28.040224075317383 free_energy=-28.040224075317383 stress="5.3146555728744715e-05 -9.89064918854865e-09 -3.567980910723634e-10 -9.89064918854865e-09 5.316002352628857e-05 8.880554069889968e-09 -3.567980910723634e-10 8.880554069889968e-09 5.3161365940468386e-05" pbc="T T T"
Ca       2.15935656       1.52689544       3.74011589       0.00000001      -0.00000040       0.00000145
Ca       6.47806986       4.58068699      11.22034604       0.00000057       0.00000038       0.00000022
Sb      -0.00000078      -0.00000030       0.00000002       0.00000866       0.00000427       0.00000005
Br       2.25983617       1.59794544       7.48023052       0.00081876       0.00057891      -0.00000008
Br       6.37759109       4.50963793       7.48023071      -0.00082672      -0.00058366      -0.00000014
Br       5.34815182       1.59794511       5.69719053      -0.00041102       0.00058031       0.00071107
Br       3.28927434       4.50963740       9.26327100       0.00041042      -0.00058071      -0.00071163
Br       3.28927432       4.50963743       5.69719064       0.00041057      -0.00058067       0.00071155
Br       5.34815193       1.59794512       9.26327100      -0.00041127       0.00058155      -0.00071239
