9
Lattice="6.987403449410479 -8.250788817553692e-08 4.034179333968547 2.3291344844487387 6.587787085934779 4.0341791969614595 1.0441229813462631e-07 -9.396811300934388e-08 8.068358487089872" Properties=species:S:1:pos:R:3:forces:R:3 energy=-24.120309829711914 free_energy=-24.120309829711914 stress="0.00019952937145717442 1.1555823853370839e-08 -1.1333638472166285e-09 1.1555823853370839e-08 0.00019952203729189932 -2.591400427576218e-09 -1.1333638472166285e-09 -2.591400427576218e-09 0.00019951270951423794" pbc="T T T"
Ca       2.32913436       1.64694654       4.03417901      -0.00000044      -0.00000038       0.00000087
Ca       6.98740342       4.94084006      12.10253773      -0.00000033      -0.00000128      -0.00000001
Sb       0.00000042      -0.00000020      -0.00000006      -0.00000225       0.00000014       0.00000162
I        2.43896900       1.72461134       8.06835848      -0.00732087      -0.00517730      -0.00000004
I        6.87756890       4.86317548       8.06835860       0.00732326       0.00517948      -0.00000100
I        5.76791898       1.72461167       6.14638870       0.00366139      -0.00517730      -0.00634170
I        3.54861915       4.86317539       9.99032878      -0.00366126       0.00517669       0.00633963
I        3.54861909       4.86317532       6.14638852      -0.00366116       0.00517761      -0.00634073
I        5.76791883       1.72461204       9.99032833       0.00366164      -0.00517765       0.00634149
