9
Lattice="6.216328592952839 2.148610881621342e-08 3.588999634160259 2.072109475204802 5.860811192545669 3.5889997658598056 3.094699426701997e-07 3.8012667732049807e-07 7.177998732302873" Properties=species:S:1:pos:R:3:forces:R:3 energy=-31.613845825195312 free_energy=-31.613845825195312 stress="9.79022206593072e-06 -8.72437055932096e-09 -2.2134244659355318e-08 -8.72437055932096e-09 9.809960829443298e-06 5.400560443291624e-09 -2.2134244659355318e-08 5.400560443291624e-09 9.834532647801097e-06" pbc="T T T"
Ca       2.07210922       1.46520668       3.58899634      -0.00000056       0.00001081      -0.00000655
Ca       6.21632842       4.39561238      10.76699876      -0.00000082       0.00000972      -0.00000219
Sb      -0.00000039      -0.00000108       0.00000078       0.00000435       0.00000391      -0.00000601
Cl       2.16310015       1.52954102       7.17799968      -0.00026897      -0.00019556       0.00000440
Cl       6.12533997       4.33126844       7.17799912       0.00027052       0.00018561       0.00000059
Cl       5.13477935       1.52954107       5.46229978       0.00013696      -0.00019619      -0.00023159
Cl       3.15365934       4.33126788       8.89370016      -0.00013813       0.00018787       0.00024009
Cl       3.15365875       4.33126851       5.46229842      -0.00013641       0.00018856      -0.00023383
Cl       5.13477872       1.52954160       8.89369955       0.00013332      -0.00019473       0.00023487
