9
Lattice="6.398992656254634 -2.8869913464752312e-08 3.6944600041808355 2.132997572215931 6.0330279423459965 3.6944599221684165 3.242786187231346e-08 -7.751436590055585e-08 7.388919952194998" Properties=species:S:1:pos:R:3:forces:R:3 energy=-35.81504821777344 free_energy=-35.81504821777344 stress="0.00017166465113405138 1.9295272934982677e-08 1.15541043399503e-08 1.9295272934982677e-08 0.0001716121769277379 -1.9779649917950337e-08 1.15541043399503e-08 -1.9779649917950337e-08 0.00017160979041364044" pbc="T T T"
Ca       2.13299732       1.50825684       3.69445970      -0.00000028      -0.00000072      -0.00000097
Ca       6.39899288       4.52477108      11.08337983      -0.00000051       0.00000098      -0.00000034
Ta       0.00000039       0.00000036      -0.00000000      -0.00000206      -0.00000687       0.00000093
Br       2.13264267       1.50800611       7.38892004      -0.00229293      -0.00162077       0.00000026
Br       6.39934717       4.52502147       7.38892007       0.00229645       0.00162572       0.00000003
Br       5.33267157       1.50800552       5.54138225       0.00114483      -0.00161934      -0.00198245
Br       3.19931881       4.52502210       9.23645755      -0.00114581       0.00162107       0.00198412
Br       3.19931883       4.52502201       5.54138242      -0.00114557       0.00162089      -0.00198507
Br       5.33267137       1.50800596       9.23645756       0.00114596      -0.00162083       0.00198352
