9
Lattice="6.94632328990847 -2.253473777320897e-07 4.010461643025338 2.315440938491121 6.549056181463828 4.010461548949903 3.1118581172128514e-08 -9.321425628524151e-08 8.020923232151718" Properties=species:S:1:pos:R:3:forces:R:3 energy=-31.627761840820312 free_energy=-31.627761840820312 stress="4.495244502322748e-05 -7.486172570736471e-09 -7.088260645105038e-09 -7.486172570736471e-09 4.495191024034284e-05 5.472951425389283e-09 -7.088260645105038e-09 5.472951425389283e-09 4.495436587603763e-05" pbc="T T T"
Ca       2.31544127       1.63726445       4.01046192       0.00000004       0.00000079       0.00000018
Ca       6.94632295       4.91179133      12.03138437      -0.00000053      -0.00000128      -0.00000125
Ta      -0.00000012      -0.00000015       0.00000035       0.00000164      -0.00000008      -0.00000386
I        2.31776128       1.63890453       8.02092322       0.00016394       0.00011599      -0.00000028
I        6.94400291       4.91015116       8.02092330      -0.00016406      -0.00011620       0.00000019
I        5.78744262       1.63890483       6.01770221      -0.00008258       0.00011638       0.00014150
I        3.47432192       4.91015097      10.02414422       0.00008030      -0.00011376      -0.00013840
I        3.47432177       4.91015115       6.01770200       0.00008154      -0.00011554       0.00014034
I        5.78744246       1.63890512      10.02414408      -0.00008008       0.00011349      -0.00013846
