9
Lattice="6.114137484209235 5.724615927673825e-07 3.529998882616288 2.038046506999165 5.7644624500897335 3.5299986415018667 1.0703390982982777e-07 -2.1961918029121434e-07 7.059997579844409" Properties=species:S:1:pos:R:3:forces:R:3 energy=-39.82503128051758 free_energy=-39.82503128051758 stress="5.038662857259624e-05 6.12897554930214e-09 -2.219939787551084e-08 6.12897554930214e-09 5.0361712055746466e-05 5.725620422225575e-09 -2.219939787551084e-08 5.725620422225575e-09 5.0366317736916244e-05" pbc="T T T"
Ca       2.03804990       1.44111407       3.52999696       0.00000857      -0.00000287      -0.00000323
Ca       6.11413889       4.32334916      10.58999047       0.00000369       0.00000278      -0.00001313
Ta      -0.00000063      -0.00000026       0.00000077      -0.00000408      -0.00000038       0.00000563
Cl       2.02236065       1.43002578       7.05999714       0.00003600       0.00002402       0.00000319
Cl       6.12982116       4.33443717       7.05999848      -0.00003493      -0.00001973       0.00000728
Cl       5.10295577       1.43002674       5.28141697      -0.00001711       0.00001591       0.00002700
Cl       3.04922587       4.33443573       8.83858103       0.00001812      -0.00002736      -0.00002849
Cl       3.04922745       4.33443712       5.28141699       0.00001276      -0.00002009       0.00003111
Cl       5.10295703       1.43002576       8.83858148      -0.00002372       0.00002772      -0.00002939
