9
Lattice="5.059202764520838 -4.022477716687332e-08 2.9209321212491437 1.6864009817843542 4.769861782119877 2.920931951158784 3.603472697542695e-07 4.648673120565655e-08 5.841863618358454" Properties=species:S:1:pos:R:3:forces:R:3 energy=-51.34834671020508 free_energy=-51.34834671020508 stress="0.0005324477097019553 2.1866382482471636e-08 2.7316245265751604e-08 2.1866382482471636e-08 0.0005323664518073201 2.0404002043505898e-08 2.7316245265751604e-08 2.0404002043505898e-08 0.0005324594094417989" pbc="T T T"
Ca       1.68640098       1.19246554       2.92093205       0.00000189       0.00000138       0.00000080
Ca       5.05920371       3.57739633       8.76279595       0.00000192      -0.00000017       0.00000112
Ta       0.00000032      -0.00000022       0.00000047       0.00000099       0.00000204       0.00000192
F        1.69449670       1.19819031       5.84186349      -0.00202930      -0.00143313       0.00000010
F        5.05110767       3.57167246       5.84186352       0.00202632       0.00143170      -0.00000092
F        4.21195429       1.19819032       4.38840847       0.00101346      -0.00143254      -0.00175691
F        2.53364892       3.57167169       7.29531885      -0.00101429       0.00143206       0.00175428
F        2.53364952       3.57167087       4.38840928      -0.00101370       0.00143087      -0.00175583
F        4.21195421       1.19819010       7.29531902       0.00101298      -0.00143301       0.00175524
