9
Lattice="6.093770923825396 -7.217657532693924e-08 3.5182402948363762 2.031256948706279 5.745262112735929 3.5182402218364572 4.683752258935942e-08 -5.628718774077956e-08 7.036480508547807" Properties=species:S:1:pos:R:3:forces:R:3 energy=-30.15302848815918 free_energy=-30.15302848815918 stress="0.000255303195444867 -3.903529499638125e-09 6.7912786505530676e-09 -3.903529499638125e-09 0.0002553191443439573 -1.4220868926884123e-08 6.7912786505530676e-09 -1.4220868926884123e-08 0.00025531018036417663" pbc="T T T"
Ca       2.03125749       1.43631529       3.51823999       0.00000004      -0.00000021      -0.00000098
Ca       6.09377084       4.30894693      10.55472078       0.00000039       0.00000132      -0.00000010
Tl      -0.00000017      -0.00000043      -0.00000008       0.00000243       0.00000435       0.00000015
Cl       2.12569778       1.50309487       7.03648038      -0.00513369      -0.00363013       0.00000063
Cl       5.99933029       4.24216689       7.03648078       0.00512949       0.00362742      -0.00000058
Cl       5.03092224       1.50309480       5.35914859       0.00256527      -0.00362726      -0.00444318
Cl       3.09410567       4.24216729       8.71381289      -0.00256503       0.00362664       0.00444160
Cl       3.09410576       4.24216704       5.35914834      -0.00256422       0.00362769      -0.00444350
Cl       5.03092174       1.50309528       8.71381238       0.00256534      -0.00362997       0.00444588
