9
Lattice="5.16237731394252 -1.3048341174741803e-07 2.9805000064129348 1.7207923434984949 4.867136002768616 2.9804999569826998 -1.8063551502986876e-07 -1.882680430851597e-07 5.96100032569574" Properties=species:S:1:pos:R:3:forces:R:3 energy=-40.51895523071289 free_energy=-40.51895523071289 stress="-1.964769217011053e-05 2.1066535182967527e-08 9.152120838962219e-09 2.1066535182967527e-08 -1.9653578419820406e-05 -2.4821284583254055e-08 9.152120838962219e-09 -2.4821284583254055e-08 -1.9611794414231554e-05" pbc="T T T"
Ca       1.72079177       1.21678375       2.98050001      -0.00000071       0.00000058       0.00000057
Ca       5.16237737       3.65035168       8.94150060      -0.00000061       0.00000027      -0.00000153
Tl       0.00000002       0.00000053       0.00000074      -0.00000326      -0.00000789      -0.00002819
F        1.81465367       1.28315331       5.96100071      -0.00144774      -0.00102566       0.00000039
F        5.06851582       3.58398176       5.96099985       0.00145644       0.00102861      -0.00000460
F        4.25505060       1.28315298       4.55203556       0.00071836      -0.00101620      -0.00124371
F        2.62811977       3.58398210       7.36996399      -0.00073178       0.00103472       0.00126418
F        2.62811833       3.58398187       4.55203597      -0.00072359       0.00101918      -0.00125131
F        4.25505063       1.28315477       7.36996405       0.00073306      -0.00103392       0.00126421
