9
Lattice="6.157215714907278 -2.997450075811277e-07 3.554870361729124 2.0524048741371135 5.805079351480999 3.554870503000379 -3.740385981202508e-07 -9.146402205364906e-08 7.109741371312176" Properties=species:S:1:pos:R:3:forces:R:3 energy=-21.951555252075195 free_energy=-21.951555252075195 stress="0.00012903341848868877 -6.6751368876794e-08 3.789935032472158e-09 -6.6751368876794e-08 0.00012907711789011955 7.97930721496698e-10 3.789935032472158e-09 7.97930721496698e-10 0.00012910357327200472" pbc="T T T"
Cd       2.05240515       1.45126905       3.55487014       0.00000007      -0.00000031      -0.00000172
Cd       6.15721522       4.35380917      10.66461140       0.00000001       0.00000015      -0.00000055
As       0.00000000      -0.00000105       0.00000215       0.00000156       0.00000960      -0.00001653
Cl       1.98890576       1.40636903       7.10974170      -0.00111810      -0.00079130       0.00000097
Cl       6.22071489       4.39871067       7.10974109       0.00111316       0.00078795       0.00000039
Cl       5.16276233       1.40636955       5.27731475       0.00056085      -0.00079372      -0.00097075
Cl       3.04685866       4.39870838       8.94216698      -0.00056351       0.00079665       0.00097656
Cl       3.04685762       4.39871040       5.27731435      -0.00055880       0.00079086      -0.00096688
Cl       5.16276123       1.40637062       8.94216642       0.00056479      -0.00079980       0.00097857
