9
Lattice="6.965339675725088 5.681076540462199e-08 4.021440618170949 2.3217799832730837 6.566985034712016 4.021440552694181 3.9181948156264545e-08 -5.248651170635122e-08 8.042881168476939" Properties=species:S:1:pos:R:3:forces:R:3 energy=-16.429887771606445 free_energy=-16.429887771606445 stress="0.00023333764693234116 1.9500767223235016e-08 3.186645614050576e-09 1.9500767223235016e-08 0.00023332527780439705 -2.2687338674387547e-09 3.186645614050576e-09 -2.2687338674387547e-09 0.0002333125885343179" pbc="T T T"
Cd       2.32177964       1.64174591       4.02144060      -0.00000045       0.00000004      -0.00000004
Cd       6.96533991       4.92523902      12.06432179       0.00000043       0.00000016      -0.00000008
As       0.00000035      -0.00000015      -0.00000028      -0.00000153      -0.00000019       0.00000175
I        2.32012983       1.64057948       8.04288101      -0.00604042      -0.00427129      -0.00000003
I        6.96698985       4.92640559       8.04288122       0.00604085       0.00427146       0.00000007
I        5.80527494       1.64057913       6.03073150       0.00301983      -0.00427058      -0.00523006
I        3.48184446       4.92640612      10.05503108      -0.00301878       0.00426982       0.00522896
I        3.48184475       4.92640600       6.03073159      -0.00301982       0.00427019      -0.00522991
I        5.80527507       1.64057907      10.05503089       0.00301986      -0.00426968       0.00522933
