9
Lattice="4.606616765252922 4.755019196830005e-10 2.6596314693820773 1.535538917138147 4.343159933110762 2.6596314781481887 1.2422119882617448e-08 1.9520023587032604e-08 5.319262917248409" Properties=species:S:1:pos:R:3:forces:R:3 energy=-32.137245178222656 free_energy=-32.137245178222656 stress="0.0001825451763579622 -2.7107585509611454e-08 -3.130794112848889e-08 -2.7107585509611454e-08 0.00018255040049552917 5.9327206258785736e-08 -3.130794112848889e-08 5.9327206258785736e-08 0.0001826140796765685" pbc="T T T"
Cd       1.53553908       1.08579004       2.65963144       0.00000055       0.00000011      -0.00000011
Cd       4.60661671       3.25737003       7.97889435      -0.00000054       0.00000000       0.00000005
As      -0.00000005       0.00000022       0.00000035      -0.00000052      -0.00000597      -0.00001184
F        1.60224012       1.13295483       5.31926291      -0.00427601      -0.00302374       0.00000004
F        4.53991558       3.21020506       5.31926290       0.00427914       0.00302586       0.00000013
F        3.80549665       1.13295474       4.04721216       0.00213797      -0.00302422      -0.00370342
F        2.33665912       3.21020488       6.59131357      -0.00214264       0.00303060       0.00371164
F        2.33665907       3.21020510       4.04721216      -0.00213817       0.00302380      -0.00370377
F        3.80549652       1.13295494       6.59131363       0.00214013      -0.00302649       0.00370714
