9
Lattice="6.5281556476116265 5.097137635764507e-09 3.7690324199225365 2.176051858034515 6.154804276396728 3.7690324706860747 -1.6129541868988692e-08 5.076708673175332e-08 7.538064867782267" Properties=species:S:1:pos:R:3:forces:R:3 energy=-19.092342376708984 free_energy=-19.092342376708984 stress="-3.6710705899167806e-05 -8.179399380026098e-09 6.814245279151976e-10 -8.179399380026098e-09 -3.6721801734529436e-05 -2.6303021982698738e-09 6.814245279151976e-10 -2.6303021982698738e-09 -3.670483783935197e-05" pbc="T T T"
Cd       2.17605192       1.53870106       3.76903257       0.00000028      -0.00000023      -0.00000030
Cd       6.52815587       4.61610331      11.30709731       0.00000016       0.00000016       0.00000006
As      -0.00000009       0.00000033       0.00000019       0.00000032      -0.00000365      -0.00000187
Br       2.14691053       1.51809544       7.53806495       0.00009128       0.00006445      -0.00000044
Br       6.55729679       4.63670898       7.53806490      -0.00009049      -0.00006364      -0.00000011
Br       5.45470031       1.51809498       5.62831155      -0.00004581       0.00006469       0.00007948
Br       3.24950734       4.63670893       9.44781775       0.00004413      -0.00006180      -0.00007686
Br       3.24950720       4.63670919       5.62831170       0.00004497      -0.00006346       0.00007804
Br       5.45470012       1.51809514       9.44781810      -0.00004478       0.00006340      -0.00007787
