9
Lattice="7.182658542410741 5.295697226812019e-08 4.146909735064094 2.3942195302275486 6.77187543710005 4.146909793672715 -6.020175189781389e-08 2.921153452677873e-08 8.293819574400674" Properties=species:S:1:pos:R:3:forces:R:3 energy=-16.467144012451172 free_energy=-16.467144012451172 stress="0.00010202100384049118 2.7423933346426566e-08 -8.402310847088756e-09 2.7423933346426566e-08 0.00010199836106039584 8.607574208951974e-09 -8.402310847088756e-09 8.607574208951974e-09 0.00010198435484198853" pbc="T T T"
Cd       2.39421966       1.69296886       4.14690984       0.00000035      -0.00000022      -0.00000016
Cd       7.18265837       5.07890679      12.44072933      -0.00000028       0.00000061      -0.00000036
Bi       0.00000027      -0.00000001      -0.00000086      -0.00000268      -0.00000032       0.00000685
I        2.49979976       1.76762555       8.29381952      -0.00585224      -0.00414057      -0.00000002
I        7.07707814       5.00424972       8.29381955       0.00585373       0.00414135      -0.00000054
I        5.93275840       1.76762543       6.31179988       0.00292793      -0.00413905      -0.00506960
I        3.64411917       5.00425062      10.27583956      -0.00292582       0.00413607       0.00506607
I        3.64411923       5.00424993       6.31179979      -0.00292690       0.00413986      -0.00506808
I        5.93275904       1.76762516      10.27583973       0.00292597      -0.00413771       0.00506587
