9
Lattice="6.715601583318236 -2.4170822512896943e-07 3.877254613349135 2.2385335941954905 6.331530194379708 3.8772546809439445 1.4242396684476995e-08 9.285732792776573e-08 7.754509202029564" Properties=species:S:1:pos:R:3:forces:R:3 energy=-15.791743278503418 free_energy=-15.791743278503418 stress="6.418438260880066e-07 1.9950466167983905e-08 5.43336042824194e-09 1.9950466167983905e-08 6.364319347085257e-07 1.6180717876679296e-09 5.43336042824194e-09 1.6180717876679296e-09 6.157702046039049e-07" pbc="T T T"
Cd       2.23853376       1.58288249       3.87725433       0.00000036       0.00000020      -0.00000013
Cd       6.71560129       4.74864789      11.63176313      -0.00000048      -0.00000005      -0.00000026
B       -0.00000000      -0.00000008      -0.00000039      -0.00000066      -0.00000056      -0.00000077
I        2.02171709       1.42957016       7.75450962       0.00184200       0.00130326      -0.00000004
I        6.93241852       4.90195977       7.75450960      -0.00184204      -0.00130259       0.00000066
I        5.70474251       1.42957010       5.62811407      -0.00092182       0.00130278       0.00159603
I        3.24939256       4.90195980       9.88090486       0.00092224      -0.00130308      -0.00159664
I        3.24939263       4.90195982       5.62811377       0.00092184      -0.00130323       0.00159630
I        5.70474239       1.42957027       9.88090511      -0.00092149       0.00130310      -0.00159534
