9
Lattice="4.38632340570897 4.804070611296233e-09 2.532445010944088 1.4621077940935776 4.135465365082741 2.5324450323154344 -4.3447741956754915e-08 -4.547730673838089e-09 5.064890097141899" Properties=species:S:1:pos:R:3:forces:R:3 energy=-36.962547302246094 free_energy=-36.962547302246094 stress="-0.0002807260607369244 -1.4611876153480807e-08 4.764851624372568e-08 -1.4611876153480807e-08 -0.00028071849374100566 2.487820083274528e-08 4.764851624372568e-08 2.487820083274528e-08 -0.00028064646176062524" pbc="T T T"
Cd       1.46210779       1.03386637       2.53244510      -0.00000014       0.00000031      -0.00000010
Cd       4.38632350       3.10159896       7.59733507      -0.00000037      -0.00000043      -0.00000008
B       -0.00000015      -0.00000011       0.00000016       0.00000246       0.00000109       0.00000040
F        1.28434268       0.90816751       5.06489003      -0.00124532      -0.00088118      -0.00000095
F        4.56408820       3.22729798       5.06488991       0.00124668       0.00088070       0.00000132
F        3.74415235       0.90816751       3.64471856       0.00062127      -0.00088109      -0.00107884
F        2.10427911       3.22729798       6.48506142      -0.00062288       0.00088003       0.00107953
F        2.10427911       3.22729798       3.64471866      -0.00062432       0.00088014      -0.00108027
F        3.74415207       0.90816732       6.48506156       0.00062234      -0.00087984       0.00107839
