9
Lattice="6.645954144875904 -6.184045913667313e-08 3.8370434914629774 2.2153179828333784 6.265865699007496 3.837043503855544 3.51256951793826e-08 4.001529959856957e-08 7.674086922086531" Properties=species:S:1:pos:R:3:forces:R:3 energy=-19.23154640197754 free_energy=-19.23154640197754 stress="0.00013634460628964007 -1.8312393379460445e-08 2.6846112000100675e-09 -1.8312393379460445e-08 0.00013635773211717606 -6.178774714094004e-10 2.6846112000100675e-09 -6.178774714094004e-10 0.00013636746734846383" pbc="T T T"
Cd       2.21531816       1.56646645       3.83704352       0.00000028       0.00000031       0.00000015
Cd       6.64595422       4.69939934      11.51113044      -0.00000023       0.00000027      -0.00000023
Bi      -0.00000059      -0.00000064      -0.00000034       0.00000519       0.00000627       0.00000161
Br       2.30803863       1.63202970       7.67408695      -0.00354710      -0.00250863      -0.00000018
Br       6.55323447       4.63383652       7.67408701       0.00354025       0.00250386       0.00000010
Br       5.49193467       1.63202972       5.83586368       0.00177316      -0.00250824      -0.00307221
Br       3.36933703       4.63383601       9.51231068      -0.00177221       0.00250670       0.00306996
Br       3.36933709       4.63383595       5.83586334      -0.00177302       0.00250725      -0.00307073
Br       5.49193497       1.63202967       9.51231044       0.00177357      -0.00250778       0.00307150
