9
Lattice="6.553169711643266 6.795375883647924e-08 3.7834740771884148 2.1843899368587 6.178387003650765 3.7834741310375817 2.57241434041368e-07 2.4784863079849234e-07 7.566947708821501" Properties=species:S:1:pos:R:3:forces:R:3 energy=-19.27255630493164 free_energy=-19.27255630493164 stress="-1.7294370991294272e-05 -1.2102826296711555e-08 2.7621467779681552e-08 -1.2102826296711555e-08 -1.7286462025367655e-05 2.3297985762837925e-08 2.7621467779681552e-08 2.3297985762837925e-08 -1.7312588170170784e-05" pbc="T T T"
Cd       2.18438988       1.54459917       3.78347470       0.00000031       0.00000111       0.00000042
Cd       6.55317124       4.63379017      11.35042269       0.00000025       0.00000049       0.00000112
B       -0.00000011       0.00000247       0.00001084      -0.00000117       0.00000442       0.00002486
Br       1.83789643       1.29958862       7.56694747      -0.00032512      -0.00023036      -0.00000861
Br       6.89966380       4.87879820       7.56694632       0.00031706       0.00022368      -0.00000390
Br       5.63422243       1.29958694       5.37513627       0.00016079      -0.00022730      -0.00028304
Br       3.10333885       4.87879564       9.75875430      -0.00016004       0.00023265       0.00027414
Br       3.10333731       4.87879871       5.37513616      -0.00015924       0.00022528      -0.00028096
Br       5.63421990       1.29958927       9.75875447       0.00016703      -0.00023001       0.00027603
