9
Lattice="6.324782378051476 1.8812594242911438e-08 3.6516148592024833 2.1082608241832923 5.963062218103207 3.6516148353646716 8.767891277434798e-10 -2.8575282031001925e-08 7.303229716886339" Properties=species:S:1:pos:R:3:forces:R:3 energy=-22.077547073364258 free_energy=-22.077547073364258 stress="0.00014329278201330453 4.1908386094746675e-08 7.863095063953551e-09 4.1908386094746675e-08 0.00014326836389955133 -5.307682293675953e-09 7.863095063953551e-09 -5.307682293675953e-09 0.0001432050485163927" pbc="T T T"
Cd       2.10826069       1.49076574       3.65161480      -0.00000045       0.00000050       0.00000045
Cd       6.32478256       4.47229675      10.95484465       0.00000006      -0.00000033       0.00000002
Bi       0.00000011      -0.00000024      -0.00000164      -0.00000195       0.00000096       0.00002166
Cl       2.15621446       1.52467382       7.30322967      -0.00637685      -0.00451000       0.00000027
Cl       6.27682863       4.43838806       7.30322971       0.00637808       0.00451000       0.00000055
Cl       5.24667517       1.52467428       5.51895137       0.00318906      -0.00450996      -0.00552376
Cl       3.18636738       4.43838931       9.08750919      -0.00318176       0.00450006       0.00551145
Cl       3.18636807       4.43838809       5.51895127      -0.00318889       0.00450967      -0.00552347
Cl       5.24667574       1.52467303       9.08750875       0.00318264      -0.00450093       0.00551286
