9
Lattice="6.840439716610077 -9.192397861394001e-08 3.9493297124802624 2.2801464815039623 6.449228466768157 3.949329719465023 -3.374748088857075e-08 -1.5308514485977972e-08 7.898659483412819" Properties=species:S:1:pos:R:3:forces:R:3 energy=-15.511226654052734 free_energy=-15.511226654052734 stress="7.80522168497555e-05 6.3401621730463376e-09 -9.252142163518329e-09 6.3401621730463376e-09 7.805104542057961e-05 1.9182762045488744e-09 -9.252142163518329e-09 1.9182762045488744e-09 7.804432971170172e-05" pbc="T T T"
Cd       2.28014678       1.61230716       3.94932968       0.00000040      -0.00000010      -0.00000047
Cd       6.84043952       4.83692116      11.84798920      -0.00000007       0.00000015      -0.00000030
Ga      -0.00000011      -0.00000008      -0.00000008       0.00000037       0.00000092       0.00000066
I        2.27396128       1.60793346       7.89865938      -0.00092004      -0.00065081       0.00000139
I        6.84662517       4.84129514       7.89865951       0.00091761       0.00064889      -0.00000068
I        5.70345881       1.60793365       5.91863809       0.00046072      -0.00064982      -0.00079615
I        3.41712727       4.84129469       9.87868084      -0.00045895       0.00064916       0.00079553
I        3.41712706       4.84129473       5.91863815      -0.00045874       0.00065064      -0.00079583
I        5.70345890       1.60793352       9.87868089       0.00045875      -0.00064907       0.00079589
