9
Lattice="5.984133140729332 -7.638193625706237e-08 3.4549407889322143 1.9947109207469094 5.64189533415606 3.4549408827214045 1.6978117552480303e-08 1.2687320168964776e-07 6.909881548457406" Properties=species:S:1:pos:R:3:forces:R:3 energy=-22.021650314331055 free_energy=-22.021650314331055 stress="0.00021259392087813467 1.74474372727218e-08 4.051772695135014e-09 1.74474372727218e-08 0.0002126187173416838 -2.235690299556836e-09 4.051772695135014e-09 -2.235690299556836e-09 0.00021264876704663038" pbc="T T T"
Cd       1.99471130       1.41047402       3.45494088      -0.00000022       0.00000025      -0.00000021
Cd       5.98413307       4.23142173      10.36482242       0.00000055       0.00000166       0.00000041
Ga      -0.00000067      -0.00000037       0.00000038       0.00000452       0.00000643      -0.00000296
Cl       1.93517761       1.36837740       6.90988154      -0.00344431      -0.00243442      -0.00000031
Cl       6.04366714       4.27351802       6.90988152       0.00343660       0.00243068      -0.00000002
Cl       5.01654463       1.36837689       5.13085401       0.00172095      -0.00243396      -0.00298056
Cl       2.96229958       4.27351841       8.68890950      -0.00172070       0.00243343       0.00297788
Cl       2.96229973       4.27351822       5.13085362      -0.00171916       0.00243142      -0.00297877
Cl       5.01654401       1.36837718       8.68890901       0.00172184      -0.00243562       0.00298423
