9
Lattice="4.990017529091948 -6.881287357300679e-08 2.880987963129793 1.6633392009761971 4.704633554075787 2.880987808129223 9.254200224506052e-08 -1.243992454178983e-07 5.7619757659722515" Properties=species:S:1:pos:R:3:forces:R:3 energy=-34.93288803100586 free_energy=-34.93288803100586 stress="0.00011701502080541104 5.607302711041484e-08 2.183310598979915e-08 5.607302711041484e-08 0.00011697700392687693 -8.976886789469063e-09 2.183310598979915e-08 -8.976886789469063e-09 0.00011693027045112103" pbc="T T T"
Cd       1.66333941       1.17615864       2.88098858      -0.00000079       0.00000272       0.00000225
Cd       4.99001771       3.52847570       8.64296378       0.00000074       0.00000212       0.00000057
Ir      -0.00000006       0.00000011      -0.00000009      -0.00000157       0.00000033       0.00000699
F        1.64603957       1.16392539       5.76197566      -0.00258344      -0.00182745      -0.00000112
F        5.00731755       3.54070768       5.76197574       0.00258408       0.00182742       0.00000054
F        4.16699767       1.16392560       4.30649949       0.00129045      -0.00182653      -0.00223713
F        2.48635849       3.54070803       7.21745253      -0.00128768       0.00182104       0.00223080
F        2.48635862       3.54070756       4.30649933      -0.00129231       0.00182506      -0.00223593
F        4.16699828       1.16392490       7.21745126       0.00129053      -0.00182474       0.00223312
