9
Lattice="6.330129852489991 -3.496009654170077e-08 3.654702189793278 2.11004326356097 5.968103613735027 3.6547021683879977 2.179752205906449e-08 -1.0802800362527519e-08 7.309404341832117" Properties=species:S:1:pos:R:3:forces:R:3 energy=-23.252071380615234 free_energy=-23.252071380615234 stress="0.0002873624034691602 1.4963273287094125e-08 7.731779660957727e-09 1.4963273287094125e-08 0.0002873638295568526 -4.612445536622545e-09 7.731779660957727e-09 -4.612445536622545e-09 0.00028736336389556527" pbc="T T T"
Cd       2.11004331       1.49202578       3.65470222      -0.00000032      -0.00000014       0.00000015
Cd       6.33012996       4.47607750      10.96410652       0.00000055      -0.00000027       0.00000005
Ir       0.00000016       0.00000043       0.00000129      -0.00000273      -0.00001049      -0.00002386
Br       2.03826062       1.44126827       7.30940429      -0.00491485      -0.00347579       0.00000057
Br       6.40191192       4.52683516       7.30940431       0.00492155       0.00348037       0.00000038
Br       5.31099951       1.44126807       5.41988766       0.00245424      -0.00347144      -0.00425112
Br       3.12917397       4.52683509       9.19892005      -0.00246229       0.00348254       0.00426589
Br       3.12917383       4.52683554       5.41988800      -0.00245687       0.00347522      -0.00425493
Br       5.31099929       1.44126842       9.19892046       0.00246067      -0.00348005       0.00426283
