9
Lattice="6.68618693502063 -6.32696970458188e-08 3.860271897226542 2.228728939009649 6.303797443130209 3.8602718620299914 -8.02170626168848e-09 -4.8778952082389076e-08 7.720543808346987" Properties=species:S:1:pos:R:3:forces:R:3 energy=-20.61792755126953 free_energy=-20.61792755126953 stress="-0.00011117970279883593 -1.1530539190118816e-08 3.1518525567264533e-09 -1.1530539190118816e-08 -0.00011117631220258772 -4.08717992783636e-09 3.1518525567264533e-09 -4.08717992783636e-09 -0.00011115741654066369" pbc="T T T"
Cd       2.22872915       1.57594887       3.86027198      -0.00000017      -0.00000042       0.00000011
Cd       6.68618668       4.72784842      11.58081560       0.00000001       0.00000077      -0.00000047
Ir      -0.00000017       0.00000048      -0.00000049       0.00000308      -0.00000369       0.00000605
I        2.19016245       1.54867867       7.72054382       0.00566448       0.00400493       0.00000015
I        6.72475363       4.75511877       7.72054385      -0.00566605      -0.00400613       0.00000037
I        5.59110559       1.54867848       5.75700852      -0.00283202       0.00400539       0.00490491
I        3.32381003       4.75511895       9.68407900       0.00283358      -0.00400573      -0.00490586
I        3.32381027       4.75511853       5.75700879       0.00283062      -0.00400294       0.00490241
I        5.59110583       1.54867817       9.68407924      -0.00283359       0.00400782      -0.00490762
