9
Lattice="6.119833937690491 3.9736842021094664e-08 3.533287742683055 2.039944673009324 5.769834995156695 3.533287760612835 -7.111745327114925e-08 -2.832816212383736e-08 7.066575608545162" Properties=species:S:1:pos:R:3:forces:R:3 energy=-26.047365188598633 free_energy=-26.047365188598633 stress="3.0946579499868676e-05 -1.2002783655873372e-08 -1.0039075348799997e-08 -1.2002783655873372e-08 3.093598206760362e-05 -1.906804020235242e-10 -1.0039075348799997e-08 -1.906804020235242e-10 3.09344322886318e-05" pbc="T T T"
Cd       2.03994443       1.44245800       3.53328823       0.00000011      -0.00000092       0.00000065
Cd       6.11983330       4.32737725      10.59986257      -0.00000145       0.00000102      -0.00000194
Ir       0.00000014      -0.00000055       0.00000010       0.00000325       0.00001739       0.00000736
Cl       1.91392543       1.35334916       7.06657564       0.00187376       0.00132376       0.00000046
Cl       6.24585383       4.41648608       7.06657510      -0.00188194      -0.00133172       0.00000074
Cl       5.16287091       1.35334946       5.19079562      -0.00093606       0.00132242       0.00162286
Cl       2.99690745       4.41648579       8.94235602       0.00094128      -0.00133063      -0.00163020
Cl       2.99690731       4.41648528       5.19079554       0.00093837      -0.00132810       0.00162667
Cl       5.16287126       1.35334969       8.94235571      -0.00093737       0.00132677      -0.00162652
