9
Lattice="6.943130538079476 -5.883770266657814e-08 4.008618364759343 2.314376812065096 6.546046155945972 4.0086183275006535 9.573424341369798e-08 2.2061907143518278e-08 8.017236563702056" Properties=species:S:1:pos:R:3:forces:R:3 energy=-22.52007293701172 free_energy=-22.52007293701172 stress="0.00018951854144688696 -1.927127124545791e-09 6.069895697180527e-09 -1.927127124545791e-09 0.00018951919628307223 -7.397604750991604e-09 6.069895697180527e-09 -7.397604750991604e-09 0.00018951577658299357" pbc="T T T"
Cd       2.31437669       1.63651142       4.00861838      -0.00000045       0.00000004       0.00000010
Cd       6.94313080       4.90953443      12.02585491       0.00000052      -0.00000004       0.00000002
Mo      -0.00000006      -0.00000021      -0.00000018      -0.00000042       0.00000069      -0.00000128
I        2.27613363       1.60946962       8.01723668      -0.00427642      -0.00302383      -0.00000015
I        6.98137383       4.93657658       8.01723667       0.00427639       0.00302438      -0.00000008
I        5.80506377       1.60946947       5.97980832       0.00213765      -0.00302343      -0.00370386
I        3.45244374       4.93657655      10.05466511      -0.00213820       0.00302422       0.00370286
I        3.45244362       4.93657679       5.97980817      -0.00213821       0.00302370      -0.00370263
I        5.80506375       1.60946977      10.05466496       0.00213902      -0.00302583       0.00370514
