9
Lattice="6.534671276232414 -1.6824216241519542e-08 3.7727943093877663 2.178223723712632 6.160947256924484 3.772794342590325 -6.158523816455955e-09 3.630982431392724e-08 7.5455886294425305" Properties=species:S:1:pos:R:3:forces:R:3 energy=-25.804214477539062 free_energy=-25.804214477539062 stress="-0.0001368044613627717 -3.462316300328894e-08 2.377532393182946e-09 -3.462316300328894e-08 -0.00013678612594958395 -9.727073313481327e-11 2.377532393182946e-09 -9.727073313481327e-11 -0.00013677187962457538" pbc="T T T"
Cd       2.17822376       1.54023682       3.77279436       0.00000023       0.00000020      -0.00000005
Cd       6.53467122       4.62071039      11.31838310       0.00000006       0.00000014       0.00000029
Mo       0.00000019       0.00000030       0.00000047      -0.00000132      -0.00000376       0.00000034
Br       2.09067476       1.47833030       7.54558860       0.00158423       0.00112012       0.00000003
Br       6.62221994       4.68261672       7.54558859      -0.00158080      -0.00111798      -0.00000038
Br       5.48933386       1.47833043       5.58337203      -0.00079010       0.00111721       0.00136821
Br       3.22356131       4.68261672       9.50780491       0.00078898      -0.00111633      -0.00136723
Br       3.22356128       4.68261692       5.58337202       0.00078906      -0.00111629       0.00136691
Br       5.48933365       1.47833053       9.50780503      -0.00079037       0.00111669      -0.00136814
