9
Lattice="6.398914682810768 1.9626040310687657e-07 3.69441479382956 2.132971673418793 6.032955697152498 3.6944149194971905 -3.4239556152161463e-07 -8.819955930539732e-08 7.388830180705638" Properties=species:S:1:pos:R:3:forces:R:3 energy=-29.155466079711914 free_energy=-29.155466079711914 stress="-1.648989382374566e-05 5.9054887202592e-08 -2.3894711986827133e-08 5.9054887202592e-08 -1.6531434084754437e-05 -1.4561527539314056e-09 -2.3894711986827133e-08 -1.4561527539314056e-09 -1.6552659872104414e-05" pbc="T T T"
Cd       2.13297400       1.50823877       3.69441462       0.00000079       0.00000042       0.00000067
Cd       6.39891369       4.52471900      11.08324774       0.00000006       0.00000108       0.00000143
Mo      -0.00000036      -0.00000037      -0.00000049      -0.00000111      -0.00000110      -0.00000102
Cl       1.95351836       1.38134627       7.38882892       0.00072935       0.00051452       0.00000127
Cl       6.57836700       4.65160866       7.38882982      -0.00072782      -0.00051291      -0.00000241
Cl       5.42215539       1.38134593       5.38621129      -0.00036747       0.00051992       0.00063454
Cl       3.10973046       4.65160903       9.39144848       0.00036564      -0.00051899      -0.00063564
Cl       3.10972986       4.65160952       5.38621093       0.00036989      -0.00052093       0.00063801
Cl       5.42215576       1.38134655       9.39144824      -0.00036933       0.00051795      -0.00063688
