9
Lattice="5.59053802180494 3.9221106261299227e-07 3.227698377742901 1.8635130659140302 5.270809758129806 3.227698339292399 1.222376503467112e-07 3.934344472082089e-08 6.455396543763886" Properties=species:S:1:pos:R:3:forces:R:3 energy=-37.448219299316406 free_energy=-37.448219299316406 stress="0.00023369933478534222 -3.312604235361505e-08 -3.534720738329611e-09 -3.312604235361505e-08 0.0002337396435905248 -9.170391734869554e-08 -3.534720738329611e-09 -9.170391734869554e-08 0.00023374034208245575" pbc="T T T"
Cd       1.86350912       1.31770736       3.22769916      -0.00000466       0.00000323       0.00000130
Cd       5.59053205       3.95310602       9.68309665      -0.00000492      -0.00000057      -0.00000112
Mo      -0.00000004      -0.00000006      -0.00000049       0.00000566       0.00001077       0.00000101
F        1.65955492       1.17348113       6.45539373      -0.00632852      -0.00447345       0.00000097
F        5.79449934       4.09732493       6.45539820       0.00632632       0.00447530      -0.00000285
F        4.76076353       1.17348273       4.66491541       0.00316483      -0.00447516      -0.00548415
F        2.69329256       4.09732703       8.24588060      -0.00316533       0.00447214       0.00547554
F        2.69329191       4.09732720       4.66491263      -0.00316149       0.00447461      -0.00548175
F        4.76076166       1.17348543       8.24587833       0.00316808      -0.00448665       0.00549102
