9
Lattice="4.478923967706938 -1.4984238410010637e-07 2.58590804279797 1.4929745378974724 4.222770200508624 2.5859080024968013 -1.439369318727092e-07 -1.511374488294591e-07 5.171816334902102" Properties=species:S:1:pos:R:3:forces:R:3 energy=-28.939674377441406 free_energy=-28.939674377441406 stress="-5.2442035666899756e-05 -7.537623503139912e-08 8.284038699457597e-08 -7.537623503139912e-08 -5.24033785040956e-05 -9.671774137132161e-08 8.284038699457597e-08 -9.671774137132161e-08 -5.222817344474606e-05" pbc="T T T"
Cd       1.49297461       1.05569235       2.58590785      -0.00000009      -0.00000092       0.00000010
Cd       4.47892369       3.16707780       7.75772419      -0.00000044      -0.00000185      -0.00000076
N        0.00000019      -0.00000067      -0.00000014      -0.00000016       0.00001534       0.00000147
F        1.41655140       1.00165349       5.17181643       0.00659299       0.00465673      -0.00000012
F        4.55534520       3.22111641       5.17181624      -0.00658095      -0.00465918      -0.00000016
F        3.77064815       1.00165330       3.81267869      -0.00329620       0.00465512       0.00570095
F        2.20125080       3.22111675       6.53095354       0.00328928      -0.00466120      -0.00569522
F        2.20125108       3.22111620       3.81267895       0.00328708      -0.00465536       0.00569010
F        3.77064785       1.00165332       6.53095356      -0.00329196       0.00465047      -0.00569642
