9
Lattice="5.652943872338206 7.597257054806682e-09 3.2637286706471764 1.884314655146035 5.32964651335067 3.263728629302196 2.2027557970338803e-09 -4.90794576944692e-08 6.527457337479125" Properties=species:S:1:pos:R:3:forces:R:3 energy=-18.648365020751953 free_energy=-18.648365020751953 stress="0.00012971251271665096 9.221201580089655e-09 4.110817020119839e-09 9.221201580089655e-09 0.00012967182556167245 7.451086858623057e-09 4.110817020119839e-09 7.451086858623057e-09 0.0001296912378165871" pbc="T T T"
Cd       1.88431474       1.33241208       3.26372817       0.00000041       0.00000089      -0.00000083
Cd       5.65294391       3.99723435       9.79118597       0.00000097      -0.00000043       0.00000022
N        0.00000068      -0.00000035      -0.00000126       0.00000684      -0.00000040      -0.00001212
Cl       1.82902001       1.29331272       6.52745720      -0.00476162      -0.00336553       0.00000031
Cl       5.70823758       4.03633385       6.52745731       0.00475942       0.00336277       0.00000063
Cl       4.73843359       1.29331296       4.84770785       0.00237822      -0.00336295      -0.00412066
Cl       2.79882474       4.03633427       8.20720769      -0.00238373       0.00336791       0.00412908
Cl       2.79882512       4.03633386       4.84770749      -0.00238065       0.00336380      -0.00412191
Cl       4.73843370       1.29331219       8.20720801       0.00238009      -0.00336600       0.00412537
