9
Lattice="6.434335972041876 1.2341582432776823e-08 3.7148656217275167 2.1447786521283225 6.066350147740548 3.7148656509208116 -2.4787422935823194e-08 1.8226895797694798e-08 7.429731286388243" Properties=species:S:1:pos:R:3:forces:R:3 energy=-18.56513023376465 free_energy=-18.56513023376465 stress="-2.885162757593207e-05 9.070966755508891e-10 1.0457292809462615e-09 9.070966755508891e-10 -2.885403773689177e-05 1.3729921366500975e-10 1.0457292809462615e-09 1.3729921366500975e-10 -2.883434535760898e-05" pbc="T T T"
Cd       2.14477883       1.51658772       3.71486556      -0.00000024      -0.00000010      -0.00000025
Cd       6.43433574       4.54976233      11.14459704      -0.00000002      -0.00000019       0.00000013
P        0.00000019      -0.00000040       0.00000021      -0.00000002      -0.00000053       0.00000013
Br       2.10897539       1.49127105       7.42973123      -0.00019877      -0.00014107      -0.00000023
Br       6.47013916       4.57507939       7.42973116       0.00019920       0.00014041       0.00000025
Br       5.37984828       1.49127097       5.54129197       0.00009907      -0.00014005      -0.00017215
Br       3.19926629       4.57507938       9.31817049      -0.00009939       0.00014087       0.00017308
Br       3.19926631       4.57507942       5.54129202      -0.00009935       0.00014089      -0.00017346
Br       5.37984818       1.49127090       9.31817054       0.00009955      -0.00014034       0.00017257
