9
Lattice="6.814723400653991 2.8127747556215867e-09 3.9344823568047023 2.2715744582951665 6.4249829424888 3.9344823762754655 -8.084711251094121e-08 -3.332086727588249e-08 7.86896485364069" Properties=species:S:1:pos:R:3:forces:R:3 energy=-16.175640106201172 free_energy=-16.175640106201172 stress="9.548302841722034e-06 8.147550190074071e-09 -2.8516580208304276e-09 8.147550190074071e-09 9.544743988953996e-06 2.8692923037532125e-10 -2.8516580208304276e-09 2.8692923037532125e-10 9.52229220274603e-06" pbc="T T T"
Cd       2.27157438       1.60624550       3.93448221       0.00000006      -0.00000030      -0.00000033
Cd       6.81472334       4.81873728      11.80344717       0.00000048       0.00000041      -0.00000035
P       -0.00000012       0.00000009       0.00000010       0.00000000      -0.00000007      -0.00000010
I        2.27814541       1.61089185       7.86896463       0.00162790       0.00115158       0.00000055
I        6.80815250       4.81409125       7.86896486      -0.00162813      -0.00115146       0.00000017
I        5.67565066       1.61089180       5.90741414      -0.00081408       0.00115146       0.00141108
I        3.41064718       4.81409115       9.83051554       0.00081422      -0.00115196      -0.00141127
I        3.41064692       4.81409091       5.90741412       0.00081413      -0.00115157       0.00141136
I        5.67565083       1.61089187       9.83051557      -0.00081455       0.00115187      -0.00141112
