9
Lattice="6.68479955796077 -2.4239926286919686e-07 3.859471082111756 2.228266365507485 6.302488333379418 3.8594709526871944 1.7479260557628267e-07 -3.491502656483194e-08 7.7189418614737235" Properties=species:S:1:pos:R:3:forces:R:3 energy=-21.722257614135742 free_energy=-21.722257614135742 stress="-6.830439815530553e-05 3.0921146532136845e-08 1.8070464236075168e-08 3.0921146532136845e-08 -6.83132020640187e-05 -2.875562188364711e-08 1.8070464236075168e-08 -2.875562188364711e-08 -6.836672400822863e-05" pbc="T T T"
Cd       2.22826621       1.57562132       3.85946990       0.00000015      -0.00000016       0.00000006
Cd       6.68480108       4.72686589      11.57841235      -0.00000016       0.00000000      -0.00000004
P        0.00000035      -0.00000010      -0.00000020      -0.00001432       0.00001147       0.00000976
Cl       1.81184411       1.28116755       7.71894165      -0.00001058      -0.00000665       0.00000080
Cl       7.10122295       5.02132097       7.71894216       0.00000352       0.00000510       0.00000064
Cl       5.77887693       1.28116704       5.42857386       0.00000741      -0.00000533      -0.00000933
Cl       3.13418739       5.02132162      10.00931224       0.00000715      -0.00000355      -0.00000992
Cl       3.13418752       5.02132202       5.42857374       0.00000139       0.00000344       0.00000095
Cl       5.77887780       1.28116610      10.00930990       0.00000548      -0.00000413       0.00000693
