9
Lattice="6.0211926341011095 1.910253793743371e-08 3.47633730298397 2.0070641484337477 5.676835199357222 3.4763374431818828 -3.305634197691993e-08 1.4833234332448798e-07 6.952674663223219" Properties=species:S:1:pos:R:3:forces:R:3 energy=-25.06266975402832 free_energy=-25.06266975402832 stress="0.00025742800789885223 -1.6666840352286272e-08 -2.960749867497725e-09 -1.6666840352286272e-08 0.00025745423045009375 2.4542108345571023e-09 -2.960749867497725e-09 2.4542108345571023e-09 0.00025749491760507226" pbc="T T T"
Cd       2.00706527       1.41920812       3.47633649       0.00000223      -0.00000240      -0.00000287
Cd       6.02119301       4.25762648      10.42901093       0.00000274       0.00000064      -0.00000270
Rh       0.00000039       0.00000068      -0.00000048      -0.00001152      -0.00000577       0.00000820
Cl       1.91427580       1.35359777       6.95267527      -0.00204132      -0.00144356       0.00000108
Cl       6.11397994       4.32323749       6.95267539       0.00204886       0.00145166       0.00000104
Cl       5.06405463       1.35359808       5.13414982       0.00102498      -0.00145000      -0.00177695
Cl       2.96420154       4.32323740       8.77120014      -0.00102268       0.00144581       0.00177258
Cl       2.96420167       4.32323751       5.13415005      -0.00102499       0.00145000      -0.00177486
Cl       5.06405469       1.35359782       8.77120023       0.00102174      -0.00144656       0.00177450
