9
Lattice="6.684071112176854 1.0421639374723408e-07 3.8590501705100047 2.228023785203421 6.301802607550168 3.859050200148244 3.688956564465797e-08 6.238430987892104e-08 7.718100277125196" Properties=species:S:1:pos:R:3:forces:R:3 energy=-19.667217254638672 free_energy=-19.667217254638672 stress="-9.972458065021783e-05 1.2494172807464565e-08 -2.105414509401271e-09 1.2494172807464565e-08 -9.97300012386404e-05 7.758466757934457e-09 -2.105414509401271e-09 7.758466757934457e-09 -9.974296699510887e-05" pbc="T T T"
Cd       2.22802395       1.57545091       3.85905036       0.00000057      -0.00000009      -0.00000011
Cd       6.68407133       4.72635216      11.57715067       0.00000064      -0.00000017      -0.00000015
Rh       0.00000067      -0.00000114       0.00000005      -0.00000743       0.00001076      -0.00000053
I        2.19103600       1.54929654       7.71810039       0.00446578       0.00315835      -0.00000025
I        6.72105905       4.75250634       7.71810020      -0.00446633      -0.00315755       0.00000041
I        5.58855305       1.54929644       5.75654307      -0.00223237       0.00315621       0.00386543
I        3.32354137       4.75250657       9.67965819       0.00223571      -0.00316135      -0.00387258
I        3.32354115       4.75250684       5.75654215       0.00223607      -0.00316317       0.00387388
I        5.58855318       1.54929646       9.67965750      -0.00223262       0.00315707      -0.00386605
