9
Lattice="6.684056332995881 -1.5947566966450524e-07 3.859041822169052 2.2280186010544756 6.301788749084695 3.859041867645255 -6.718639267711694e-08 8.188829648974558e-09 7.718083760708392" Properties=species:S:1:pos:R:3:forces:R:3 energy=-20.42707061767578 free_energy=-20.42707061767578 stress="-1.899139715533238e-05 -8.179815047526517e-09 -5.440410899559822e-10 -8.179815047526517e-09 -1.898123082355596e-05 1.6852940154521434e-09 -5.440410899559822e-10 1.6852940154521434e-09 -1.8984326743520796e-05" pbc="T T T"
Cd       2.22801883       1.57544719       3.85904190       0.00000043      -0.00000013       0.00000002
Cd       6.68405604       4.72634155      11.57712551      -0.00000062       0.00000008      -0.00000022
Ru      -0.00000012      -0.00000024       0.00000013       0.00000021       0.00000135      -0.00000001
I        2.20411356       1.55854349       7.71808383      -0.00181840      -0.00128596       0.00000008
I        6.70796164       4.74324539       7.71808372       0.00181691       0.00128455      -0.00000039
I        5.58199943       1.55854348       5.76786038       0.00090969      -0.00128554      -0.00157513
I        3.33007543       4.74324501       9.66830701      -0.00090927       0.00128600       0.00157496
I        3.33007527       4.74324497       5.76786032      -0.00090914       0.00128577      -0.00157505
I        5.58199940       1.55854354       9.66830699       0.00091017      -0.00128610       0.00157572
