9
Lattice="4.871510356921379 3.443581533494973e-08 2.8125675362185176 1.623836794291992 4.592904106529469 2.812567577467112 -1.7274192533135994e-07 -7.16279641460953e-08 5.625135371634866" Properties=species:S:1:pos:R:3:forces:R:3 energy=-34.785648345947266 free_energy=-34.785648345947266 stress="0.0004784712800756097 -1.5941492392812506e-07 1.2273240201920999e-08 -1.5941492392812506e-07 0.0004786074860021472 3.043988527906549e-08 1.2273240201920999e-08 3.043988527906549e-08 0.0004787215148098767" pbc="T T T"
Cd       1.62383728       1.14822619       2.81256730       0.00000167       0.00000020      -0.00000277
Cd       4.87150986       3.44467852       8.43770086      -0.00000049       0.00000299      -0.00000676
Rh      -0.00000011      -0.00000017       0.00000015       0.00000195       0.00000597       0.00000586
F        1.62723706       1.15063018       5.62513543      -0.00495043      -0.00350095      -0.00000084
F        4.86811005       3.44227345       5.62513660       0.00494707       0.00349800       0.00000352
F        4.05789147       1.15063088       4.22179680       0.00248058      -0.00351150      -0.00429721
F        2.43745591       3.44227325       7.02847395      -0.00247866       0.00350538       0.00429648
F        2.43745563       3.44227348       4.22179708      -0.00247964       0.00350726      -0.00429393
F        4.05789095       1.15063052       7.02847376       0.00247768      -0.00350722       0.00429571
