9
Lattice="5.186439750034465 2.966620057528719e-07 2.9943923290545773 1.7288134306058816 4.88982258106654 2.994392500703138 3.5583063808133683e-07 4.618358608497992e-07 5.9887840417924005" Properties=species:S:1:pos:R:3:forces:R:3 energy=-36.07360076904297 free_energy=-36.07360076904297 stress="3.349161852383986e-05 5.3111985920395455e-08 1.1485965067947745e-08 5.3111985920395455e-08 3.348063546582125e-05 1.681289774069228e-08 1.1485965067947745e-08 1.681289774069228e-08 3.3429594623157755e-05" pbc="T T T"
Cd       1.72881561       1.22246122       2.99439475       0.00000706       0.00001416       0.00000551
Cd       5.18644446       3.66736668       8.98318190       0.00000928      -0.00000272       0.00001714
Ru      -0.00000063      -0.00000060      -0.00000016       0.00000097       0.00000479      -0.00000430
F        1.63533088       1.15635533       5.98878396      -0.00123875      -0.00087250      -0.00000272
F        5.27992110       3.73346773       5.98878183       0.00123650       0.00086949      -0.00000435
F        4.36877374       1.15635591       4.41062919       0.00061355      -0.00087134      -0.00106940
F        2.54647689       3.73346749       7.56693771      -0.00062237       0.00086509       0.00106294
F        2.54647888       3.73346605       4.41062862      -0.00061985       0.00086526      -0.00106882
F        4.36877304       1.15635339       7.56693772       0.00061366      -0.00087226       0.00106398
