9
Lattice="6.323482682325909 -2.6762180514293365e-09 3.6508644736867883 2.107827567478449 5.96183669856151 3.650864457706322 2.921836554608566e-08 1.0885387189263573e-09 7.301728896765859" Properties=species:S:1:pos:R:3:forces:R:3 energy=-23.729400634765625 free_energy=-23.729400634765625 stress="0.00013954276801086962 2.140752108914512e-08 -1.5190896318628688e-09 2.140752108914512e-08 0.00013953502639196813 -5.808351577485382e-09 -1.5190896318628688e-09 -5.808351577485382e-09 0.00013951760774943978" pbc="T T T"
Cd       2.10782744       1.49045931       3.65086430      -0.00000040       0.00000082      -0.00000023
Cd       6.32348281       4.47137770      10.95259351       0.00000041      -0.00000006       0.00000044
Ru      -0.00000019      -0.00000009      -0.00000024       0.00000130      -0.00000003       0.00000647
Br       2.04035625       1.44274985       7.30172887      -0.00100312      -0.00070966       0.00000066
Br       6.39095438       4.51908683       7.30172891       0.00100189       0.00070848       0.00000018
Br       5.30330461       1.44274962       5.41786472       0.00050124      -0.00070890      -0.00086705
Br       3.12800547       4.51908713       9.18559344      -0.00049866       0.00070582       0.00086415
Br       3.12800571       4.51908690       5.41786464      -0.00050110       0.00070944      -0.00086825
Br       5.30330463       1.44274954       9.18559316       0.00049853      -0.00070580       0.00086395
