9
Lattice="6.155343520283706 9.203963225393408e-08 3.5537892048104887 2.0517811980462697 5.803313918336787 3.5537893124702604 5.094149162441161e-08 1.6787686667411332e-07 7.107578321387728" Properties=species:S:1:pos:R:3:forces:R:3 energy=-26.386857986450195 free_energy=-26.386857986450195 stress="0.00027939703431911767 2.5362384192817444e-08 -2.9978812765563134e-09 2.5362384192817444e-08 0.000279428088106215 9.386965871271968e-09 -2.9978812765563134e-09 9.386965871271968e-09 0.0002793764288071543" pbc="T T T"
Cd       2.05178109       1.45082899       3.55378891      -0.00000016       0.00000091      -0.00000103
Cd       6.15534320       4.35248562      10.66136702      -0.00000054      -0.00000038      -0.00000075
Ru      -0.00000015       0.00000041       0.00000078       0.00000250      -0.00000534      -0.00000989
Cl       1.92330418       1.35998205       7.10757861      -0.00400549      -0.00283402       0.00000019
Cl       6.28382085       4.44333192       7.10757856       0.00400746       0.00283444      -0.00000024
Cl       5.19369195       1.35998126       5.21941936       0.00199963      -0.00282957      -0.00346343
Cl       3.01343335       4.44333203       8.99573682      -0.00200522       0.00283675       0.00347291
Cl       3.01343312       4.44333229       5.21941967      -0.00200076       0.00283082      -0.00346704
Cl       5.19369144       1.35998237       8.99573758       0.00200260      -0.00283353       0.00346918
