9
Lattice="6.5884377737763975 5.68370356012107e-08 3.803836363125466 2.196145983807335 6.211638768670148 3.803836353376172 5.123265364823517e-08 2.4286598511026616e-08 7.60767263751343" Properties=species:S:1:pos:R:3:forces:R:3 energy=-19.31298065185547 free_energy=-19.31298065185547 stress="7.412751438096166e-05 1.2414616890055186e-08 -8.782001237328529e-10 1.2414616890055186e-08 7.412124250549823e-05 4.760224436850535e-10 -8.782001237328529e-10 4.760224436850535e-10 7.411364640574902e-05" pbc="T T T"
Cd       2.19614606       1.55290973       3.80383628       0.00000000       0.00000023      -0.00000028
Cd       6.58843779       4.65872915      11.41150923      -0.00000026      -0.00000016       0.00000046
Sb       0.00000035       0.00000115       0.00000066      -0.00000442      -0.00001080      -0.00000607
Br       2.21723754       1.56782373       7.60767273      -0.00060666      -0.00042911       0.00000044
Br       6.56734537       4.64381447       7.60767259       0.00061382       0.00043438       0.00000013
Br       5.47981907       1.56782400       5.72402042       0.00030337      -0.00042843      -0.00052501
Br       3.30476509       4.64381449       9.49132434      -0.00030578       0.00043292       0.00053006
Br       3.30476513       4.64381471       5.72402061      -0.00030432       0.00043134      -0.00052755
Br       5.47981885       1.56782400       9.49132458       0.00030422      -0.00043037       0.00052784
