9
Lattice="7.092756869841082 -1.3564257297514883e-07 4.095005118659123 2.364252237959446 6.687115238384288 4.095004987200762 5.939946593171217e-08 -1.1900118021689271e-07 8.19001013443541" Properties=species:S:1:pos:R:3:forces:R:3 energy=-16.447303771972656 free_energy=-16.447303771972656 stress="7.201930566225201e-05 -9.839307146819465e-09 4.3605039579119875e-09 -9.839307146819465e-09 7.202683627838269e-05 -6.122146345433066e-09 4.3605039579119875e-09 -6.122146345433066e-09 7.203416316770017e-05" pbc="T T T"
Cd       2.36425222       1.67177866       4.09500516      -0.00000026      -0.00000012      -0.00000008
Cd       7.09275696       5.01533633      12.28501518       0.00000033       0.00000022       0.00000003
Sb       0.00000025       0.00000008       0.00000028      -0.00000302      -0.00000135      -0.00000186
I        2.43370509       1.72088925       8.19001019      -0.00118908      -0.00084007       0.00000016
I        7.02330404       4.96622568       8.19001000       0.00119081       0.00084137       0.00000008
I        5.87590443       1.72088924       6.20265540       0.00059480      -0.00084113      -0.00103050
I        3.58110485       4.96622546      10.17736465      -0.00059452       0.00084174       0.00103118
I        3.58110470       4.96622574       6.20265553      -0.00059457       0.00084174      -0.00103068
I        5.87590412       1.72088950      10.17736454       0.00059547      -0.00084229       0.00103165
