9
Lattice="6.298095355959735 1.2023845283511207e-06 3.6362090305827186 2.0993662160330016 5.937905204129493 3.636209093352575 1.6799603164987523e-07 1.9566687557693283e-07 7.272417770189127" Properties=species:S:1:pos:R:3:forces:R:3 energy=-33.61616897583008 free_energy=-33.61616897583008 stress="-7.370873845502501e-06 -4.555396060368366e-08 3.001377990585752e-08 -4.555396060368366e-08 -7.31871750758728e-06 -3.6623213350850392e-09 3.001377990585752e-08 -3.6623213350850392e-09 -7.347459813900059e-06" pbc="T T T"
Cd       2.09936791       1.48448052       3.63620518      -0.00000134      -0.00000051       0.00000131
Cd       6.29809189       4.45342126      10.90863272       0.00000024       0.00000100       0.00000013
Sb      -0.00000061       0.00000093       0.00000173       0.00006905      -0.00002702      -0.00009654
F        1.57351332       1.11264442       7.27242095       0.00078445       0.00055648      -0.00000132
F        6.82395008       4.82526289       7.27241763      -0.00081560      -0.00057302       0.00000270
F        5.51133591       1.11264702       4.99890614      -0.00041925       0.00058639       0.00072837
F        2.88612688       4.82526193       9.54592595       0.00037838      -0.00053390      -0.00065406
F        2.88612346       4.82526580       4.99891368       0.00039699      -0.00056451       0.00069958
F        5.51133970       1.11264175       9.54592162      -0.00039295       0.00055509      -0.00068015
