9
Lattice="6.385278146875366 1.6029418110161784e-07 3.6865418594379706 2.1284261422813793 6.020097849769146 3.6865419595572497 -5.9134019959530385e-08 8.080646802486667e-08 7.373083821299112" Properties=species:S:1:pos:R:3:forces:R:3 energy=-22.284469604492188 free_energy=-22.284469604492188 stress="-0.00020562206918839365 1.0520113136180953e-07 -1.7463689161445473e-08 1.0520113136180953e-07 -0.0002056885277852416 2.5907455736273732e-08 -1.7463689161445473e-08 2.5907455736273732e-08 -0.00020577367104124278" pbc="T T T"
Cd       2.12842625       1.50502489       3.68654246       0.00000026      -0.00000030       0.00000089
Cd       6.38527770       4.51507253      11.05962653      -0.00000055      -0.00000081       0.00000109
Sb      -0.00000015       0.00000133      -0.00000336       0.00000176      -0.00001425       0.00004453
Cl       2.05644664       1.45412787       7.37308356      -0.00195141      -0.00137918      -0.00000247
Cl       6.45725654       4.56596979       7.37308334       0.00195649       0.00138429      -0.00000245
Cl       5.35705506       1.45412769       5.46747661       0.00097452      -0.00137830      -0.00169082
Cl       3.15664868       4.56597223       9.27869192      -0.00096831       0.00136991       0.00167418
Cl       3.15664962       4.56597039       5.46747656      -0.00097612       0.00138061      -0.00169224
Cl       5.35705659       1.45412562       9.27869312       0.00096338      -0.00136192       0.00166732
