9
Lattice="6.404403840329857 9.657320470187904e-08 3.697580584283176 2.1348012161944454 6.0381268445430525 3.6975808526920484 -9.137186804817846e-07 -3.173644037088519e-07 7.395162751172559" Properties=species:S:1:pos:R:3:forces:R:3 energy=-46.37556457519531 free_energy=-46.37556457519531 stress="-4.617639206117019e-05 -4.5120756908545445e-08 -3.5440695711486114e-08 -4.5120756908545445e-08 -4.65747325506527e-05 2.6551473908398293e-08 -3.5440695711486114e-08 2.6551473908398293e-08 -4.638796963263303e-05" pbc="T T T"
Cd       2.13480105       1.50953522       3.69758540       0.00000080      -0.00000251      -0.00000126
Cd       6.40440252       4.52859113      11.09274650      -0.00000041       0.00000064      -0.00000128
Ta       0.00000059      -0.00000219      -0.00000104       0.00002149       0.00000986       0.00000324
F        1.56676979       1.10787118       7.39516671       0.00261903       0.00185853      -0.00000149
F        6.97242889       4.93026141       7.39516107      -0.00262588      -0.00188282      -0.00000439
F        5.62101575       1.10787176       5.05443869      -0.00131088       0.00186995       0.00228953
F        2.91818918       4.93025322       9.73587912       0.00130147      -0.00186092      -0.00226545
F        2.91818578       4.93025136       5.05444308       0.00130719      -0.00186431       0.00227237
F        5.62102062       1.10786965       9.73587752      -0.00131327       0.00187129      -0.00229138
