9
Lattice="6.429357783667593 -1.0007631929965491e-07 3.7119914638259472 2.143119202279678 6.061656634694238 3.7119914024939904 7.906558338635186e-10 -7.455690191277224e-08 7.423982926282459" Properties=species:S:1:pos:R:3:forces:R:3 energy=-16.429668426513672 free_energy=-16.429668426513672 stress="6.741772085661069e-05 -6.9668919522314354e-09 4.428184485760767e-09 -6.9668919522314354e-09 6.741628749296069e-05 -7.16674364298342e-09 4.428184485760767e-09 -7.16674364298342e-09 6.742281402694061e-05" pbc="T T T"
Cd       2.14311919       1.51541413       3.71199155       0.00000033       0.00000065      -0.00000007
Cd       6.42935782       4.54624248      11.13597436       0.00000036       0.00000092      -0.00000084
Tl      -0.00000014       0.00000001      -0.00000042       0.00000268       0.00000028      -0.00000127
Br       2.22566248       1.57378085       7.42398310      -0.00046193      -0.00032676      -0.00000011
Br       6.34681495       4.48787577       7.42398300       0.00045843       0.00032365       0.00000013
Br       5.31652653       1.57378062       5.63947151       0.00023022      -0.00032540      -0.00039809
Br       3.25595046       4.48787542       9.20849426      -0.00023123       0.00032708       0.00039992
Br       3.25595034       4.48787559       5.63947168      -0.00023080       0.00032620      -0.00039943
Br       5.31652634       1.57378096       9.20849413       0.00023190      -0.00032663       0.00039973
