9
Lattice="6.1745561684088415 3.452919442051132e-08 3.5648818094270367 2.0581854341194985 5.8214275843868215 3.5648817884771042 2.8734212742686905e-08 -5.340093114421723e-09 7.129763569084942" Properties=species:S:1:pos:R:3:forces:R:3 energy=-19.387588500976562 free_energy=-19.387588500976562 stress="0.00013421989569906145 -2.667175813542144e-09 3.5451448443524214e-09 -2.667175813542144e-09 0.0001342221803497523 -4.901691497138927e-09 3.5451448443524214e-09 -4.901691497138927e-09 0.00013422471238300204" pbc="T T T"
Cd       2.05818526       1.45535652       3.56488196      -0.00000053      -0.00000101       0.00000044
Cd       6.17455633       4.36607047      10.69464538       0.00000015      -0.00000144      -0.00000079
Tl      -0.00000006      -0.00000038       0.00000019      -0.00000045       0.00000585       0.00000186
Cl       2.11888420       1.49827819       7.12976389      -0.00472305      -0.00333817      -0.00000001
Cl       6.11385734       4.32314983       7.12976384       0.00472069       0.00333768       0.00000027
Cl       5.11511416       1.49827808       5.39988985       0.00236174      -0.00334034      -0.00409151
Cl       3.11762859       4.32315078       8.85963719      -0.00235924       0.00333948       0.00408737
Cl       3.11762730       4.32314954       5.39988940      -0.00236083       0.00333770      -0.00408796
Cl       5.11511343       1.49827738       8.85963705       0.00236152      -0.00333974       0.00409031
