9
Lattice="7.229878594824578 -1.0908937042812036e-07 4.17417249804358 2.409959476781035 6.816394944483163 4.174172414864853 1.3350541106319373e-07 -7.470160686071845e-09 8.348344764849077" Properties=species:S:1:pos:R:3:forces:R:3 energy=-25.132890701293945 free_energy=-25.132890701293945 stress="-0.00016686854360159487 -3.172502260895271e-08 5.452162277208572e-09 -3.172502260895271e-08 -0.00016684022557456046 -9.807091139180102e-09 5.452162277208572e-09 -9.807091139180102e-09 -0.0001668153709033504" pbc="T T T"
Cd       2.40995969       1.70409865       4.17417265       0.00000017       0.00000025       0.00000023
Cd       7.22987847       5.11229606      12.52251720      -0.00000028      -0.00000019      -0.00000013
Ta      -0.00000028      -0.00000004       0.00000020       0.00000473       0.00000043      -0.00000199
I        2.26970425       1.60492327       8.34834492       0.00421806       0.00298215      -0.00000063
I        7.37013415       5.21147182       8.34834521      -0.00422201      -0.00298561      -0.00000030
I        6.09502643       1.60492331       6.13979390      -0.00210904       0.00298286       0.00365293
I        3.54481217       5.21147121      10.55689521       0.00210726      -0.00297990      -0.00364968
I        3.54481172       5.21147119       6.13979418       0.00210803      -0.00298035       0.00364977
I        6.09502621       1.60492382      10.55689526      -0.00210694       0.00298030      -0.00365020
