9
Lattice="6.8162130752169166 -7.342582970987814e-08 3.9353423425631573 2.2720708223512927 6.426387515847164 3.9353425737823784 -1.8771714360457255e-07 1.504484976754626e-07 7.870685010261994" Properties=species:S:1:pos:R:3:forces:R:3 energy=-29.240386962890625 free_energy=-29.240386962890625 stress="-0.00013454395229928195 -1.139662053617485e-08 -5.216314047373771e-09 -1.139662053617485e-08 -0.00013452855637297034 -6.713868905272591e-10 -5.216314047373771e-09 -6.713868905272591e-10 -0.0001344988850178197" pbc="T T T"
Cd       2.27207098       1.60659691       3.93534235       0.00000002       0.00000005       0.00000014
Cd       6.81621278       4.81979060      11.80602753      -0.00000004       0.00000001      -0.00000015
Ta      -0.00000009       0.00000027       0.00000020       0.00000177      -0.00000128       0.00000024
Br       2.07475052       1.46707077       7.87068480       0.00610158       0.00431375       0.00000054
Br       7.01353323       4.95931717       7.87068484      -0.00610214      -0.00431499      -0.00000001
Br       5.77883745       1.46707038       5.73212939      -0.00305018       0.00431359       0.00528204
Br       3.30944623       4.95931700      10.00924017       0.00304969      -0.00431293      -0.00528085
Br       3.30944616       4.95931714       5.73213002       0.00304995      -0.00431243       0.00528082
Br       5.77883747       1.46707028      10.00924033      -0.00305063       0.00431426      -0.00528288
