9
Lattice="6.731612630942463 -1.7290503739781125e-07 3.886498419696028 2.243871025468821 6.346625943737687 3.886497880154649 4.2554337177567326e-07 -3.5989591703835397e-07 7.772996102329246" Properties=species:S:1:pos:R:3:forces:R:3 energy=-33.2165412902832 free_energy=-33.2165412902832 stress="1.0722818842623383e-05 1.1733516380729725e-08 -2.6887201798331262e-08 1.1733516380729725e-08 1.0731088877946604e-05 2.480625660439273e-08 -2.6887201798331262e-08 2.480625660439273e-08 1.0710487003962044e-05" pbc="T T T"
Cd       2.24387083       1.58665745       3.88649753       0.00000015       0.00000031      -0.00000013
Cd       6.73161440       4.75996960      11.65949676      -0.00000059      -0.00000052      -0.00000053
Ta      -0.00000033      -0.00000039      -0.00000070       0.00000138      -0.00000202       0.00000573
Cl       1.93734265       1.36990741       7.77299587      -0.00171900      -0.00121558      -0.00000030
Cl       7.03814116       4.97671710       7.77299640       0.00171915       0.00121608      -0.00000060
Cl       5.76294126       1.36990768       5.56428602       0.00085995      -0.00121626      -0.00149062
Cl       3.21254255       4.97671702       9.98170573      -0.00085989       0.00121599       0.00148997
Cl       3.21254174       4.97671787       5.56428554      -0.00085801       0.00121439      -0.00148824
Cl       5.76294202       1.36990750       9.98170624       0.00085688      -0.00121236       0.00148490
