9
Lattice="5.490802745308626 2.8388393706381886e-07 3.170117004790323 1.830267793848678 5.176778280798855 3.1701171010389544 3.3681978570340145e-07 3.56047601130983e-07 6.34023342619155" Properties=species:S:1:pos:R:3:forces:R:3 energy=-27.608856201171875 free_energy=-27.608856201171875 stress="0.0004778934526257217 -1.1991325266080821e-08 3.7787586393278616e-08 -1.1991325266080821e-08 0.00047794514102861285 -3.7355281534701135e-08 3.7787586393278616e-08 -3.7355281534701135e-08 0.00047794124111533165" pbc="T T T"
Cl       1.83026807       1.29419500       3.17011693       0.00000018      -0.00000009      -0.00000033
Cl       5.49080267       3.88258502       9.51035091       0.00000035      -0.00000061       0.00000129
Bi      -0.00000008      -0.00000018       0.00000054      -0.00000705       0.00000356      -0.00001952
F        1.65387442       1.16946583       6.34023350      -0.00097167      -0.00068730       0.00000007
F        5.66719617       4.00731274       6.34023379       0.00097507       0.00069010      -0.00000042
F        4.66386607       1.16946612       4.60241420       0.00048345      -0.00068519      -0.00083810
F        2.65720478       4.00731318       8.07805319      -0.00048727       0.00068942       0.00084472
F        2.65720491       4.00731234       4.60241419      -0.00048441       0.00068516      -0.00083882
F        4.66386578       1.16946614       8.07805328       0.00049141      -0.00069484       0.00085115
