9
Lattice="4.961482724744894 -1.2525799826505413e-08 2.864513243415141 1.6538275867777126 4.677730225063366 2.864513202413749 -1.8891645197403454e-07 -1.8380036580009903e-07 5.729026814043195" Properties=species:S:1:pos:R:3:forces:R:3 energy=-24.90862464904785 free_energy=-24.90862464904785 stress="0.0004837410233449191 -1.0163030417231766e-08 -3.01806970526286e-08 -1.0163030417231766e-08 0.000483745796373114 -1.0507661407643809e-08 -3.01806970526286e-08 -1.0507661407643809e-08 0.0004837599117308855" pbc="T T T"
Cl       1.65382744       1.16943201       2.86451336      -0.00000077       0.00000152       0.00000052
Cl       4.96148197       3.50829805       8.59353982       0.00000092      -0.00000240      -0.00000021
Ga       0.00000003       0.00000003       0.00000002       0.00000128       0.00000163       0.00000110
F        1.56864560       1.10920034       5.72902656      -0.00371426      -0.00262642      -0.00000023
F        5.04666476       3.56852986       5.72902659       0.00371283       0.00262582      -0.00000047
F        4.17715994       1.10919995       4.22300046       0.00185612      -0.00262588      -0.00321758
F        2.43815045       3.56853006       7.23505288      -0.00185576       0.00262517       0.00321668
F        2.43815069       3.56853004       4.22300047      -0.00185627       0.00262648      -0.00321686
F        4.17715965       1.10919975       7.23505282       0.00185600      -0.00262594       0.00321794
