9
Lattice="5.037587276170931 2.2439981372819164e-07 2.9084525435015953 1.679195876211542 4.749482488292118 2.9084527064499697 3.094461007823706e-07 4.183815875928767e-07 5.816904551026862" Properties=species:S:1:pos:R:3:forces:R:3 energy=-20.294740676879883 free_energy=-20.294740676879883 stress="3.5229288187110797e-05 5.9068312907584186e-08 -3.848574579023989e-07 5.9068312907584186e-08 3.5331864637555555e-05 -2.7198726115784666e-07 -3.848574579023989e-07 -2.7198726115784666e-07 3.499925878713839e-05" pbc="T T T"
Cl       1.67919206       1.18736245       2.90845591       0.00000508       0.00000891      -0.00000379
Cl       5.03758505       3.56210901       8.72536765       0.00000251       0.00000329      -0.00001033
N        0.00000099       0.00000217      -0.00000241       0.00000453      -0.00000364       0.00000203
F        1.33563731       0.94443967       5.81690135      -0.00130749      -0.00092995       0.00000845
F        5.38115030       3.80504793       5.81690603       0.00128758       0.00091493      -0.00001052
F        4.36976994       0.94443773       4.06514448       0.00065464      -0.00091350      -0.00111854
F        2.34701477       3.80504669       7.56866126      -0.00065386       0.00092220       0.00112474
F        2.34701271       3.80504624       4.06514321      -0.00063950       0.00092351      -0.00111902
F        4.36977054       0.94444075       7.56866100       0.00064749      -0.00092697       0.00112677
