9
Lattice="5.314667441355783 1.51622826057618e-07 3.068424663434855 1.7715558438108454 5.010716672747256 3.068424859028045 -2.385662807123354e-07 7.08599178740731e-08 6.13684974007862" Properties=species:S:1:pos:R:3:forces:R:3 energy=-30.4791259765625 free_energy=-30.4791259765625 stress="0.00035661100992001593 2.8351909264756614e-08 -2.2659512044498342e-09 2.8351909264756614e-08 0.0003565479419194162 -6.596630441890738e-08 -2.2659512044498342e-09 -6.596630441890738e-08 0.0003566107770893723" pbc="T T T"
Cl       1.77155527       1.25267895       3.06842474      -0.00000039      -0.00000002      -0.00000015
Cl       5.31466735       3.75803754       9.20527472       0.00000125       0.00000062       0.00000068
Sb       0.00000027       0.00000005      -0.00000015      -0.00000784       0.00001127       0.00000063
F        1.57109908       1.11093499       6.13684963      -0.00477064      -0.00337261       0.00000120
F        5.51512440       3.89978219       6.13684937       0.00476849       0.00337255      -0.00000031
F        4.52911809       1.11093488       4.42903644       0.00238591      -0.00337327      -0.00413316
F        2.55710505       3.89978228       7.84466316      -0.00238049       0.00336611       0.00412303
F        2.55710519       3.89978163       4.42903612      -0.00238174       0.00336975      -0.00412655
F        4.52911768       1.11093525       7.84466284       0.00238562      -0.00337428       0.00413454
