9
Lattice="5.189805383217811 3.368787697057062e-07 2.9963357635222856 1.7299353491394258 4.892996775282455 2.996335930166684 -2.1847942818909474e-08 1.8864808441858044e-07 5.99267156488631" Properties=species:S:1:pos:R:3:forces:R:3 energy=-33.05912780761719 free_energy=-33.05912780761719 stress="0.0004600376123562455 -1.2922709125007259e-08 -5.792083701550155e-09 -1.2922709125007259e-08 0.00046001115697436035 3.1355058549564774e-09 -5.792083701550155e-09 3.1355058549564774e-09 0.0004600325191859156" pbc="T T T"
Cl       1.72993550       1.22324935       2.99633581      -0.00000065       0.00000100       0.00000047
Cl       5.18980623       3.66974762       8.98900667      -0.00000023      -0.00000054       0.00000079
Y       -0.00000075       0.00000022       0.00000061       0.00000887      -0.00000270      -0.00000994
F        1.78408707       1.26154101       5.99267244       0.00477418       0.00337514       0.00000014
F        5.13565363       3.63145620       5.99267229      -0.00477722      -0.00337863      -0.00000186
F        4.29776160       1.26154039       4.54140022      -0.00239085       0.00338092       0.00413859
F        2.62197988       3.63145621       7.44394199       0.00238435      -0.00337158      -0.00412953
F        2.62197822       3.63145662       4.54140139       0.00238839      -0.00337718       0.00413543
F        4.29776175       1.26154178       7.44394172      -0.00238673       0.00337337      -0.00413403
