9
Lattice="6.650378585183336 -2.590885226678641e-08 3.8395979272728353 2.2167928422967464 6.2700370748794185 3.839597918619421 -3.7056031954937523e-09 -1.3218477436658676e-08 7.67919586096393" Properties=species:S:1:pos:R:3:forces:R:3 energy=-21.214269638061523 free_energy=-21.214269638061523 stress="7.693551742704585e-05 -1.7103816141172956e-09 -3.354789557263871e-09 -1.7103816141172956e-09 7.694001396885142e-05 2.1632905189417073e-10 -3.354789557263871e-09 2.1632905189417073e-10 7.694794476265088e-05" pbc="T T T"
Co       2.21679294       1.56750944       3.83959788       0.00000078       0.00000099      -0.00000052
Co       6.65037867       4.70252778      11.51879392      -0.00000005      -0.00000053       0.00000035
As      -0.00000009       0.00000012       0.00000011      -0.00000024      -0.00000060      -0.00000110
I        2.29568200       1.62329241       7.67919591       0.00002379       0.00001743      -0.00000022
I        6.57148938       4.64674442       7.67919581      -0.00002348      -0.00001597      -0.00000024
I        5.50253751       1.62329227       5.82771691      -0.00001243       0.00001703       0.00002088
I        3.36463390       4.64674468       9.53067474       0.00001118      -0.00001655      -0.00002053
I        3.36463389       4.64674466       5.82771686       0.00001227      -0.00001742       0.00002098
I        5.50253747       1.62329234       9.53067467      -0.00001179       0.00001559      -0.00001956
