9
Lattice="5.614877314393004 -2.40730647100974e-08 3.2417510379406433 1.8716257688547935 5.29375740641756 3.2417510031493375 8.701851031642416e-08 1.8920921121275715e-08 6.483501925160783" Properties=species:S:1:pos:R:3:forces:R:3 energy=-32.750572204589844 free_energy=-32.750572204589844 stress="2.308970215381123e-05 -2.3504549417907583e-08 -4.96221588264234e-08 -2.3504549417907583e-08 2.2953894585953094e-05 -4.050814084166632e-08 -4.96221588264234e-08 -4.050814084166632e-08 2.3052431060932577e-05" pbc="T T T"
Co       1.87162723       1.32344577       3.24175126       0.00001439       0.00006317      -0.00000113
Co       5.61487580       3.97031567       9.72526033      -0.00001677      -0.00002641       0.00007120
As       0.00000067      -0.00000019       0.00000022      -0.00000309      -0.00000096      -0.00000452
Se       2.19725775       1.55369704       6.48350202      -0.00413129      -0.00291255       0.00000183
Se       5.28924548       3.74005900       6.48349896       0.00414211       0.00290316      -0.00003724
Se       4.51624888       1.55369811       5.14463083       0.00206846      -0.00289467      -0.00359446
Se       2.97025366       3.74005879       7.82237131      -0.00208238       0.00289667       0.00358352
Se       2.97025605       3.74005910       5.14462997      -0.00204864       0.00289690      -0.00359881
Se       4.51624712       1.55369637       7.82237094       0.00205718      -0.00292522       0.00357965
