9
Lattice="4.671525915531224 2.1261411992538004e-07 2.6971070119011924 1.5571754071563435 4.404358353675574 2.6971071824653614 -1.5708500249608987e-08 1.9778999833574694e-07 5.3942140510103185" Properties=species:S:1:pos:R:3:forces:R:3 energy=-38.6448974609375 free_energy=-38.6448974609375 stress="-9.710063750389963e-06 1.3381377117482884e-09 4.7186636820129024e-09 1.3381377117482884e-09 -9.748164302436635e-06 -1.9955717078801172e-08 4.7186636820129024e-09 -1.9955717078801172e-08 -9.699629117676523e-06" pbc="T T T"
Co       1.55717239       1.10109331       2.69710966      -0.00001996       0.00002467       0.00001660
Co       4.67153015       3.30326720       8.09132306       0.00002960      -0.00001221       0.00001082
As      -0.00000012       0.00000004      -0.00000029      -0.00000780      -0.00000595       0.00000183
F        1.56602775       1.10735088       5.39421307       0.00144240       0.00103017      -0.00000774
F        4.66267341       3.29700750       5.39421356      -0.00143736      -0.00102932      -0.00000440
F        3.88851223       1.10734970       4.05332785      -0.00071888       0.00102215       0.00125168
F        2.34018815       3.29700857       6.73509933       0.00071340      -0.00102366      -0.00125945
F        2.34018898       3.29700766       4.05332691       0.00071613      -0.00102865       0.00124819
F        3.88851230       1.10735002       6.73509996      -0.00071748       0.00102288      -0.00125782
