9
Lattice="6.1427845218508885 1.507366726101721e-07 3.5465384613106634 2.0475950151265634 5.7914729715987345 3.5465384052031497 -5.0026518081951503e-08 -1.0409148294306036e-07 7.093077009269786" Properties=species:S:1:pos:R:3:forces:R:3 energy=-24.799184799194336 free_energy=-24.799184799194336 stress="8.6701795225963e-05 -1.9927474781411547e-08 6.191021029167132e-09 -1.9927474781411547e-08 8.668928785482422e-05 1.0579617182315815e-08 6.191021029167132e-09 1.0579617182315815e-08 8.665628411108628e-05" pbc="T T T"
Co       2.04759705       1.44786879       3.54653827       0.00000909       0.00000267      -0.00000144
Co       6.14278352       4.34360398      10.63961601      -0.00000493      -0.00000192       0.00000272
As      -0.00000016       0.00000010      -0.00000032      -0.00000066      -0.00000028      -0.00000026
Br       2.09850523       1.48386664       7.09307709      -0.00082412      -0.00058386      -0.00000039
Br       6.09187389       4.30760645       7.09307661       0.00082421       0.00058541      -0.00000081
Br       5.09353194       1.48386758       5.36389696       0.00041094      -0.00058213      -0.00071743
Br       3.09684727       4.30760519       8.82225693      -0.00041319       0.00058167       0.00071670
Br       3.09684761       4.30760590       5.36389687      -0.00041155       0.00058157      -0.00071649
Br       5.09353156       1.48386742       8.82225704       0.00041016      -0.00058308       0.00071742
