9
Lattice="5.531742691349421 1.9074739222628604e-07 3.193753351610322 1.843914401700506 5.21537701709931 3.1937533664845446 2.5341348238862418e-08 3.6136215340437496e-08 6.387506659328081" Properties=species:S:1:pos:R:3:forces:R:3 energy=-33.85251998901367 free_energy=-33.85251998901367 stress="0.00010360314627178013 -2.6489269444596175e-08 -6.79605278719464e-08 -2.6489269444596175e-08 0.00010354417463531718 -2.1038140118889714e-08 -6.79605278719464e-08 -2.1038140118889714e-08 0.00010336759441997856" pbc="T T T"
Co       1.84391387       1.30384420       3.19375390       0.00000209      -0.00000019       0.00001010
Co       5.53174078       3.91153293       9.58125755      -0.00002592       0.00000070      -0.00002304
As      -0.00000047       0.00000029       0.00000020       0.00000102      -0.00000035       0.00000025
S        1.91815599       1.35633960       6.38750706      -0.00685894      -0.00486439       0.00000161
S        5.45750151       3.85903640       6.38750904       0.00686276       0.00485307       0.00002063
S        4.57266400       1.35634128       4.85492381       0.00342232      -0.00485229      -0.00595003
S        2.80299384       3.85903685       7.92008941      -0.00341654       0.00485760       0.00595039
S        2.80299267       3.85903579       4.85492363      -0.00342706       0.00484949      -0.00595224
S        4.57266618       1.35634157       7.92008900       0.00343996      -0.00484359       0.00594282
