9
Lattice="5.711171784017153 -2.4540210594841775e-08 3.29734643037588 1.903723904619911 5.384544393884928 3.2973464308072926 6.27504369142807e-08 4.4899629748025565e-08 6.5946927520648355" Properties=species:S:1:pos:R:3:forces:R:3 energy=-27.997982025146484 free_energy=-27.997982025146484 stress="0.0004302982706576586 -2.3648837554901547e-08 -3.415759053382317e-08 -2.3648837554901547e-08 0.0004303950408939272 -4.3528057602770787e-08 -3.415759053382317e-08 -4.3528057602770787e-08 0.0004303519381210208" pbc="T T T"
Co       1.90372162       1.34613725       3.29734643      -0.00001644       0.00000929       0.00000055
Co       5.71117119       4.03840746       9.89203567      -0.00000469      -0.00000737      -0.00002568
As       0.00000085      -0.00000006       0.00000056      -0.00001195       0.00000058      -0.00000600
Cl       1.92194369       1.35901961       6.59469300       0.00162961       0.00115402       0.00000016
Cl       5.69295239       4.02552407       6.59469422      -0.00161739      -0.00115261       0.00001047
Cl       4.75020004       1.35901945       4.96179923      -0.00080817       0.00114652       0.00141082
Cl       2.86469700       4.02552470       8.22758743       0.00081928      -0.00114849      -0.00140193
Cl       2.86469545       4.02552473       4.96179876       0.00081096      -0.00115355       0.00141304
Cl       4.75020080       1.35902044       8.22758712      -0.00080121       0.00115161      -0.00140151
