9
Lattice="4.273320903407409 -3.7795353849878335e-08 2.4672029958233805 1.4244402711361632 4.028925506998123 2.467202986064747 -3.869291871666686e-09 -1.4687841051373231e-08 4.934405998348569" Properties=species:S:1:pos:R:3:forces:R:3 energy=-44.056907653808594 free_energy=-44.056907653808594 stress="0.0004103357787244022 1.2588609044072996e-09 4.045745072289719e-08 1.2588609044072996e-09 0.00041050047730095685 1.931543778255218e-07 4.045745072289719e-08 1.931543778255218e-07 0.0004103644168935716" pbc="T T T"
Co       1.42444036       1.00723102       2.46720253       0.00000025      -0.00000173      -0.00000338
Co       4.27332059       3.02169431       7.40160925      -0.00000187       0.00000105       0.00000264
B        0.00000007      -0.00000001       0.00000019       0.00000054      -0.00000067       0.00000155
F        1.29555360       0.91609481       4.93440613       0.00407715       0.00288031       0.00000041
F        4.40220762       3.11283061       4.93440603      -0.00407614      -0.00288163      -0.00000065
F        3.62554399       0.91609475       3.58918533      -0.00203874       0.00288090       0.00353439
F        2.07221719       3.11283076       6.27962653       0.00203867      -0.00288142      -0.00352877
F        2.07221726       3.11283070       3.58918542       0.00203862      -0.00287980       0.00352822
F        3.62554405       0.91609481       6.27962663      -0.00203874       0.00288227      -0.00353420
