9
Lattice="5.57318085680066 9.292156216590206e-08 3.2176775135809628 1.857727056974563 5.254445251612773 3.217677483962279 -3.318775869131388e-08 -5.974262183761314e-08 6.435355084644806" Properties=species:S:1:pos:R:3:forces:R:3 energy=-28.95084571838379 free_energy=-28.95084571838379 stress="0.00024673299049027264 -5.0291344422248585e-08 1.773983271391444e-08 -5.0291344422248585e-08 0.0002467535377945751 4.371520745394264e-08 1.773983271391444e-08 4.371520745394264e-08 0.000246725365286693" pbc="T T T"
Co       1.85772651       1.31361147       3.21767624      -0.00000311       0.00000090      -0.00000798
Co       5.57317969       3.94083372       9.65303336      -0.00000904      -0.00000152       0.00000571
B       -0.00000112      -0.00000064       0.00000097      -0.00001082      -0.00000756       0.00000866
Cl       1.68763039       1.19333465       6.43535522      -0.00470304      -0.00332578       0.00000264
Cl       5.74327908       4.06111121       6.43535464       0.00471172       0.00332934      -0.00000035
Cl       4.72936646       1.19333442       4.67920756       0.00236023      -0.00333031      -0.00407902
Cl       2.70154211       4.06111106       8.19150241      -0.00234927       0.00332785       0.00407483
Cl       2.70154262       4.06111077       4.67920752      -0.00235135       0.00333253      -0.00407913
Cl       4.72936588       1.19333457       8.19150242       0.00235501      -0.00332569       0.00407451
