9
Lattice="6.430658665146076 -1.1616994407455588e-07 3.7127424352133893 2.143552793182715 6.062882914742028 3.7127424103986173 -2.9439828365443553e-08 -5.120885391004842e-08 7.425484921418035" Properties=species:S:1:pos:R:3:forces:R:3 energy=-21.247699737548828 free_energy=-21.247699737548828 stress="6.136559386504814e-05 6.440639310767438e-08 -8.877374391147441e-09 6.440639310767438e-08 6.136590673122555e-05 -6.438104804828981e-08 -8.877374391147441e-09 -6.438104804828981e-08 6.13525407970883e-05" pbc="T T T"
Co       2.14355284       1.51572088       3.71274225      -0.00000075       0.00000054       0.00000016
Co       6.43065862       4.54716198      11.13822817       0.00000054       0.00000019       0.00000421
B       -0.00000001       0.00000041       0.00000052      -0.00000165       0.00000513      -0.00000205
I        1.98725819       1.40520342       7.42548483       0.00276587       0.00195754      -0.00000394
I        6.58695337       4.65767914       7.42548432      -0.00276680      -0.00195726       0.00000022
I        5.43702965       1.40520367       5.43375855      -0.00138174       0.00195590       0.00239826
I        3.13718147       4.65767899       9.41721105       0.00138461      -0.00195897      -0.00239627
I        3.13718199       4.65767896       5.43375842       0.00138302      -0.00195888       0.00239588
I        5.43702959       1.40520356       9.41721098      -0.00138313       0.00195586      -0.00239644
