9
Lattice="6.073565587967257 -4.9980340661323836e-08 3.5065744887481514 2.0245217701609435 5.726212522754885 3.5065745673363553 -8.448645163299422e-08 3.6509596795316005e-08 7.013149123831104" Properties=species:S:1:pos:R:3:forces:R:3 energy=-25.34625816345215 free_energy=-25.34625816345215 stress="3.1741918064653873e-05 -1.6017748905028384e-08 -4.3320412146385934e-08 -1.6017748905028384e-08 3.1833071261644363e-05 -1.6241040512454674e-08 -4.3320412146385934e-08 -1.6241040512454674e-08 3.1774976378073916e-05" pbc="T T T"
Co       2.02452026       1.43155308       3.50657496      -0.00000764       0.00000102       0.00000257
Co       6.07356504       4.29465803      10.51972244      -0.00000356      -0.00000677      -0.00000710
B        0.00000031       0.00000012       0.00000125      -0.00000081      -0.00000010       0.00000986
Br       1.83113190       1.29480604       7.01314856       0.00213327       0.00150719      -0.00000064
Br       6.26695525       4.43140606       7.01314931      -0.00212695      -0.00150514       0.00000092
Br       5.15799983       1.29480648       5.09238114      -0.00106329       0.00150554       0.00184414
Br       2.94008843       4.43140699       8.93391720       0.00106737      -0.00150502      -0.00184698
Br       2.94008778       4.43140645       5.09238082       0.00106423      -0.00150502       0.00184420
Br       5.15800036       1.29480680       8.93391702      -0.00106266       0.00150848      -0.00184685
