9
Lattice="6.552879698323958 1.4072647761874102e-08 3.783306833188163 2.184293251359948 6.178114246496616 3.7833068239780037 3.256737604661527e-08 1.174852812427029e-08 7.566613609967994" Properties=species:S:1:pos:R:3:forces:R:3 energy=-20.355186462402344 free_energy=-20.355186462402344 stress="7.625512080267072e-05 8.721542599232635e-09 -1.0942322603568755e-09 8.721542599232635e-09 7.625215948792174e-05 -1.1797357535314745e-09 -1.0942322603568755e-09 -1.1797357535314745e-09 7.625856960657984e-05" pbc="T T T"
Co       2.18429340       1.54452860       3.78330686       0.00000042      -0.00000095       0.00000002
Co       6.55287981       4.63358584      11.34992031       0.00000032       0.00000109      -0.00000111
Ga      -0.00000003      -0.00000003      -0.00000025      -0.00000016      -0.00000029       0.00000242
I        2.23896301       1.58318583       7.56661360       0.00024757       0.00017458       0.00000070
I        6.49821007       4.59492842       7.56661370      -0.00024770      -0.00017440      -0.00000022
I        5.43339814       1.58318577       5.72230561      -0.00012328       0.00017444       0.00021374
I        3.30377458       4.59492857       9.41092180       0.00012442      -0.00017605      -0.00021489
I        3.30377465       4.59492838       5.72230556       0.00012353      -0.00017454       0.00021406
I        5.43339829       1.58318571       9.41092188      -0.00012518       0.00017617      -0.00021484
