9
Lattice="6.02282879145124 -5.167238513997139e-08 3.477281836766953 2.0076095371493303 5.678377549684069 3.477281856311208 -6.281239850555275e-08 -2.0478330798160902e-08 6.954563782328213" Properties=species:S:1:pos:R:3:forces:R:3 energy=-24.555652618408203 free_energy=-24.555652618408203 stress="0.00014204427134245634 -1.7779182570620833e-09 4.040426659912555e-09 -1.7779182570620833e-09 0.00014206684136297554 4.816389953532507e-09 4.040426659912555e-09 4.816389953532507e-09 0.00014207833737600595" pbc="T T T"
Co       2.00760898       1.41959409       3.47728235      -0.00000379      -0.00000227       0.00000148
Co       6.02282877       4.25878381      10.43184485      -0.00000132       0.00000420      -0.00000635
Ga       0.00000021      -0.00000016       0.00000065      -0.00000231      -0.00000026      -0.00000923
Br       2.04766769       1.44791934       6.95456385      -0.00059357      -0.00042176      -0.00000154
Br       5.98277065       4.23045771       6.95456399       0.00059745       0.00042225       0.00000131
Br       4.99899520       1.44791932       5.25061432       0.00029592      -0.00042012      -0.00051245
Br       3.03144373       4.23045784       8.65851303      -0.00029908       0.00042589       0.00051871
Br       3.03144284       4.23045835       5.25061364      -0.00029519       0.00041638      -0.00051050
Br       4.99899499       1.44791963       8.65851325       0.00030178      -0.00042436       0.00051852
