9
Lattice="5.644007863467761 -4.7123815367201445e-08 3.2585694448071805 1.88133590075217 5.321221626259587 3.2585694609296882 2.0777307367223958e-08 3.4437738167061046e-08 6.51713885362704" Properties=species:S:1:pos:R:3:forces:R:3 energy=-28.047813415527344 free_energy=-28.047813415527344 stress="0.0001297247363254428 -1.6695235416364085e-08 8.032444931416194e-09 -1.6695235416364085e-08 0.00012973732373211533 1.6843999972593338e-08 8.032444931416194e-09 1.6843999972593338e-08 0.0001297402777709067" pbc="T T T"
Co       1.88133592       1.33030502       3.25856889       0.00000132      -0.00000066      -0.00000462
Co       5.64400782       3.99091623       9.77570747      -0.00000133      -0.00000063      -0.00000715
Ga       0.00000020       0.00000018      -0.00000030      -0.00000098      -0.00000280       0.00000771
Cl       1.90208508       1.34497714       6.51713902      -0.00030047      -0.00021194       0.00000263
Cl       5.62325863       3.97624438       6.51713913       0.00030270       0.00021559       0.00000424
Cl       4.69296519       1.34497724       4.90582366       0.00015275      -0.00021891      -0.00026205
Cl       2.83237858       3.97624453       8.12845471      -0.00014819       0.00021008       0.00026122
Cl       2.83237833       3.97624439       4.90582366      -0.00015499       0.00021768      -0.00026143
Cl       4.69296534       1.34497735       8.12845488       0.00014922      -0.00020845       0.00025985
