9
Lattice="5.712787987608183 -2.9831017185442485e-08 3.298279694081271 1.904262693130694 5.386068000766602 3.298279592375943 4.178021204262239e-08 -9.502001415081046e-08 6.596559315797083" Properties=species:S:1:pos:R:3:forces:R:3 energy=-32.02228927612305 free_energy=-32.02228927612305 stress="0.0004284954920876771 -2.7878455099994426e-08 1.7822099351860743e-08 -2.7878455099994426e-08 0.00042852043407037854 -9.755479757345142e-10 1.7822099351860743e-08 -9.755479757345142e-10 0.00042859147652052343" pbc="T T T"
Co       1.90426240       1.34651641       3.29827973      -0.00000084      -0.00000454       0.00000092
Co       5.71278672       4.03955052       9.89484039      -0.00000861      -0.00000193       0.00000849
Ir       0.00000013       0.00000013      -0.00000030       0.00000492       0.00000292       0.00000263
Cl       1.88628769       1.33380668       6.59655941      -0.00122130      -0.00086342      -0.00000059
Cl       5.73076329       4.05226115       6.59655859       0.00121820       0.00086132      -0.00000359
Cl       4.76964436       1.33380687       4.93185223       0.00061262      -0.00086203      -0.00106141
Cl       2.84740666       4.05226172       8.26126599      -0.00060803       0.00086404       0.00105670
Cl       2.84740731       4.05226155       4.93185227      -0.00060865       0.00086719      -0.00106260
Cl       4.76964431       1.33380648       8.26126613       0.00061163      -0.00086357       0.00105953
