9
Lattice="4.723029716030198 1.366308908932346e-07 2.7268424492816927 1.5743433104235418 4.452915592652639 2.7268425481298486 3.780186076007326e-09 1.2373677798285654e-07 5.45368489201589" Properties=species:S:1:pos:R:3:forces:R:3 energy=-40.59521484375 free_energy=-40.59521484375 stress="-0.0004760808078572154 -9.889796537265738e-09 -3.491815903089446e-08 -9.889796537265738e-09 -0.0004761306627187878 4.172061807139471e-08 -3.491815903089446e-08 4.172061807139471e-08 -0.00047608785098418593" pbc="T T T"
Co       1.57434290       1.11322952       2.72684215      -0.00000281       0.00000414      -0.00000162
Co       4.72302975       3.33968649       8.18052749      -0.00000039      -0.00000401       0.00000170
Ir      -0.00000011      -0.00000006       0.00000020       0.00000580      -0.00000177       0.00000065
F        1.61567198       1.14245261       5.45368510       0.00315971       0.00223541       0.00000098
F        4.68170115       3.31046301       5.45368469      -0.00316212      -0.00223689      -0.00000205
F        3.91519403       1.14245292       4.12605544      -0.00157893       0.00223652       0.00273749
F        2.38217924       3.31046298       6.78131454       0.00157832      -0.00223415      -0.00273522
F        2.38217907       3.31046282       4.12605536       0.00158075      -0.00223787       0.00273782
F        3.91519411       1.14245317       6.78131459      -0.00158021       0.00223862      -0.00273979
