9
Lattice="6.102202851966193 3.7127806700725164e-09 3.523108471571654 2.0340675775471175 5.753212116011088 3.523108546526807 1.2707736758775475e-08 1.0078666769802201e-07 7.046216921132864" Properties=species:S:1:pos:R:3:forces:R:3 energy=-28.899938583374023 free_energy=-28.899938583374023 stress="0.00034650531597435474 -2.781251673411589e-08 -6.195798873953606e-10 -2.781251673411589e-08 0.00034650450106710196 -1.4991363185556938e-12 -6.195798873953606e-10 -1.4991363185556938e-12 0.0003465384943410754" pbc="T T T"
Co       2.03406754       1.43830276       3.52310836       0.00000011      -0.00000218      -0.00000133
Co       6.10220314       4.31490927      10.56932517       0.00000225       0.00000178      -0.00000029
Ir       0.00000005       0.00000022       0.00000017      -0.00000036       0.00000025      -0.00000125
Br       2.01280892       1.42327079       7.04621714      -0.00033501      -0.00023675       0.00000014
Br       6.12346138       4.32994158       7.04621705       0.00033441       0.00023766      -0.00000010
Br       5.09579836       1.42327105       5.26625235       0.00016859      -0.00023808      -0.00029129
Br       3.04047233       4.32994085       8.82618151      -0.00017021       0.00023882       0.00029260
Br       3.04047187       4.32994127       5.26625244      -0.00016909       0.00023818      -0.00029088
Br       5.09579818       1.42327112       8.82618159       0.00016935      -0.00023972       0.00029239
