9
Lattice="6.630780683090623 -7.749061032658168e-08 3.828283012567515 2.210260162364993 6.25155980379759 3.828282999184032 3.811259385986255e-08 1.0558260241977273e-08 7.65656595912211" Properties=species:S:1:pos:R:3:forces:R:3 energy=-27.4622745513916 free_energy=-27.4622745513916 stress="0.0002562156296335161 -2.1185334375672937e-08 1.1979803815620471e-08 -2.1185334375672937e-08 0.0002562323643360287 -1.7770348748058495e-08 1.1979803815620471e-08 -1.7770348748058495e-08 0.00025625890702940524" pbc="T T T"
Co       2.21026017       1.56289006       3.82828289      -0.00000033       0.00000025       0.00000014
Co       6.63078078       4.68866961      11.48484870       0.00000032       0.00000002      -0.00000028
Mo       0.00000003       0.00000020       0.00000015      -0.00000057      -0.00000103      -0.00000210
I        2.24690247       1.58880010       7.65656601      -0.00244850      -0.00173081      -0.00000005
I        6.59413824       4.66275962       7.65656605       0.00244939       0.00173171       0.00000008
I        5.50732939       1.58880010       5.77415789       0.00122472      -0.00173211      -0.00212170
I        3.33371165       4.66275957       9.53897405      -0.00122555       0.00173339       0.00212331
I        3.33371161       4.66275951       5.77415808      -0.00122555       0.00173263      -0.00212356
I        5.50732918       1.58880020       9.53897405       0.00122605      -0.00173393       0.00212424
