9
Lattice="5.780973280186019 -1.048354253822646e-07 3.3376463518578525 1.9269909970721282 5.450353809868004 3.337646347498956 -1.1001432069755836e-08 -1.3117736132564717e-08 6.675292722770729" Properties=species:S:1:pos:R:3:forces:R:3 energy=-35.1168098449707 free_energy=-35.1168098449707 stress="5.964108640910126e-05 4.470756920227359e-08 -3.053431285593433e-08 4.470756920227359e-08 5.957501707598567e-05 2.196342485660807e-08 -3.053431285593433e-08 2.196342485660807e-08 5.953411164227873e-05" pbc="T T T"
Co       1.92699257       1.36258825       3.33764668       0.00000692      -0.00000092       0.00000171
Co       5.78097355       4.08776581      10.01293891       0.00000163       0.00000295      -0.00000049
Mo       0.00000013       0.00000002      -0.00000008      -0.00000490      -0.00000272       0.00000832
Cl       1.93006811       1.36476436       6.67529257       0.00002426       0.00001637      -0.00000015
Cl       5.77789558       4.08558959       6.67529238      -0.00001993      -0.00001265       0.00000106
Cl       4.81593848       1.36476401       5.00913441      -0.00001417       0.00001418       0.00001964
Cl       2.89202482       4.08558977       8.34145108       0.00001372      -0.00002091      -0.00002419
Cl       2.89202498       4.08558949       5.00913427       0.00001117      -0.00001882       0.00002103
Cl       4.81593884       1.36476348       8.34145143      -0.00001869       0.00002238      -0.00002688
