9
Lattice="6.1845966521688585 3.006565353738312e-08 3.5706784918299195 2.0615322068492716 5.830893728634469 3.5706785591833436 -2.5803177020249914e-08 6.424515181527735e-08 7.1413570283522585" Properties=species:S:1:pos:R:3:forces:R:3 energy=-31.54431915283203 free_energy=-31.54431915283203 stress="-9.909031359711662e-05 1.9830777020501955e-09 2.9014735059007535e-09 1.9830777020501955e-09 -9.911850793287158e-05 -8.047195798610574e-09 2.9014735059007535e-09 -8.047195798610574e-09 -9.911166853271425e-05" pbc="T T T"
Co       2.06153341       1.45772316       3.57067874       0.00000495      -0.00000077       0.00000086
Co       6.18459673       4.37317172      10.71203534      -0.00000026       0.00000582      -0.00000140
Mo      -0.00000011       0.00000045       0.00000027       0.00000067      -0.00000709      -0.00000218
Br       2.05617065       1.45393210       7.14135700       0.00098431       0.00069352      -0.00000055
Br       6.18995807       4.37696158       7.14135724      -0.00098211      -0.00069343       0.00000018
Br       5.15651068       1.45393183       5.35137429      -0.00049488       0.00069619       0.00085454
Br       3.08961770       4.37696134       8.93133923       0.00049029      -0.00069419      -0.00084872
Br       3.08961747       4.37696114       5.35137451       0.00049086      -0.00069456       0.00084984
Br       5.15651076       1.45393198       8.93133964      -0.00049381       0.00069452      -0.00085251
