9
Lattice="4.825132475230506 -2.719715462929067e-07 2.7857917742273925 1.608377388358432 4.5491775255574 2.7857915091679324 3.238087566876221e-08 -3.017334904363314e-07 5.571583492369458" Properties=species:S:1:pos:R:3:forces:R:3 energy=-42.987972259521484 free_energy=-42.987972259521484 stress="-0.00015175508451648057 3.5557210509296056e-09 3.126790559804249e-08 3.5557210509296056e-09 -0.00015168091340456158 -5.3029943103410915e-08 3.126790559804249e-08 -5.3029943103410915e-08 -0.00015180175250861794" pbc="T T T"
Co       1.60837645       1.13729363       2.78579375      -0.00000612      -0.00000395       0.00000955
Co       4.82513343       3.41188259       8.35737838       0.00000469       0.00000058       0.00001510
Mo       0.00000012       0.00000018      -0.00000063       0.00000279      -0.00000389       0.00000932
F        1.64087771       1.16027542       5.57158234       0.00518129       0.00366615      -0.00000454
F        4.79263208       3.38890160       5.57158192      -0.00518120      -0.00366475      -0.00000593
F        4.00469381       1.16027537       4.20683333      -0.00259149       0.00366743       0.00448771
F        2.42881603       3.38890233       6.93633199       0.00259074      -0.00366519      -0.00449821
F        2.42881648       3.38890193       4.20683309       0.00258917      -0.00366012       0.00448073
F        4.00469372       1.16027467       6.93633266      -0.00258980       0.00366361      -0.00449370
