9
Lattice="4.035449460206616 1.3546898909975555e-08 2.3298678737893233 1.3451498297555367 3.8046582826838846 2.329867879133515 1.8578725786180964e-08 1.9682418090866357e-08 4.65973571539937" Properties=species:S:1:pos:R:3:forces:R:3 energy=-41.884986877441406 free_energy=-41.884986877441406 stress="-2.022034823312424e-05 -1.0096641744894441e-07 3.29816423061402e-08 -1.0096641744894441e-07 -2.0456458514672704e-05 7.0584334821433e-08 3.29816423061402e-08 7.0584334821433e-08 -2.0270865206839517e-05" pbc="T T T"
Co       1.34515078       0.95116640       2.32986550       0.00001127       0.00004442      -0.00003951
Co       4.03544996       2.85349695       6.98960381       0.00000599       0.00006001      -0.00001926
N       -0.00000079       0.00001691      -0.00001407      -0.00002409       0.00044108      -0.00035957
O        1.29908977       0.91859576       4.65973481      -0.00020444      -0.00012845      -0.00001823
O        4.08149808       2.88605586       4.65973497      -0.00008357      -0.00003815      -0.00002128
O        3.38590187       0.91859937       3.45491649       0.00003278      -0.00002962      -0.00007427
O        1.99469661       2.88605976       5.86455318      -0.00004214       0.00006014       0.00003135
O        1.99470361       2.88605166       3.45492664       0.00012821      -0.00015855       0.00019443
O        3.38590733       0.91859074       5.86456434       0.00017715      -0.00025201       0.00030589
