9
Lattice="4.083527408167494 1.386228273684424e-08 2.357625717854008 1.3611758350115457 3.849986553752026 2.3576256845647503 3.389791434532795e-08 -1.680140219064535e-08 4.71525137699511" Properties=species:S:1:pos:R:3:forces:R:3 energy=-33.09065246582031 free_energy=-33.09065246582031 stress="-0.00017966845189221203 -9.647798115963724e-10 -4.190812674664812e-08 -9.647798115963724e-10 -0.00017961111734621227 1.1320786974522434e-08 -4.190812674664812e-08 1.1320786974522434e-08 -0.00017970612680073828" pbc="T T T"
Co       1.36117596       0.96249669       2.35762571      -0.00000069      -0.00000061       0.00000005
Co       4.08352758       2.88748990       7.07287708      -0.00000042       0.00000085       0.00000038
N       -0.00000000      -0.00000034      -0.00000016      -0.00000185      -0.00000380      -0.00000098
F        1.31071214       0.92681345       4.71525131       0.00088668       0.00062537       0.00000176
F        4.13399114       2.92317323       4.71525139      -0.00088143      -0.00062311      -0.00000079
F        3.42817145       0.92681336       3.49273570      -0.00044179       0.00062561       0.00076759
F        2.01653161       2.92317333       5.93776735       0.00044012      -0.00062466      -0.00076568
F        2.01653170       2.92317324       3.49273545       0.00044274      -0.00062573       0.00076646
F        3.42817159       0.92681330       5.93776731      -0.00044340       0.00062436      -0.00076854
