9
Lattice="5.557692420723943 -2.381298173480063e-07 3.2087350779705437 1.8525640399342633 5.2398423959361615 3.208734862842967 2.2135420012974964e-07 -1.0695529182785607e-07 6.417469772544368" Properties=species:S:1:pos:R:3:forces:R:3 energy=-25.429759979248047 free_energy=-25.429759979248047 stress="0.00015572874690406024 8.132163742402554e-08 -2.2054894088796573e-07 8.132163742402554e-08 0.00015596969751641154 -1.7848289246558124e-07 -2.2054894088796573e-07 -1.7848289246558124e-07 0.0001559872762300074" pbc="T T T"
Co       1.85255761       1.30996252       3.20873339      -0.00004532       0.00001336      -0.00001319
Co       5.55769444       3.92987912       9.62618865       0.00001276      -0.00001572      -0.00011141
N        0.00000415      -0.00000241       0.00001099       0.00003013      -0.00001641       0.00007958
Cl       1.79343530       1.26815149       6.41747049       0.00135580       0.00096674       0.00000564
Cl       5.61682047       3.97168965       6.41747564      -0.00135785      -0.00097208       0.00003479
Cl       4.66097672       1.26814830       4.76189891      -0.00066710       0.00094621       0.00118825
Cl       2.74928480       3.97169067       8.07304315       0.00069222      -0.00096451      -0.00117415
Cl       2.74927812       3.97169281       4.76189570       0.00065418      -0.00094831       0.00117284
Cl       4.66097521       1.26815602       8.07304199      -0.00067496       0.00099051      -0.00118205
