9
Lattice="5.558112794032542 1.915597042450596e-08 3.2089779176821702 1.852704264175939 5.240239077521731 3.208977949832511 -5.422846011273332e-08 1.0306387106760451e-09 6.417955929290786" Properties=species:S:1:pos:R:3:forces:R:3 energy=-25.429752349853516 free_energy=-25.429752349853516 stress="0.0003120595356449485 3.914004675920069e-09 1.1754231366012391e-08 3.914004675920069e-09 0.0003121409681625664 -8.48315995227722e-09 1.1754231366012391e-08 -8.48315995227722e-09 0.00031213145121000707" pbc="T T T"
Co       1.85270468       1.31005968       3.20897793       0.00000155      -0.00000002       0.00000042
Co       5.55811397       3.93017958       9.62693403       0.00000866       0.00000188       0.00000092
N       -0.00000027      -0.00000052       0.00000052      -0.00000321      -0.00000148       0.00000502
Cl       1.79362740       1.26828638       6.41795581      -0.00171629      -0.00121237      -0.00000033
Cl       5.61718970       3.97195293       6.41795571       0.00171494       0.00121514      -0.00000167
Cl       4.66129878       1.26828595       4.76230486       0.00085713      -0.00121473      -0.00148880
Cl       2.74951759       3.97195296       8.07360666      -0.00086004       0.00121213       0.00148439
Cl       2.74951751       3.97195322       4.76230481      -0.00085992       0.00121439      -0.00148702
Cl       4.66129863       1.26828622       8.07360678       0.00085706      -0.00121510       0.00148711
