9
Lattice="6.089861235556995 3.032552776073455e-08 3.5159831032111923 2.029953762727564 5.741576073271787 3.5159831223491196 5.803851738041385e-08 6.447853421415977e-08 7.031966105896721" Properties=species:S:1:pos:R:3:forces:R:3 energy=-24.55389976501465 free_energy=-24.55389976501465 stress="-0.0001398973836330697 3.763279465829328e-09 -3.458284325574823e-09 3.763279465829328e-09 -0.00013992597814649343 -1.141353500599962e-08 -3.458284325574823e-09 -1.141353500599962e-08 -0.00013992270396556705" pbc="T T T"
Co       2.02995403       1.43539359       3.51598147       0.00000038      -0.00000199      -0.00000770
Co       6.08986114       4.30618259      10.54794679      -0.00000188       0.00000124      -0.00001188
P       -0.00000002       0.00000003       0.00000000       0.00000045      -0.00000021       0.00000238
Br       2.04027948       1.44269542       7.03196658      -0.00584684      -0.00413532       0.00000325
Br       6.07953551       4.29888095       7.03196706       0.00584690       0.00413580       0.00000478
Br       5.06972154       1.44269507       5.28291786       0.00292386      -0.00413582      -0.00506076
Br       3.05009370       4.29888059       8.78101605      -0.00292150       0.00413373       0.00506542
Br       3.05009332       4.29888106       5.28291737      -0.00292401       0.00413562      -0.00506105
Br       5.06972157       1.44269540       8.78101615       0.00292246      -0.00413299       0.00506557
