9
Lattice="4.708079186077452 -2.0973310722749667e-07 2.7182104000313085 1.5693596259926645 4.4388181070625885 2.7182102354199373 6.603903611715316e-07 2.6535946954583287e-07 5.436419656233146" Properties=species:S:1:pos:R:3:forces:R:3 energy=-41.51382064819336 free_energy=-41.51382064819336 stress="-0.0005623763427138329 6.561567289509185e-08 -5.047442073191633e-07 6.561567289509185e-08 -0.0005632297252304852 -2.812879245084332e-07 -5.047442073191633e-07 -2.812879245084332e-07 -0.0005624759942293167" pbc="T T T"
Co       1.56935847       1.10970095       2.71822156      -0.00000938      -0.00001725       0.00006197
Co       4.70807819       3.32912310       8.15462900      -0.00000566       0.00004832      -0.00000979
P        0.00000004      -0.00000072      -0.00000128       0.00000815      -0.00000447       0.00000514
F        1.37119750       0.96958091       5.43641797       0.00075687       0.00052667      -0.00001291
F        4.90624281       3.46923540       5.43641932      -0.00075303      -0.00053547      -0.00000814
F        4.02248102       0.96958010       3.90569976      -0.00038020       0.00052699       0.00065108
F        2.25495969       3.46923630       6.96713770       0.00038144      -0.00053519      -0.00066815
F        2.25495744       3.46923483       3.90569933       0.00037742      -0.00054035       0.00065090
F        4.02248279       0.96958142       6.96713772      -0.00037536       0.00053076      -0.00067015
