9
Lattice="5.7633377433278685 -7.649811934858173e-08 3.3274647066127887 1.9211124906807948 5.433726650175369 3.327464738318649 2.1780759540924095e-08 5.42329247216491e-08 6.654929375500204" Properties=species:S:1:pos:R:3:forces:R:3 energy=-27.651859283447266 free_energy=-27.651859283447266 stress="-1.2059159416821785e-05 -1.4302041329017356e-08 5.000315184133797e-08 -1.4302041329017356e-08 -1.2161584891146049e-05 1.664468285422771e-10 5.000315184133797e-08 1.664468285422771e-10 -1.2052207239321433e-05" pbc="T T T"
Co       1.92111300       1.35843055       3.32746432       0.00000219      -0.00000770      -0.00000309
Co       5.76333614       4.07529546       9.98239410      -0.00001005       0.00000421       0.00000242
P        0.00000036       0.00000003      -0.00000007      -0.00000109       0.00000058       0.00000054
Cl       1.87320523       1.32455442       6.65492973      -0.00001191      -0.00001241       0.00000073
Cl       5.81124532       4.10917198       6.65492914       0.00001399       0.00001231       0.00000045
Cl       4.82673554       1.32455603       4.94970782       0.00000950      -0.00001165      -0.00001488
Cl       2.85771488       4.10917129       8.36015116      -0.00000457       0.00001223       0.00001407
Cl       2.85771521       4.10917090       4.94970741      -0.00000652       0.00001316      -0.00001559
Cl       4.82673535       1.32455586       8.36015165       0.00000838      -0.00001066       0.00001541
