9
Lattice="6.049277877318746 -3.633348399207041e-09 3.4925521835191913 2.0164259799479196 5.703313747605439 3.49255214148708 9.56008811746648e-10 -5.080259855705004e-08 6.9851043653824885" Properties=species:S:1:pos:R:3:forces:R:3 energy=-28.04236602783203 free_energy=-28.04236602783203 stress="0.00026735570281744003 -1.0055895005578463e-09 3.7451890477768757e-08 -1.0055895005578463e-09 0.0002673567505553365 -4.158523836395034e-08 3.7451890477768757e-08 -4.158523836395034e-08 0.00026735555729828775" pbc="T T T"
Co       2.01642610       1.42582900       3.49255217       0.00000118       0.00000363       0.00000025
Co       6.04927829       4.27748541      10.47765680       0.00000161       0.00000137       0.00000004
Rh      -0.00000010      -0.00000027       0.00000008      -0.00000265       0.00000732      -0.00000199
Br       1.99729421       1.41230017       6.98510436       0.00065633       0.00046448      -0.00000038
Br       6.06840997       4.29101351       6.98510407      -0.00065996      -0.00046661       0.00000035
Br       5.05063069       1.41230011       5.22225962      -0.00032986       0.00046502       0.00056948
Br       3.01507271       4.29101338       8.74794915       0.00033076      -0.00046962      -0.00057294
Br       3.01507284       4.29101345       5.22225941       0.00032821      -0.00046682       0.00057031
Br       5.05063073       1.41229999       8.74794908      -0.00032561       0.00046120      -0.00056520
