9
Lattice="6.467628612249805 -1.6072519495057356e-08 3.7340871712552794 2.155876197879862 6.097738755134415 3.734087155753591 3.165870458857623e-08 3.4004438468841557e-09 7.4681742876760975" Properties=species:S:1:pos:R:3:forces:R:3 energy=-24.67072868347168 free_energy=-24.67072868347168 stress="0.00011608165368670598 -2.458159897855694e-08 -1.4884513621638007e-09 -2.458159897855694e-08 0.0001161043910542503 -2.248174840735473e-10 -1.4884513621638007e-09 -2.248174840735473e-10 0.00011612001253524795" pbc="T T T"
Co       2.15587591       1.52443442       3.73408723      -0.00000092      -0.00000008       0.00000007
Co       6.46762873       4.57330431      11.20226145       0.00000178       0.00000088       0.00000073
Rh      -0.00000022      -0.00000015      -0.00000017       0.00000214       0.00000173      -0.00000346
I        2.16093738       1.52801348       7.46817430      -0.00093648      -0.00066169      -0.00000015
I        6.46256780       4.56972550       7.46817424       0.00093382       0.00065988       0.00000012
I        5.38716002       1.52801343       5.60551399       0.00046823      -0.00066214      -0.00081136
I        3.23634484       4.56972536       9.33083481      -0.00046932       0.00066343       0.00081246
I        3.23634486       4.56972526       5.60551393      -0.00046821       0.00066183      -0.00081095
I        5.38716005       1.52801336       9.33083467       0.00046892      -0.00066382       0.00081253
