9
Lattice="4.6821396395975325 -1.071678410243481e-07 2.7032345784308247 1.560713179025116 4.414363195915665 2.703234462617747 7.493601794252647e-08 -8.885376810849772e-08 5.406469027068685" Properties=species:S:1:pos:R:3:forces:R:3 energy=-39.793880462646484 free_energy=-39.793880462646484 stress="6.859523637103848e-06 6.315100620213343e-08 4.734814207374427e-10 6.315100620213343e-08 6.839384241175139e-06 -1.9845240117888352e-08 4.734814207374427e-10 -1.9845240117888352e-08 6.786034646211192e-06" pbc="T T T"
Co       1.56071346       1.10359024       2.70323441       0.00000282      -0.00000194      -0.00000091
Co       4.68213945       3.31077256       8.10970381      -0.00000278       0.00000255       0.00000309
Rh       0.00000005       0.00000009       0.00000017      -0.00000613      -0.00000445       0.00001247
F        1.59988089       1.13128581       5.40646880       0.00013457       0.00009336       0.00000055
F        4.64297204       3.28307713       5.40646887      -0.00012943      -0.00008848      -0.00000074
F        3.88219930       1.13128645       4.08877163      -0.00006472       0.00009357       0.00011244
F        2.36065334       3.28307686       6.72416666       0.00006950      -0.00009973      -0.00012119
F        2.36065349       3.28307681       4.08877171       0.00006475      -0.00009154       0.00011361
F        3.88219960       1.13128608       6.72416640      -0.00006860       0.00009631      -0.00011919
