9
Lattice="4.6684308961630885 6.594372818042036e-08 2.6953197813421985 1.5561436582258839 4.401439256528902 2.695319843697444 4.0560754856135523e-08 1.0505007138707935e-07 5.390639492431106" Properties=species:S:1:pos:R:3:forces:R:3 energy=-41.735198974609375 free_energy=-41.735198974609375 stress="0.00034367493935860693 9.963670777324296e-09 -9.890002594659109e-09 9.963670777324296e-09 0.0003437235136516392 1.7841584210032124e-08 -9.890002594659109e-09 1.7841584210032124e-08 0.0003436883562244475" pbc="T T T"
Co       1.55614379       1.10035941       2.69531962       0.00000094      -0.00000225      -0.00000207
Co       4.66843064       3.30107965       8.08595935      -0.00000152       0.00000124       0.00000108
Ru       0.00000003       0.00000016      -0.00000000      -0.00000050      -0.00000036      -0.00000308
F        1.59439221       1.12740561       5.39063939      -0.00654878      -0.00463165      -0.00000111
F        4.63018224       3.27403400       5.39063957       0.00654913       0.00463255       0.00000102
F        3.87123518       1.12740581       4.07610400       0.00327587      -0.00463161      -0.00567085
F        2.35333971       3.27403364       6.70517539      -0.00327626       0.00463264       0.00567195
F        2.35334018       3.27403371       4.07610374      -0.00327376       0.00463215      -0.00567116
F        3.87123443       1.12740577       6.70517540       0.00327495      -0.00463276       0.00567419
