9
Lattice="5.667349816055237 4.094709336637987e-08 3.2720459686710113 1.8891166433626068 5.343228533283252 3.272045969700589 2.667896687164998e-08 2.0125868249675854e-08 6.544091891132647" Properties=species:S:1:pos:R:3:forces:R:3 energy=-31.04343032836914 free_energy=-31.04343032836914 stress="0.00028110953280702233 1.9609700530054397e-09 8.493959313682353e-09 1.9609700530054397e-09 0.000281179731246084 2.6519282769754682e-08 8.493959313682353e-09 2.6519282769754682e-08 0.0002811080194078386" pbc="T T T"
Co       1.88911785       1.33580780       3.27204657       0.00000686       0.00000393       0.00000315
Co       5.66735020       4.00742052       9.81613846       0.00000309      -0.00000455       0.00000353
Rh      -0.00000015      -0.00000014      -0.00000006      -0.00000011       0.00000465      -0.00000154
Cl       1.88095956       1.33003997       6.54409175      -0.00023589      -0.00016244      -0.00000256
Cl       5.67550676       4.01318927       6.54409164       0.00023082       0.00016363      -0.00000212
Cl       4.72686952       1.33003959       4.90100444       0.00011311      -0.00016153      -0.00020416
Cl       2.82959635       4.01318887       8.18717892      -0.00011857       0.00016324       0.00020048
Cl       2.82959621       4.01318913       4.90100454      -0.00011405       0.00015785      -0.00019832
Cl       4.72686973       1.33003938       8.18717906       0.00011475      -0.00016497       0.00020176
