9
Lattice="5.70059532579065 2.3572471927724216e-08 3.2912402409788104 1.9001984788425341 5.374572755276482 3.2912402155384672 1.834781320956392e-08 -1.818407179876375e-08 6.582480450178245" Properties=species:S:1:pos:R:3:forces:R:3 energy=-32.089935302734375 free_energy=-32.089935302734375 stress="0.00036059037665836513 1.148923889360276e-08 -1.5355100302372193e-08 1.148923889360276e-08 0.00036058638943359256 9.985850368821048e-09 -1.5355100302372193e-08 9.985850368821048e-09 0.0003605781530495733" pbc="T T T"
Co       1.90019812       1.34364303       3.29124014      -0.00000296      -0.00000119       0.00000024
Co       5.70059672       4.03093068       9.87372019       0.00001038       0.00000702      -0.00000250
Ru       0.00000010      -0.00000022       0.00000029      -0.00000141       0.00000216       0.00000088
Cl       1.89555317       1.34035814       6.58248047      -0.00183281      -0.00129552       0.00000019
Cl       5.70524075       4.03421436       6.58248068       0.00183135       0.00129460       0.00000227
Cl       4.75281880       1.34035814       4.93283776       0.00091708      -0.00129966      -0.00158715
Cl       2.84797452       4.03421454       8.23212356      -0.00091809       0.00129454       0.00158396
Cl       2.84797444       4.03421443       4.93283737      -0.00091845       0.00129494      -0.00158316
Cl       4.75281866       1.34035790       8.23212316       0.00091510      -0.00129688       0.00158527
