9
Lattice="6.125179456643874 3.282435986433559e-08 3.536373924336393 2.041726529729577 5.774874483944694 3.536373901413538 -3.087688030196913e-08 -4.990791992611385e-08 7.072747902153101" Properties=species:S:1:pos:R:3:forces:R:3 energy=-28.984596252441406 free_energy=-28.984596252441406 stress="8.248916856246069e-05 3.119530234130252e-08 8.923940697513899e-09 3.119530234130252e-08 8.246879588114098e-05 -2.204143889628085e-08 8.923940697513899e-09 -2.204143889628085e-08 8.245420031016693e-05" pbc="T T T"
Co       2.04172576       1.44371762       3.53637390      -0.00000318      -0.00000426      -0.00000015
Co       6.12517950       4.33115724      10.60911987      -0.00000081       0.00000597      -0.00001017
Ru       0.00000006      -0.00000001      -0.00000013      -0.00000153      -0.00000363       0.00000446
Br       2.01669891       1.42602080       7.07274754       0.00073964       0.00051983       0.00000086
Br       6.15020705       4.34885325       7.07274858      -0.00073463      -0.00051857       0.00000448
Br       5.11683021       1.42602074       5.28288670      -0.00036965       0.00051928       0.00064332
Br       3.05007605       4.34885369       8.86260992       0.00037254      -0.00052268      -0.00064114
Br       3.05007575       4.34885332       5.28288661       0.00036715      -0.00051917       0.00063955
Br       5.11683056       1.42602123       8.86260992      -0.00036963       0.00052315      -0.00064114
