9
Lattice="6.512507681134278 2.0176205413820958e-08 3.7599980601923226 2.1708359138424993 6.1400511652793135 3.759998058271876 -9.467165758311008e-09 -9.046364417718555e-09 7.5199961367822405" Properties=species:S:1:pos:R:3:forces:R:3 energy=-25.271345138549805 free_energy=-25.271345138549805 stress="0.0002446252328809351 -1.1862746340796093e-08 9.084916818835609e-09 -1.1862746340796093e-08 0.0002446401631459594 -9.959522095925877e-09 9.084916818835609e-09 -9.959522095925877e-09 0.00024467194452881813" pbc="T T T"
Co       2.17083568       1.53501272       3.75999818       0.00000008      -0.00000008       0.00000025
Co       6.51250792       4.60503862      11.27999376       0.00000007       0.00000043      -0.00000030
Ru      -0.00000010       0.00000010      -0.00000026      -0.00000028       0.00000044       0.00000076
I        2.18231707       1.54313133       7.51999615      -0.00211460      -0.00149595       0.00000070
I        6.50102668       4.59691986       7.51999624       0.00211436       0.00149540       0.00000009
I        5.42134910       1.54313108       5.64994024       0.00105791      -0.00149642      -0.00183159
I        3.26199449       4.59691993       9.39005228      -0.00105734       0.00149601       0.00183161
I        3.26199431       4.59691976       5.64994019      -0.00105795       0.00149608      -0.00183258
I        5.42134919       1.54313130       9.39005225       0.00105773      -0.00149592       0.00183098
