9
Lattice="4.959929649155372 2.568469654369923e-07 2.8636164525592704 1.653310237425096 4.6762651216618645 2.8636162581960214 3.742294115457326e-07 2.6574764324973057e-08 5.727232256934189" Properties=species:S:1:pos:R:3:forces:R:3 energy=-38.71992492675781 free_energy=-38.71992492675781 stress="7.175455539254472e-05 -6.446587974551221e-08 1.0762398749974977e-09 -6.446587974551221e-08 7.168274896685034e-05 3.034010731539638e-08 1.0762398749974977e-09 3.034010731539638e-08 7.163020927691832e-05" pbc="T T T"
Co       1.65329788       1.16906358       2.86361605      -0.00004874      -0.00001077      -0.00000173
Co       4.95992475       3.50719485       8.59084898      -0.00002039      -0.00001723       0.00000126
Sb       0.00000202       0.00000069      -0.00000019       0.00000607      -0.00000318      -0.00000069
F        1.67438804       1.18396987       5.72723246      -0.00507623      -0.00359081      -0.00000047
F        4.93885616       3.49229647       5.72723280       0.00508524       0.00358769       0.00000053
F        4.12274084       1.18397126       4.31367728       0.00255829      -0.00358386      -0.00439440
F        2.49050493       3.49229704       7.14078759      -0.00253150       0.00360098       0.00440089
F        2.49050565       3.49229712       4.31367700      -0.00252847       0.00359896      -0.00439748
F        4.12274084       1.18397058       7.14078803       0.00255593      -0.00358164       0.00439225
