9
Lattice="5.877438106152844 2.5996977896797966e-08 3.3933403761331737 1.9591460288629843 5.54130168418197 3.3933404298812895 3.5033263118683794e-09 6.830495912229673e-08 6.78668074619839" Properties=species:S:1:pos:R:3:forces:R:3 energy=-28.022361755371094 free_energy=-28.022361755371094 stress="6.554240371769993e-06 1.9560500774673528e-08 -2.5381636348242864e-08 1.9560500774673528e-08 6.526155175379245e-06 -9.181206905850559e-09 -2.5381636348242864e-08 -9.181206905850559e-09 6.516238954645814e-06" pbc="T T T"
Co       1.95914540       1.38532515       3.39334044      -0.00000239      -0.00000235       0.00000113
Co       5.87743734       4.15597591      10.18001937      -0.00000478      -0.00000262      -0.00000872
Sb       0.00000011      -0.00000007      -0.00000008      -0.00000038       0.00000166       0.00000136
Cl       1.96403655       1.38878342       6.78668074       0.00088483       0.00062510       0.00000084
Cl       5.87254778       4.15251836       6.78668158      -0.00088289      -0.00062430       0.00000317
Cl       4.89542010       1.38878329       5.09424592      -0.00044122       0.00062516       0.00076678
Cl       2.94116491       4.15251857       8.47911637       0.00044633      -0.00062695      -0.00076595
Cl       2.94116398       4.15251861       5.09424587       0.00044324      -0.00062528       0.00076813
Cl       4.89542038       1.38878388       8.47911607      -0.00044270       0.00062969      -0.00076649
