9
Lattice="6.21504805671311 5.014418368955498e-08 3.5882595968265254 2.0716827501547006 5.859603309731588 3.5882595668494512 -5.011013132002237e-08 -7.214750826103228e-08 7.176519280446378" Properties=species:S:1:pos:R:3:forces:R:3 energy=-25.07617950439453 free_energy=-25.07617950439453 stress="0.00012012532533844933 -3.272876636373212e-09 1.0520708748629204e-08 -3.272876636373212e-09 0.00012013378000119701 -1.4283566329709174e-08 1.0520708748629204e-08 -1.4283566329709174e-08 0.0001201365448650904" pbc="T T T"
Co       2.07168270       1.46490045       3.58825966       0.00000011      -0.00000043       0.00000080
Co       6.21504799       4.39470284      10.76477940      -0.00000028       0.00000119       0.00000141
Sb      -0.00000033       0.00000020      -0.00000035       0.00000654      -0.00000379       0.00000227
Br       2.11453211       1.49519978       7.17651908       0.00099501       0.00070327      -0.00000070
Br       6.17219865       4.36440354       7.17651905      -0.00099756      -0.00070519      -0.00000009
Br       5.15778218       1.49519975       5.41949764      -0.00049897       0.00070498       0.00086389
Br       3.12894855       4.36440338       8.93354051       0.00049748      -0.00070331      -0.00086193
Br       3.12894925       4.36440340       5.41949803       0.00049604      -0.00070131       0.00085850
Br       5.15778193       1.49519978       8.93354075      -0.00049841       0.00070460      -0.00086404
