9
Lattice="6.805791724100731 2.1491894334835457e-08 3.9293257325465842 2.268597246123639 6.41656212445581 3.9293257594038296 -7.471432006765575e-08 -1.993766256002636e-08 7.858651594502127" Properties=species:S:1:pos:R:3:forces:R:3 energy=-30.086021423339844 free_energy=-30.086021423339844 stress="9.426644828636199e-05 1.818286321508822e-08 1.1910925579172726e-08 1.818286321508822e-08 9.424617746844888e-05 -8.581208632563175e-09 1.1910925579172726e-08 -8.581208632563175e-09 9.423889423487708e-05" pbc="T T T"
Co       2.26859735       1.60414042       3.92932581      -0.00000011      -0.00000094      -0.00000011
Co       6.80579181       4.81242139      11.78797773       0.00000074       0.00000059       0.00000158
Ta       0.00000024       0.00000021       0.00000038      -0.00000490       0.00000003      -0.00000384
I        2.23985920       1.58381957       7.85865148      -0.00135508      -0.00095759      -0.00000080
I        6.83452949       4.83274240       7.85865139       0.00135776       0.00096036      -0.00000039
I        5.68586223       1.58381949       5.86910050       0.00067589      -0.00095628      -0.00117223
I        3.38852672       4.83274239       9.84820236      -0.00067673       0.00095737       0.00117148
I        3.38852672       4.83274266       5.86910064      -0.00067689       0.00095676      -0.00117166
I        5.68586182       1.58381992       9.84820209       0.00067925      -0.00096036       0.00117601
