9
Lattice="6.287539439914615 -5.3949843800164976e-08 3.6301126701328705 2.0958464418259566 5.927948961942388 3.6301126481032693 4.858394134724821e-09 -2.354527359562092e-08 7.260225331850796" Properties=species:S:1:pos:R:3:forces:R:3 energy=-34.87110137939453 free_energy=-34.87110137939453 stress="0.00028828284121118486 -1.4885329413516502e-08 1.0314275655787242e-08 -1.4885329413516502e-08 0.0002882950066123158 4.4572296964418e-09 1.0314275655787242e-08 4.4572296964418e-09 0.0002882995759136975" pbc="T T T"
Co       2.09584702       1.48198869       3.63011335       0.00000175       0.00000346       0.00000226
Co       6.28753853       4.44596241      10.89033981      -0.00000239       0.00000236       0.00000596
Ta       0.00000017      -0.00000031      -0.00000021      -0.00000168       0.00000325      -0.00000034
Br       2.06125345       1.45752563       7.26022491      -0.00655445      -0.00463575      -0.00000074
Br       6.32213260       4.47042242       7.26022451       0.00655472       0.00463399      -0.00000120
Br       5.25691266       1.45752638       5.41521041       0.00327879      -0.00463766      -0.00568047
Br       3.12647278       4.47042257       9.10524006      -0.00327688       0.00463295       0.00567576
Br       3.12647347       4.47042228       5.41520997      -0.00327727       0.00463420      -0.00567865
Br       5.25691293       1.45752549       9.10523979       0.00327757      -0.00463685       0.00567758
