9
Lattice="5.48228045166478 5.523343492728799e-07 3.16519586755083 1.8274272102593918 5.16874440672298 3.1651960887474853 -1.5938234479499357e-07 1.5820919725250313e-07 6.330392011159966" Properties=species:S:1:pos:R:3:forces:R:3 energy=-50.65956115722656 free_energy=-50.65956115722656 stress="-7.818380981916562e-05 -1.1293807666845623e-08 1.8550704083963865e-08 -1.1293807666845623e-08 -7.828170782886446e-05 -4.100491945990825e-09 1.8550704083963865e-08 -4.100491945990825e-09 -7.824975182302296e-05" pbc="T T T"
Co       1.82742501       1.29217824       3.16519327       0.00000022      -0.00000143       0.00000073
Co       5.48227305       3.87655411       9.49558207      -0.00000195      -0.00000093      -0.00000151
Ta       0.00000097       0.00000132       0.00000063      -0.00000441      -0.00001399      -0.00001140
F        1.57668372       1.11488329       6.33039348       0.00156927       0.00110960       0.00000036
F        5.73302623       4.05386409       6.33039402      -0.00155878      -0.00110257       0.00000003
F        4.69394115       1.11488534       4.53064321      -0.00078410       0.00111067       0.00136042
F        2.61577105       4.05386407       8.13014219       0.00077796      -0.00110078      -0.00135040
F        2.61576990       4.05386392       4.53064386       0.00078219      -0.00110620       0.00135708
F        4.69394019       1.11488569       8.13014281      -0.00078100       0.00110579      -0.00135547
