9
Lattice="5.850005918356414 1.6957713737106648e-07 3.3775026003167294 1.9500020492912444 5.515439068627129 3.3775027447231554 -6.266426575028473e-08 1.3255071760243856e-07 6.755005309171101" Properties=species:S:1:pos:R:3:forces:R:3 energy=-38.73038101196289 free_energy=-38.73038101196289 stress="8.885267016012222e-05 3.6360226829401654e-08 2.0468458927780375e-08 3.6360226829401654e-08 8.883051486918703e-05 1.6143054892836517e-08 2.0468458927780375e-08 1.6143054892836517e-08 8.871354657458141e-05" pbc="T T T"
Co       1.95000310       1.37885984       3.37750172       0.00000632       0.00000252      -0.00000486
Co       5.85000607       4.13657940      10.13250767      -0.00000053      -0.00000184      -0.00000346
Ta      -0.00000007      -0.00000005       0.00000033      -0.00000296       0.00000134      -0.00000316
Cl       1.93902769       1.37110024       6.75500542      -0.00041419      -0.00029203       0.00000178
Cl       5.86097993       4.14433928       6.75500556       0.00041318       0.00029278       0.00000132
Cl       4.88049178       1.37109971       5.05674990       0.00020233      -0.00028884      -0.00035173
Cl       2.91951591       4.14433915       8.45326110      -0.00020397       0.00028831       0.00035465
Cl       2.91951575       4.14433959       5.05675011      -0.00020289       0.00028843      -0.00035071
Cl       4.88049147       1.37110045       8.45326096       0.00020269      -0.00029093       0.00035632
