9
Lattice="6.219962909388011 1.0451257904375056e-07 3.591097122129991 2.073320933246579 5.864237561692547 3.5910973561037878 -7.527031410995476e-08 2.333340477589473e-07 7.182194374631961" Properties=species:S:1:pos:R:3:forces:R:3 energy=-32.96239471435547 free_energy=-32.96239471435547 stress="0.00010460031626280397 4.965908573240085e-09 7.239671528935787e-09 4.965908573240085e-09 0.00010459507757332176 1.7567486354508333e-09 7.239671528935787e-09 1.7567486354508333e-09 0.00010458895849296823" pbc="T T T"
Cr       2.07332123       1.46605894       3.59109743       0.00000191      -0.00000180       0.00000034
Cr       6.21996199       4.39817801      10.77329182      -0.00000238      -0.00000096       0.00000103
As      -0.00000017       0.00000038      -0.00000073       0.00000302      -0.00000113       0.00000643
Br       2.11189916       1.49333876       7.18219429      -0.00492376      -0.00348146      -0.00000069
Br       6.18138528       4.37090015       7.18219433       0.00492085       0.00348022       0.00000091
Br       5.16401315       1.49333796       5.42005462       0.00246127      -0.00348031      -0.00426316
Br       3.12926993       4.37090030       8.94433399      -0.00245888       0.00347953       0.00426126
Br       3.12927094       4.37089961       5.42005538      -0.00246153       0.00348306      -0.00426565
Br       5.16401361       1.49333751       8.94433414       0.00245953      -0.00347719       0.00425952
