9
Lattice="5.577051354150703 2.2003406946682306e-08 3.219912206450925 1.8590171546219192 5.258094273992609 3.219912179038243 9.236976870553827e-08 3.174175469342483e-08 6.439824252912701" Properties=species:S:1:pos:R:3:forces:R:3 energy=-42.72462463378906 free_energy=-42.72462463378906 stress="-1.083007373381406e-05 -9.61330481885625e-09 -2.078186867038312e-08 -9.61330481885625e-09 -1.0861563168873545e-05 -2.879166771663222e-08 -2.078186867038312e-08 -2.879166771663222e-08 -1.0813687367772218e-05" pbc="T T T"
Cr       1.85901775       1.31452388       3.21991146       0.00000484       0.00000191      -0.00000551
Cr       5.57705149       3.94357155       9.65973600       0.00000342       0.00000704      -0.00000511
As       0.00000027      -0.00000002      -0.00000012      -0.00000009      -0.00000051      -0.00000510
S        1.89726209       1.34156615       6.43982488       0.00036597       0.00025475       0.00000524
S        5.53880652       3.91652873       6.43982424      -0.00036681      -0.00025374      -0.00000031
S        4.62842066       1.34156560       4.86298919      -0.00018424       0.00025421       0.00031960
S        2.80764763       3.91652725       8.01666004       0.00017971      -0.00025904      -0.00031173
S        2.80764726       3.91652762       4.86298882       0.00017840      -0.00026155       0.00031614
S        4.62842068       1.34156670       8.01666001      -0.00018078       0.00025767      -0.00031298
