9
Lattice="5.584600639928281 9.826948032049138e-08 3.2242707910123483 1.861533574026421 5.265212152793943 3.2242709040558246 -8.743475123666472e-08 7.662373587622135e-08 6.448541733466106" Properties=species:S:1:pos:R:3:forces:R:3 energy=-39.97435760498047 free_energy=-39.97435760498047 stress="4.079103018739261e-05 -2.580030766807795e-08 -1.5043738699205278e-08 -2.580030766807795e-08 4.0803130104904994e-05 9.933549982577006e-09 -1.5043738699205278e-08 9.933549982577006e-09 4.077145058545284e-05" pbc="T T T"
Cr       1.86153292       1.31630365       3.22427310      -0.00000464       0.00000184       0.00001668
Cr       5.58459928       3.94891046       9.67281384      -0.00000928       0.00000928       0.00000806
As       0.00000018       0.00000005      -0.00000002      -0.00000030      -0.00000051      -0.00000159
Se       2.09679481       1.48265689       6.44854059       0.00604698       0.00426744      -0.00000805
Se       5.34933947       3.78255441       6.44854153      -0.00603974      -0.00427306      -0.00000171
Se       4.53620377       1.48265798       5.04014805      -0.00301954       0.00427081       0.00523055
Se       2.90993127       3.78255475       7.85693471       0.00302143      -0.00426824      -0.00523332
Se       2.90993111       3.78255393       5.04014739       0.00302286      -0.00427637       0.00522661
Se       4.53620367       1.48265720       7.85693448      -0.00301768       0.00426875      -0.00523731
