9
Lattice="4.416324148793404 -4.867011230765733e-08 2.5497660115814997 1.4721080147508043 4.163750409569723 2.54976599246032 1.2714683032989164e-08 -1.4427959600738797e-08 5.099532001140551" Properties=species:S:1:pos:R:3:forces:R:3 energy=-54.462928771972656 free_energy=-54.462928771972656 stress="0.0002902437699958682 -3.7616722181610385e-08 -7.986371741708354e-08 -3.7616722181610385e-08 0.0002902067790273577 4.484612237121155e-09 -7.986371741708354e-08 4.484612237121155e-09 0.0002903155400417745" pbc="T T T"
Cr       1.47210833       1.04093665       2.54976718       0.00000306      -0.00001294       0.00001606
Cr       4.41632499       3.12281348       7.64929843       0.00001169       0.00001113       0.00000677
As      -0.00000007      -0.00000002       0.00000012       0.00000074       0.00000283      -0.00000592
O        1.47032435       1.03967590       5.09953231      -0.00436807      -0.00309205       0.00000031
O        4.41810740       3.12407490       5.09953216       0.00436032       0.00309467      -0.00000265
O        3.68116163       1.03967620       3.82310387       0.00218236      -0.00308859      -0.00378573
O        2.20726957       3.12407461       6.37595910      -0.00218821       0.00309312       0.00377822
O        2.20726983       3.12407351       3.82310364      -0.00218815       0.00308537      -0.00378788
O        3.68116271       1.03967598       6.37595912       0.00218821      -0.00309277       0.00378251
