9
Lattice="6.776005722434568 -2.1313427451750852e-08 3.912128726960329 2.2586685423953003 6.388479604295258 3.9121287471475337 -1.6139421324670606e-08 1.3311901522606756e-08 7.824257481874979" Properties=species:S:1:pos:R:3:forces:R:3 energy=-29.724061965942383 free_energy=-29.724061965942383 stress="6.645826942985877e-05 1.2418417405513082e-09 -9.758329699849355e-10 1.2418417405513082e-09 6.645521352766082e-05 -3.095466105662581e-09 -9.758329699849355e-10 -3.095466105662581e-09 6.645995017606765e-05" pbc="T T T"
Cr       2.25866860       1.59711992       3.91212872      -0.00000025       0.00000009       0.00000036
Cr       6.77600563       4.79135960      11.73638649       0.00000065      -0.00000046       0.00000008
As       0.00000003       0.00000001      -0.00000028      -0.00000095      -0.00000031       0.00000158
I        2.31831286       1.63929483       7.82425742      -0.00668027      -0.00472302       0.00000044
I        6.71636137       4.74918472       7.82425730       0.00668088       0.00472381       0.00000000
I        5.61684907       1.63929488       5.91984682       0.00334071      -0.00472457      -0.00578636
I        3.41782495       4.74918494       9.72866827      -0.00333979       0.00472323       0.00578499
I        3.41782518       4.74918478       5.91984680      -0.00334059       0.00472461      -0.00578632
I        5.61684930       1.63929469       9.72866828       0.00333963      -0.00472338       0.00578531
