9
Lattice="4.749117258614652 -9.212055431202196e-08 2.741904249636153 1.5830390468817113 4.477510382406202 2.7419041673135807 1.0443300541586138e-07 -2.6978808140788557e-08 5.483808318389038" Properties=species:S:1:pos:R:3:forces:R:3 energy=-46.59806823730469 free_energy=-46.59806823730469 stress="0.00024289940483868122 -1.2835502438690582e-08 -1.9791475125430225e-08 -1.2835502438690582e-08 0.00024286811822094023 9.528650757317791e-09 -1.9791475125430225e-08 9.528650757317791e-09 0.00024293939350172877" pbc="T T T"
Cr       1.58303939       1.11937725       2.74190395       0.00000035      -0.00000090       0.00000041
Cr       4.74911737       3.35813298       8.22571280       0.00000037       0.00000075       0.00000015
As      -0.00000009       0.00000011       0.00000015       0.00000330       0.00000016      -0.00000059
F        1.58245126       1.11896172       5.48380827      -0.00238511      -0.00168708       0.00000018
F        4.74970527       3.35854883       5.48380843       0.00238296       0.00168508       0.00000040
F        3.95789156       1.11896156       4.11234708       0.00119333      -0.00168689      -0.00206596
F        2.37426433       3.35854856       6.85526959      -0.00119410       0.00168774       0.00206682
F        2.37426486       3.35854866       4.11234701      -0.00119267       0.00168753      -0.00206670
F        3.95789188       1.11896159       6.85526984       0.00119153      -0.00168620       0.00206539
