9
Lattice="6.219513735248854 1.7788552752762682e-07 3.5908379347429897 2.073171438581983 5.863813291362953 3.5908378900785913 1.5329294036673876e-07 5.3692075504288036e-08 7.181675603974776" Properties=species:S:1:pos:R:3:forces:R:3 energy=-32.962406158447266 free_energy=-32.962406158447266 stress="6.53715615044348e-05 -4.575152201535815e-10 -4.630738903443898e-09 -4.575152201535815e-10 6.537267472594976e-05 -1.4169804218866489e-09 -4.630738903443898e-09 -1.4169804218866489e-09 6.537714943988249e-05" pbc="T T T"
Cr       2.07316999       1.46595274       3.59083809      -0.00000386      -0.00000178       0.00000204
Cr       6.21951423       4.39786069      10.77251457       0.00000040       0.00000106       0.00000236
As       0.00000023       0.00000016      -0.00000026      -0.00000021      -0.00000052       0.00000086
Br       2.11159006       1.49311891       7.18167563      -0.00350963      -0.00248169       0.00000014
Br       6.18109574       4.37069421       7.18167536       0.00351049       0.00248220      -0.00000124
Br       5.16371924       1.49311957       5.41952798       0.00175665      -0.00248219      -0.00304005
Br       3.12896623       4.37069448       8.94382323      -0.00175489       0.00248223       0.00303802
Br       3.12896599       4.37069433       5.41952786      -0.00175533       0.00248256      -0.00303985
Br       5.16371969       1.49311900       8.94382325       0.00175638      -0.00248188       0.00303771
