9
Lattice="6.775685958816304 -8.728860527245061e-09 3.911944094260937 2.258561992758434 6.388177952652414 3.9119440687720326 4.9267659474310375e-09 -2.773363405167477e-08 7.823888179988459" Properties=species:S:1:pos:R:3:forces:R:3 energy=-29.72405433654785 free_energy=-29.72405433654785 stress="5.042763950768858e-05 4.5594474862298284e-09 4.173924317285582e-09 4.5594474862298284e-09 5.041966142016463e-05 -9.43627576077688e-09 4.173924317285582e-09 -9.43627576077688e-09 5.042331395088695e-05" pbc="T T T"
Cr       2.25856184       1.59704480       3.91194415      -0.00000121       0.00000051       0.00000030
Cr       6.77568599       4.79113341      11.73583273      -0.00000000       0.00000008       0.00000084
As      -0.00000006      -0.00000013      -0.00000005      -0.00000043       0.00000079      -0.00000067
I        2.31835329       1.63932307       7.82388830      -0.00723375      -0.00511510       0.00000008
I        6.71589479       4.74885486       7.82388824       0.00723408       0.00511492      -0.00000029
I        5.61650949       1.63932318       5.91969675       0.00361704      -0.00511412      -0.00626414
I        3.41773854       4.74885457       9.72807939      -0.00361661       0.00511369       0.00626369
I        3.41773864       4.74885481       5.91969664      -0.00361617       0.00511440      -0.00626428
I        5.61650933       1.63932311       9.72807918       0.00361703      -0.00511518       0.00626438
