9
Lattice="6.432753282524483 -1.7200148297573392e-07 3.7139520198622713 2.1442509259010456 6.064857684248263 3.7139520304437914 1.8054805570729805e-07 1.406264089021517e-07 7.427903727006134" Properties=species:S:1:pos:R:3:forces:R:3 energy=-29.908985137939453 free_energy=-29.908985137939453 stress="8.015507773961872e-05 2.302112633856268e-08 -1.8198841544858624e-08 2.302112633856268e-08 8.014038758119568e-05 2.931374609715931e-08 -1.8198841544858624e-08 2.931374609715931e-08 8.010265446500853e-05" pbc="T T T"
Cr       2.14425160       1.51621537       3.71395174       0.00000024       0.00000205      -0.00000075
Cr       6.43275349       4.54864308      11.14185589       0.00000115       0.00000002       0.00000074
B       -0.00000025       0.00000022      -0.00000044      -0.00000165       0.00000099      -0.00000219
I        2.03012223       1.43551288       7.42790433       0.00180761       0.00127701       0.00000162
I        6.54688204       4.62934409       7.42790389      -0.00180569      -0.00127815      -0.00000004
I        5.41769219       1.43551317       5.47208959      -0.00090500       0.00127884       0.00156461
I        3.15931244       4.62934462       9.38371823       0.00090361      -0.00127882      -0.00156553
I        3.15931171       4.62934389       5.47208953       0.00090357      -0.00127995       0.00156610
I        5.41769213       1.43551324       9.38371841      -0.00090379       0.00127790      -0.00156446
