9
Lattice="5.193754014704864 -2.940025150960881e-07 2.998615045929267 1.73125110288304 4.896717467262877 2.998614973466661 1.4462040446104435e-08 -7.852201238116793e-08 5.997230066809542" Properties=species:S:1:pos:R:3:forces:R:3 energy=-46.2965087890625 free_energy=-46.2965087890625 stress="0.00010849814134417102 -1.7536189389488754e-08 -3.091495059948102e-08 -1.7536189389488754e-08 0.00010836435831151903 4.1788876359305505e-08 -3.091495059948102e-08 4.1788876359305505e-08 0.00010841646871995181" pbc="T T T"
Cr       1.73125182       1.22417995       2.99861485       0.00000153       0.00000143      -0.00000072
Cr       5.19375306       3.67253733       8.99584505      -0.00000148      -0.00000087      -0.00000157
Bi      -0.00000004       0.00000011      -0.00000041       0.00000076      -0.00000600       0.00000614
F        1.77334395       1.25394315       5.99722998      -0.00069055      -0.00048906       0.00000028
F        5.15166124       3.64277384       5.99723028       0.00069296       0.00048971      -0.00000003
F        4.30708215       1.25394302       4.53437581       0.00034657      -0.00048950      -0.00060022
F        2.61792338       3.64277330       7.46008456      -0.00034679       0.00048962       0.00060180
F        2.61792313       3.64277397       4.53437544      -0.00034654       0.00048953      -0.00060129
F        4.30708214       1.25394356       7.46008476       0.00034370      -0.00048485       0.00059575
