9
Lattice="6.976765000492878 -3.590235280824502e-08 4.028037159574647 2.325588293978607 6.577757120156202 4.02803716939531 -1.001238226347928e-08 4.947913277653626e-09 8.05607433649132" Properties=species:S:1:pos:R:3:forces:R:3 energy=-29.390460968017578 free_energy=-29.390460968017578 stress="0.00018922018352895975 -3.2606730648865323e-09 2.1250566584196662e-10 -3.2606730648865323e-09 0.00018921987793873996 -4.6112824669819474e-09 2.1250566584196662e-10 -4.6112824669819474e-09 0.00018922537856269628" pbc="T T T"
Cr       2.32558816       1.64443930       4.02803725       0.00000047       0.00000019      -0.00000002
Cr       6.97676510       4.93331784      12.08411118      -0.00000010      -0.00000015      -0.00000045
Bi       0.00000014      -0.00000013       0.00000008      -0.00000057       0.00000082       0.00000141
I        2.47551786       1.75045540       8.05607433      -0.00422756      -0.00298917       0.00000073
I        6.82683566       4.82730168       8.05607445       0.00422741       0.00298911      -0.00000008
I        5.73900596       1.75045539       6.17189850       0.00211461      -0.00299022      -0.00366155
I        3.56334723       4.82730174       9.94025027      -0.00211348       0.00298902       0.00366027
I        3.56334694       4.82730171       6.17189838      -0.00211441       0.00299012      -0.00366112
I        5.73900610       1.75045544       9.94025017       0.00211365      -0.00298974       0.00366082
