9
Lattice="5.970516061124524 -2.400221334465911e-08 3.4470790255304777 1.990171989637693 5.629056507150919 3.4470790395733055 -5.0979753587566176e-08 -1.884922097897382e-08 6.89415813936046" Properties=species:S:1:pos:R:3:forces:R:3 energy=-33.88682174682617 free_energy=-33.88682174682617 stress="-2.832464269886259e-05 -1.756907686001341e-08 -1.3439232837697546e-08 -1.756907686001341e-08 -2.8350519642117433e-05 4.651386775744726e-10 -1.3439232837697546e-08 4.651386775744726e-10 -2.8366228434606455e-05" pbc="T T T"
Cr       1.99017171       1.40726463       3.44707915      -0.00000060       0.00000149       0.00000171
Cr       5.97051571       4.22179243      10.34123709      -0.00000118       0.00000017      -0.00000003
B        0.00000015       0.00000126       0.00000072       0.00000108       0.00000918       0.00000306
Br       1.85110472       1.30892850       6.89415801       0.00265386       0.00187623       0.00000227
Br       6.10958298       4.32012716       6.89415792      -0.00265481      -0.00187902       0.00000077
Br       5.04496347       1.30892895       5.05018237      -0.00132459       0.00187245       0.00229660
Br       2.91572467       4.32012730       8.73813317       0.00132885      -0.00188141      -0.00230129
Br       2.91572463       4.32012698       5.05018309       0.00132545      -0.00187522       0.00229763
Br       5.04496393       1.30892862       8.73813332      -0.00132814       0.00187618      -0.00230081
