9
Lattice="5.644232855205674 -1.836527734253262e-08 3.2586992318274097 1.881410927159091 5.321433776956122 3.2586992444041525 -4.877972929697609e-08 -1.9089163038465234e-08 6.517398548143768" Properties=species:S:1:pos:R:3:forces:R:3 energy=-36.80529022216797 free_energy=-36.80529022216797 stress="-0.00012650873395614326 -2.9744080976001896e-08 -2.3302938245706173e-08 -2.9744080976001896e-08 -0.00012646085815504193 -2.2364735841051697e-08 -2.3302938245706173e-08 -2.2364735841051697e-08 -0.00012651211000047624" pbc="T T T"
Cr       1.88141145       1.33035892       3.25869829       0.00000236       0.00000108      -0.00000284
Cr       5.64423268       3.99107588       9.77609762      -0.00000037       0.00000087      -0.00000209
B       -0.00000004      -0.00000261      -0.00000464      -0.00000095      -0.00002265      -0.00005046
Cl       1.69686116       1.19986235       6.51739887       0.00426653       0.00301669       0.00000645
Cl       5.82878342       4.12157218       6.51739841      -0.00425856      -0.00301002       0.00000065
Cl       4.79580119       1.19986230       4.72822544      -0.00213882       0.00302293       0.00370885
Cl       2.72984065       4.12157279       8.30657496       0.00212338      -0.00300317      -0.00367635
Cl       2.72984148       4.12157131       4.72822429       0.00213517      -0.00301654       0.00370011
Cl       4.79580286       1.19986184       8.30657478      -0.00212898       0.00301092      -0.00368404
