9
Lattice="6.392550014484465 -7.952160373683545e-08 3.6907406782856413 2.130849926764988 6.0269539917029675 3.690740683636752 3.441062397824027e-08 3.088572053960254e-08 7.381481296970301" Properties=species:S:1:pos:R:3:forces:R:3 energy=-32.76451873779297 free_energy=-32.76451873779297 stress="0.0002543918089941144 -1.8167641613331398e-08 -1.2036649899016538e-08 -1.8167641613331398e-08 0.00025440409081056714 1.3533010267963164e-08 -1.2036649899016538e-08 1.3533010267963164e-08 0.00025441133766435087" pbc="T T T"
Cr       2.13084972       1.50673841       3.69074082      -0.00000094      -0.00000012       0.00000057
Cr       6.39255002       4.52021583      11.07222228       0.00000007       0.00000155       0.00000201
Bi       0.00000006      -0.00000006      -0.00000003       0.00000133      -0.00000080       0.00000006
Br       2.26117218       1.59888986       7.38148124      -0.00189199      -0.00133885      -0.00000047
Br       6.26222766       4.42806393       7.38148133       0.00189319       0.00133904      -0.00000112
Br       5.26196413       1.59889028       5.64897330       0.00094756      -0.00134009      -0.00164182
Br       3.26143614       4.42806387       9.11398931      -0.00094863       0.00134019       0.00164158
Br       3.26143589       4.42806364       5.64897322      -0.00094687       0.00133884      -0.00164007
Br       5.26196419       1.59888993       9.11398928       0.00094629      -0.00133977       0.00163928
