9
Lattice="4.432233719112964 9.055949431156068e-09 2.558951291839662 1.4774112569169406 4.178749990585783 2.5589512768148457 1.3389001519337325e-10 -1.8306898374604672e-08 5.117902583447417" Properties=species:S:1:pos:R:3:forces:R:3 energy=-50.92315673828125 free_energy=-50.92315673828125 stress="-0.00027173070702701807 9.245324861240078e-08 -1.967734064578508e-08 9.245324861240078e-08 -0.0002716767485253513 -7.014897995816227e-09 -1.967734064578508e-08 -7.014897995816227e-09 -0.0002716295712161809" pbc="T T T"
Cr       1.47741142       1.04468733       2.55895101      -0.00000031      -0.00000146      -0.00000066
Cr       4.43223334       3.13406245       7.67685430      -0.00000153      -0.00000009       0.00000092
B        0.00000002       0.00000001       0.00000012      -0.00000051       0.00000102      -0.00000533
F        1.32213927       0.93489357       5.11790239       0.00175339       0.00123790       0.00000280
F        4.58750581       3.24385637       5.11790256      -0.00175345      -0.00123802       0.00000205
F        3.77116413       0.93489380       3.70395760      -0.00087371       0.00123659       0.00151554
F        2.13848070       3.24385634       6.53184753       0.00087754      -0.00124148      -0.00151595
F        2.13848107       3.24385629       3.70395751       0.00087661      -0.00123465       0.00151524
F        3.77116414       0.93489375       6.53184765      -0.00087921       0.00124007      -0.00151405
