9
Lattice="6.026227731332902 -4.617765586044918e-08 3.479244287136022 2.0087424919533303 5.681582168363446 3.479244359225585 -5.193190300577694e-08 5.156993033095922e-08 6.958488664220705" Properties=species:S:1:pos:R:3:forces:R:3 energy=-35.470191955566406 free_energy=-35.470191955566406 stress="0.00010327432391932234 2.9160299064301398e-08 7.984092498247719e-09 2.9160299064301398e-08 0.00010326792835257947 5.029971994474636e-10 7.984092498247719e-09 5.029971994474636e-10 0.00010324259346816689" pbc="T T T"
Cr       2.00874251       1.42039497       3.47924443       0.00000186      -0.00000241       0.00000023
Cr       6.02622746       4.26118656      10.43773302      -0.00000171       0.00000066      -0.00000028
Bi       0.00000010       0.00000026       0.00000011      -0.00000207      -0.00000097       0.00000156
Cl       2.10909515       1.49135550       6.95848851       0.00269652       0.00190600      -0.00000016
Cl       5.92587475       4.19022701       6.95848861      -0.00269549      -0.00190402       0.00000025
Cl       4.97168022       1.49135554       5.30577430      -0.00134892       0.00190683       0.00233669
Cl       3.06329018       4.19022676       8.61120301       0.00134992      -0.00190770      -0.00233735
Cl       3.06329013       4.19022672       5.30577427       0.00134891      -0.00190672       0.00233622
Cl       4.97168013       1.49135534       8.61120297      -0.00134900       0.00190822      -0.00233716
