9
Lattice="5.6810924416129085 -6.322851629919314e-08 3.2799802429426586 1.893697429774914 5.356185443098301 3.2799802276145558 8.895423572305037e-09 -1.2483006907003108e-08 6.559960470477982" Properties=species:S:1:pos:R:3:forces:R:3 energy=-34.09491729736328 free_energy=-34.09491729736328 stress="-0.0003737263032235205 -2.3355147149572986e-08 6.342575797901873e-09 -2.3355147149572986e-08 -0.0003737727820407599 9.639139264550067e-09 6.342575797901873e-09 9.639139264550067e-09 -0.00037375008105300367" pbc="T T T"
Cr       1.89369763       1.33904663       3.27998004       0.00000241       0.00000205      -0.00000248
Cr       5.68109240       4.01713857       9.83994033      -0.00000103      -0.00000292      -0.00000356
C        0.00000058       0.00000013       0.00000101      -0.00000140      -0.00000157       0.00000138
Cl       1.87650193       1.32688711       6.55996014      -0.00149873      -0.00105897       0.00000036
Cl       5.69828821       4.02929816       6.55996026       0.00149543       0.00105836       0.00000177
Cl       4.74284114       1.32688701       4.90507837       0.00075147      -0.00105900      -0.00129837
Cl       2.83194836       4.02929754       8.21484261      -0.00074862       0.00105917       0.00129976
Cl       2.83194821       4.02929862       4.90507861      -0.00074918       0.00106097      -0.00129632
Cl       4.74284102       1.32688764       8.21484238       0.00074975      -0.00105799       0.00129753
