9
Lattice="5.99820267393804 -4.3119305616243665e-08 3.4630638623336774 1.999400879782249 5.655159654528801 3.463063811891443 -6.079894286738142e-10 -6.220879673029125e-08 6.926127725720481" Properties=species:S:1:pos:R:3:forces:R:3 energy=-35.321712493896484 free_energy=-35.321712493896484 stress="0.0003736521757673472 1.2372551871919768e-09 -1.4555904925828145e-08 1.2372551871919768e-09 0.0003736232465598732 -3.3579479197243245e-09 -1.4555904925828145e-08 -3.3579479197243245e-09 0.000373628456145525" pbc="T T T"
Cr       1.99940087       1.41379007       3.46306433       0.00000119       0.00000043       0.00000150
Cr       5.99820253       4.24136955      10.38919152      -0.00000144       0.00000060      -0.00000085
Co       0.00000016      -0.00000006      -0.00000032      -0.00000002       0.00000026       0.00000103
Br       1.97877681       1.39920617       6.92612768      -0.00101843      -0.00071954      -0.00000067
Br       6.01882658       4.25595333       6.92612771       0.00101892       0.00072021       0.00000051
Br       5.00881441       1.39920636       5.17673432       0.00050962      -0.00071966      -0.00088222
Br       2.98878924       4.25595311       8.67552103      -0.00050984       0.00071892       0.00088172
Br       2.98878930       4.25595333       5.17673439      -0.00050956       0.00071885      -0.00088181
Br       5.00881428       1.39920633       8.67552100       0.00050956      -0.00072004       0.00088090
