9
Lattice="4.1562390535069085 -7.203603739223713e-08 2.399605707273432 1.385412944127843 3.9185396633870218 2.399605717304653 -4.5745822839759966e-08 -2.0061448279203643e-08 4.799211493780898" Properties=species:S:1:pos:R:3:forces:R:3 energy=-46.828094482421875 free_energy=-46.828094482421875 stress="2.383396349614486e-05 -7.5148163247718e-09 -5.301751215824879e-08 -7.5148163247718e-09 2.324701563338749e-05 -1.3280454425057542e-07 -5.301751215824879e-08 -1.3280454425057542e-07 2.3470784071832895e-05" pbc="T T T"
Cr       1.38541296       0.97963534       2.39960587      -0.00000129       0.00000229       0.00000048
Cr       4.15623898       2.93890447       7.19881711       0.00000190      -0.00000473      -0.00000025
C       -0.00000017       0.00000007      -0.00000040       0.00000569      -0.00000588       0.00000970
F        1.22497762       0.86618933       4.79921163      -0.00716351      -0.00505309      -0.00000247
F        4.31667465       3.05235001       4.79921197       0.00715673       0.00506222      -0.00001201
F        3.54375024       0.86618901       3.46046725       0.00357876      -0.00504760      -0.00620408
F        1.99790157       3.05234992       6.13795612      -0.00358700       0.00506394       0.00619183
F        1.99790179       3.05235012       3.46046718      -0.00357468       0.00505389      -0.00619325
F        3.54375022       0.86619011       6.13795523       0.00358304      -0.00507081       0.00620911
