9
Lattice="4.633092377499623 -3.021347620284465e-08 2.6749171873708155 1.5443640949813484 4.368121398803659 2.674917191469376 -2.3724255467807995e-08 -1.1755870062251482e-08 5.349834415833213" Properties=species:S:1:pos:R:3:forces:R:3 energy=-48.85419464111328 free_energy=-48.85419464111328 stress="-2.0553768990794197e-05 -2.196052584224617e-08 4.281856202936751e-09 -2.196052584224617e-08 -2.0509736714302562e-05 -5.172728911873037e-09 4.281856202936751e-09 -5.172728911873037e-09 -2.055796721833758e-05" pbc="T T T"
Cr       1.54436234       1.09202839       2.67491754      -0.00000820      -0.00000803       0.00000084
Cr       4.63309220       3.27609102       8.02475019      -0.00000197      -0.00000180      -0.00000882
Co       0.00000009       0.00000017      -0.00000006       0.00000383      -0.00000747       0.00000082
F        1.51113057       1.06853123       5.34983463       0.00314620       0.00222675       0.00000066
F        4.66632616       3.29959055       5.34983491      -0.00314332      -0.00222304       0.00000310
F        3.87752697       1.06853057       3.98359497      -0.00157201       0.00222262       0.00272710
F        2.29993020       3.29959162       6.71607395       0.00157513      -0.00221807      -0.00272153
F        2.29992992       3.29959122       3.98359524       0.00157109      -0.00221618       0.00272203
F        3.87752739       1.06853077       6.71607393      -0.00157084       0.00222531      -0.00272410
