9
Lattice="5.598286135095652 -2.8900618711264335e-08 3.2321720663551257 1.8660953761269956 5.278114584908106 3.232172023037336 6.755716342118836e-08 -5.283107410506576e-09 6.464344015697788" Properties=species:S:1:pos:R:3:forces:R:3 energy=-38.25371551513672 free_energy=-38.25371551513672 stress="9.322205005446449e-05 -1.5968646849273682e-08 8.886992475254374e-09 -1.5968646849273682e-08 9.326407598564401e-05 9.802273659431648e-09 8.886992475254374e-09 9.802273659431648e-09 9.324383427156135e-05" pbc="T T T"
Cr       1.86609571       1.31952893       3.23217206       0.00000049       0.00000201      -0.00000086
Cr       5.59828633       3.95858478       9.69651561      -0.00000054      -0.00000721       0.00000041
Co      -0.00000005      -0.00000034       0.00000064      -0.00000025       0.00000376      -0.00001271
Cl       1.83584725       1.29814061       6.46434438       0.00062700       0.00044507       0.00000027
Cl       5.62853440       3.97997398       6.46434420      -0.00062686      -0.00044504       0.00000011
Cl       4.68036220       1.29814037       4.82206262      -0.00031513       0.00044686       0.00054462
Cl       2.78401926       3.97997458       8.10662507       0.00031073      -0.00043765      -0.00054036
Cl       2.78401920       3.97997446       4.82206219       0.00031659      -0.00044951       0.00054677
Cl       4.68036204       1.29814085       8.10662561      -0.00031189       0.00044173      -0.00053786
