9
Lattice="6.45896652533784 -5.455873122574413e-08 3.7290860228481377 2.152988823789022 6.089571947948879 3.729085964914188 4.4327475907143216e-08 -3.961003736594697e-08 7.458171968918811" Properties=species:S:1:pos:R:3:forces:R:3 energy=-29.714157104492188 free_energy=-29.714157104492188 stress="-8.000817615538836e-05 -1.1748515049703201e-08 -9.142444135079586e-09 -1.1748515049703201e-08 -8.000387606443837e-05 3.926463154613202e-09 -9.142444135079586e-09 3.926463154613202e-09 -7.999249646672979e-05" pbc="T T T"
Cr       2.15298898       1.52239264       3.72908612       0.00000036       0.00000031       0.00000008
Cr       6.45896636       4.56717911      11.18725790      -0.00000120       0.00000103      -0.00000010
C        0.00000017      -0.00000032       0.00000006       0.00000018      -0.00000069       0.00000020
I        2.16078739       1.52790717       7.45817195       0.00767070       0.00542234      -0.00000028
I        6.45116806       4.56166466       7.45817194      -0.00766972      -0.00542223       0.00000004
I        5.37857280       1.52790731       5.60038265      -0.00383483       0.00542250       0.00664195
I        3.23338252       4.56166477       9.31596149       0.00383481      -0.00542320      -0.00664163
I        3.23338247       4.56166477       5.60038237       0.00383513      -0.00542353       0.00664225
I        5.37857284       1.52790732       9.31596130      -0.00383526       0.00542335      -0.00664246
