9
Lattice="6.015898779246577 -7.093182691490206e-08 3.4732808023388864 2.0052995337898256 5.671843635862883 3.4732807892051927 5.5861740146264206e-09 -1.2135493742903598e-08 6.9465615950023665" Properties=species:S:1:pos:R:3:forces:R:3 energy=-32.3353157043457 free_energy=-32.3353157043457 stress="-2.6418716515763663e-05 3.992677855002569e-10 -1.1910456620967125e-08 3.992677855002569e-10 -2.6424115276313387e-05 8.442545329501172e-09 -1.1910456620967125e-08 8.442545329501172e-09 -2.639588637975976e-05" pbc="T T T"
Cr       2.00529939       1.41796013       3.47328066      -0.00000053      -0.00000198       0.00000002
Cr       6.01589956       4.25388245      10.41984238       0.00000253      -0.00000008      -0.00000014
C       -0.00000004      -0.00000030       0.00000032       0.00000061      -0.00000039       0.00000102
Br       1.98278804       1.40204394       6.94656149      -0.00083792      -0.00058979      -0.00000056
Br       6.03841035       4.26980018       6.94656147       0.00083545       0.00059041      -0.00000134
Br       5.02450409       1.40204303       5.19042611       0.00041795      -0.00059184      -0.00072429
Br       2.99669416       4.26980042       8.70269727      -0.00041927       0.00059402       0.00072442
Br       2.99669382       4.26980078       5.19042602      -0.00041714       0.00059204      -0.00072336
Br       5.02450384       1.40204353       8.70269698       0.00041831      -0.00059232       0.00072451
