9
Lattice="4.815870551308119 1.1065609812258504e-07 2.780444089363306 1.6052902386511405 4.540446787285148 2.7804441750059388 8.541444738508064e-08 1.6528749274344728e-07 5.560888030784444" Properties=species:S:1:pos:R:3:forces:R:3 energy=-50.05580139160156 free_energy=-50.05580139160156 stress="-2.2210228053154424e-05 5.090376831162757e-08 3.23538529301004e-08 5.090376831162757e-08 -2.2196496502147056e-05 -3.838897200125757e-09 3.23538529301004e-08 -3.838897200125757e-09 -2.216521170339547e-05" pbc="T T T"
Cr       1.60529053       1.13511185       2.78044417       0.00000066      -0.00000047      -0.00000033
Cr       4.81587069       3.40533405       8.34133306      -0.00000048      -0.00000351       0.00000247
Fe      -0.00000018      -0.00000016      -0.00000022      -0.00000378       0.00000555       0.00000635
F        1.58454287       1.12044171       5.56088886       0.00005370       0.00003874      -0.00000017
F        4.83661786       3.42000564       5.56088773      -0.00005288      -0.00003698      -0.00000166
F        4.02359895       1.12044186       4.15269805      -0.00002837       0.00003879       0.00004674
F        2.39756185       3.42000600       6.96907747       0.00003008      -0.00004201      -0.00005284
F        2.39756174       3.42000568       4.15269863       0.00002725      -0.00003889       0.00004752
F        4.02359918       1.12044177       6.96907736      -0.00002587       0.00003895      -0.00004773
