9
Lattice="5.669321186272621 -6.82057878200693e-08 3.273184199236158 1.8897736914547836 5.3450872879339135 3.2731841524667575 1.402086660158906e-08 -4.736628802964119e-08 6.546368374187516" Properties=species:S:1:pos:R:3:forces:R:3 energy=-40.24126434326172 free_energy=-40.24126434326172 stress="0.00018999699386768043 2.2280413958242207e-08 2.0387400212484863e-08 2.2280413958242207e-08 0.00018999117310158908 -1.5094895999823166e-08 2.0387400212484863e-08 -1.5094895999823166e-08 0.00019009225070476532" pbc="T T T"
Cr       1.88977206       1.33627129       3.27318516      -0.00000932      -0.00000305       0.00000551
Cr       5.66932080       4.00881604       9.81955186      -0.00000212       0.00000472      -0.00000484
Fe       0.00000002      -0.00000020       0.00000004       0.00000012       0.00000581      -0.00000437
Cl       1.81528778       1.28360200       6.54636859       0.00183046       0.00129198      -0.00000145
Cl       5.74380743       4.06148480       6.54636858      -0.00182858      -0.00129496       0.00000327
Cl       4.76167732       1.28360230       4.84526949      -0.00091511       0.00129169       0.00158194
Cl       2.79741813       4.06148539       8.24746706       0.00091815      -0.00129279      -0.00158338
Cl       2.79741783       4.06148512       4.84526971       0.00091504      -0.00129291       0.00158449
Cl       4.76167815       1.28360191       8.24746644      -0.00090879       0.00128947      -0.00158106
