9
Lattice="6.480424080096696 1.0369844024237698e-07 3.7414745649892422 2.1601414313600666 6.109802478826878 3.741474610784657 -8.591640544419489e-08 -4.664404477245431e-09 7.482949278790095" Properties=species:S:1:pos:R:3:forces:R:3 energy=-33.87379455566406 free_energy=-33.87379455566406 stress="5.3397285228129476e-05 2.5578867024478313e-08 1.965877460818888e-09 2.5578867024478313e-08 5.3391293477034196e-05 -4.369288042482822e-09 1.965877460818888e-09 -4.369288042482822e-09 5.3341434977483004e-05" pbc="T T T"
Cr       2.16014160       1.52745140       3.74147433       0.00000104       0.00000124      -0.00000045
Cr       6.48042372       4.58235114      11.22442358      -0.00000003      -0.00000123      -0.00000094
Fe       0.00000035       0.00000036      -0.00000004      -0.00000660      -0.00000740      -0.00000132
I        1.99309646       1.40933211       7.48294927       0.00406042       0.00287058       0.00000062
I        6.64746846       4.70047033       7.48294929      -0.00405212      -0.00286567       0.00000088
I        5.48387589       1.40933219       5.46754661      -0.00203031       0.00287050       0.00351651
I        3.15668959       4.70047028       9.49835175       0.00202934      -0.00287066      -0.00351361
I        3.15668954       4.70047037       5.46754685       0.00202784      -0.00286857       0.00351358
I        5.48387610       1.40933208       9.49835220      -0.00202974       0.00287108      -0.00351526
