9
Lattice="6.048268886421212 -6.338217996239118e-08 3.4919695943050644 2.016089582485956 5.702362588318725 3.4919695710329037 -6.509588932283338e-08 -7.453216957525053e-08 6.983939301359508" Properties=species:S:1:pos:R:3:forces:R:3 energy=-38.043338775634766 free_energy=-38.043338775634766 stress="5.777590558864176e-05 2.4648464602705644e-08 5.845282924354933e-09 2.4648464602705644e-08 5.7698085583979264e-05 5.6851416907477414e-09 5.845282924354933e-09 5.6851416907477414e-09 5.778698323410936e-05" pbc="T T T"
Cr       2.01608944       1.42559034       3.49196977      -0.00000068      -0.00000072       0.00000062
Cr       6.04826886       4.27677199      10.47590887       0.00000022       0.00000004       0.00000084
Fe       0.00000012       0.00000001      -0.00000018      -0.00000345       0.00000261       0.00000735
Br       1.85462661       1.31141907       6.98393896      -0.00081095      -0.00057461      -0.00000018
Br       6.20973167       4.39094363       6.98393928       0.00081291       0.00057522       0.00000027
Br       5.12095562       1.31141923       5.09812347       0.00040669      -0.00057551      -0.00070496
Br       2.94340284       4.39094335       8.86975506      -0.00040356       0.00057095       0.00069893
Br       2.94340297       4.39094333       5.09812347      -0.00040554       0.00057434      -0.00070322
Br       5.12095544       1.31141897       8.86975507       0.00040423      -0.00057247       0.00070035
