9
Lattice="6.660449509333866 -4.958487242356942e-08 3.845412310960903 2.220149771827079 6.279532020460398 3.8454123419099613 -2.7036409525932117e-08 1.8787111653553808e-08 7.6908246687502375" Properties=species:S:1:pos:R:3:forces:R:3 energy=-28.98072052001953 free_energy=-28.98072052001953 stress="9.689247963251546e-05 -1.6075296649376014e-09 1.0895262470000944e-09 -1.6075296649376014e-09 9.68978347373195e-05 1.9567318876312356e-09 1.0895262470000944e-09 1.9567318876312356e-09 9.689092257758602e-05" pbc="T T T"
Cr       2.22014987       1.56988301       3.84541240       0.00000111      -0.00000062       0.00000029
Cr       6.66044929       4.70964882      11.53623718      -0.00000056      -0.00000100      -0.00000038
Ga      -0.00000010      -0.00000013      -0.00000019       0.00000033       0.00000131       0.00000107
I        2.25533336       1.59476150       7.69082468       0.00063528       0.00045068      -0.00000007
I        6.62526601       4.68477066       7.69082459      -0.00063756      -0.00045040       0.00000024
I        5.53278274       1.59476161       5.79858834      -0.00031737       0.00044948       0.00055023
I        3.34781650       4.68477050       9.58306104       0.00031892      -0.00045045      -0.00055178
I        3.34781658       4.68477043       5.79858826       0.00031788      -0.00044934       0.00055165
I        5.53278277       1.59476156       9.58306099      -0.00031807       0.00045035      -0.00055118
