9
Lattice="5.7481375783747835 2.2263749680002305e-08 3.3186887721576435 1.9160458731326928 5.419396082550426 3.318688784829357 1.2946283759677414e-08 2.467402259199746e-08 6.637377521891668" Properties=species:S:1:pos:R:3:forces:R:3 energy=-35.95519256591797 free_energy=-35.95519256591797 stress="0.00012001131835859269 -7.703502724609734e-09 -1.4604517595273592e-08 -7.703502724609734e-09 0.00012000861170236021 3.762908207249893e-09 -1.4604517595273592e-08 3.762908207249893e-09 0.00012000471178907901" pbc="T T T"
Cr       1.91604482       1.35484907       3.31868876      -0.00000676      -0.00000101       0.00000157
Cr       5.74813809       4.06454713       9.95606599       0.00000322      -0.00000049      -0.00000187
Ga      -0.00000013      -0.00000011      -0.00000007       0.00000237       0.00000194      -0.00000187
Cl       1.91455077       1.35379173       6.63737741       0.00038362       0.00027034      -0.00000074
Cl       5.74963303       4.06560460       6.63737771      -0.00038666      -0.00027294      -0.00000070
Cl       4.79086261       1.35379161       4.97673842      -0.00019081       0.00027397       0.00033474
Cl       2.87332098       4.06560401       8.29801687       0.00019018      -0.00027157      -0.00033259
Cl       2.87332084       4.06560449       4.97673851       0.00019351      -0.00027257       0.00033554
Cl       4.79086289       1.35379204       8.29801668      -0.00018845       0.00027233      -0.00033417
