9
Lattice="6.714321258088191 -1.1820858263553597e-08 3.876515177119412 2.2381070987856475 6.330322681663491 3.8765151357215895 1.5572417559508208e-08 -3.969040208729968e-08 7.7530303272666155" Properties=species:S:1:pos:R:3:forces:R:3 energy=-29.806440353393555 free_energy=-29.806440353393555 stress="0.00011391745647415519 -5.948840864355986e-10 9.87936399354794e-10 -5.948840864355986e-10 0.00011391488078515977 3.381936730662005e-09 9.87936399354794e-10 3.381936730662005e-09 0.00011392094165785238" pbc="T T T"
Cr       2.23810708       1.58258083       3.87651506      -0.00000040       0.00000021      -0.00000021
Cr       6.71432146       4.74774179      11.62954545       0.00000089      -0.00000016      -0.00000046
Ge       0.00000008      -0.00000011       0.00000005       0.00000017      -0.00000003       0.00000046
I        2.33113721       1.64836309       7.75303035      -0.00068285      -0.00048244       0.00000004
I        6.62129105       4.68195974       7.75303029       0.00068265       0.00048239       0.00000024
I        5.54875280       1.64836289       5.89533930       0.00034154      -0.00048304      -0.00059155
I        3.40367556       4.68195974       9.61072130      -0.00034125       0.00048254       0.00059159
I        3.40367564       4.68195972       5.89533933      -0.00034197       0.00048269      -0.00059123
I        5.54875261       1.64836280       9.61072139       0.00034118      -0.00048219       0.00059100
