9
Lattice="4.825382303647405 1.0840550284719583e-08 2.7859359988808188 1.6084607639555426 4.549414617297811 2.78593602338504 -4.5442576871572785e-08 -2.1213825575816794e-09 5.571872076470486" Properties=species:S:1:pos:R:3:forces:R:3 energy=-48.58893585205078 free_energy=-48.58893585205078 stress="7.243259460665286e-05 -6.855398737570795e-08 6.2536207323660165e-09 -6.855398737570795e-08 7.233835640363395e-05 -6.494064175299741e-10 6.2536207323660165e-09 -6.494064175299741e-10 7.23530029063113e-05" pbc="T T T"
Cr       1.60846043       1.13735423       2.78593531      -0.00000032       0.00000009      -0.00000074
Cr       4.82538246       3.41206018       8.35780711       0.00000052       0.00000017      -0.00000011
Ge       0.00000010       0.00000018       0.00000023       0.00000358      -0.00001297      -0.00000107
F        1.49827670       1.05944204       5.57187215      -0.00132730      -0.00093788      -0.00000052
F        4.93556624       3.48997263       5.57187251       0.00133010       0.00094081       0.00000018
F        4.07624422       1.05944174       4.08348221       0.00066271      -0.00093780      -0.00114845
F        2.35759921       3.48997259       7.06026208      -0.00066679       0.00094372       0.00115483
F        2.35759921       3.48997280       4.08348218      -0.00066556       0.00094265      -0.00115453
F        4.07624360       1.05944213       7.06026249       0.00066307      -0.00093886       0.00115043
