9
Lattice="4.746768503521135 8.49563413310887e-08 2.740548094007749 1.5822561617578539 4.475296630830326 2.740548243275958 -5.150996367603835e-08 1.463924765155689e-07 5.481096277233257" Properties=species:S:1:pos:R:3:forces:R:3 energy=-48.079139709472656 free_energy=-48.079139709472656 stress="-0.00018097387510351837 -3.765891065654614e-08 -1.5458521573918915e-08 -3.765891065654614e-08 -0.0001810033427318558 -5.858022955607112e-09 -1.5458521573918915e-08 -5.858022955607112e-09 -0.00018089657532982528" pbc="T T T"
Cr       1.58225648       1.11882466       2.74054741      -0.00000061       0.00000025      -0.00000149
Cr       4.74676759       3.35647267       8.22164504      -0.00000251       0.00000111       0.00000193
Ga       0.00000005      -0.00000013       0.00000017      -0.00000306       0.00000619       0.00000074
F        1.54326814       1.09125475       5.48109640       0.00095089       0.00067094       0.00000092
F        4.78575638       3.38404194       5.48109597      -0.00094931      -0.00067191      -0.00000082
F        3.97513485       1.09125561       4.07705764      -0.00047038       0.00066923       0.00081713
F        2.35389014       3.38404096       6.88513526       0.00047290      -0.00067216      -0.00082056
F        2.35389049       3.38404135       4.07705759       0.00047414      -0.00067204       0.00081968
F        3.97513437       1.09125570       6.88513507      -0.00047221       0.00066847      -0.00081764
