9
Lattice="5.81195527152053 3.835669491174285e-08 3.3555339498836267 1.9373184670135946 5.479564005840212 3.355533937741334 3.487524094074523e-08 9.789269597688562e-09 6.711067839361548" Properties=species:S:1:pos:R:3:forces:R:3 energy=-36.7457160949707 free_energy=-36.7457160949707 stress="0.00020331941777840257 -2.2363083829191055e-08 -7.1901071763136315e-09 -2.2363083829191055e-08 0.00020347356621641666 -9.30941990162637e-09 -7.1901071763136315e-09 -9.30941990162637e-09 0.0002034151111729443" pbc="T T T"
Cr       1.93731818       1.36989097       3.35553396      -0.00000000       0.00000102       0.00000055
Cr       5.81195508       4.10967211      10.06660254      -0.00000136      -0.00000401       0.00000377
Ge       0.00000000       0.00000025      -0.00000018       0.00000210      -0.00000221      -0.00000056
Cl       1.87962342       1.32909459       6.71106788       0.00611372       0.00432367       0.00000065
Cl       5.86965063       4.15046975       6.71106791      -0.00611550      -0.00432502      -0.00000085
Cl       4.87214368       1.32909489       4.98333524      -0.00305551       0.00432507       0.00529418
Cl       2.87713003       4.15046955       8.43879990       0.00305402      -0.00432129      -0.00529550
Cl       2.87713020       4.15046932       4.98333557       0.00305705      -0.00431962       0.00529109
Cl       4.87214388       1.32909477       8.43880011      -0.00305442       0.00432242      -0.00529341
