9
Lattice="6.1334482921187465 -6.501135509615537e-08 3.5411480540208045 2.0444827041714317 5.782670438123465 3.541148051552372 -1.0885510549143117e-07 -7.999541951434393e-08 7.082296296584165" Properties=species:S:1:pos:R:3:forces:R:3 energy=-33.447166442871094 free_energy=-33.447166442871094 stress="5.0059796194545925e-05 -2.821825662024935e-09 -5.182489992705541e-09 -2.821825662024935e-09 5.0062546506524086e-05 -2.6976578748616475e-09 -5.182489992705541e-09 -2.6976578748616475e-09 5.0085327529814094e-05" pbc="T T T"
Cr       2.04448253       1.44566794       3.54114791      -0.00000087       0.00000137      -0.00000059
Cr       6.13344859       4.33700225      10.62344263       0.00000092      -0.00000142      -0.00000474
Ge      -0.00000006       0.00000014       0.00000026      -0.00000070      -0.00000117      -0.00000053
Br       2.03365455       1.43801074       7.08229639       0.00533243       0.00377234       0.00000075
Br       6.14427632       4.34465938       7.08229663      -0.00533136      -0.00376902       0.00000155
Br       5.11662103       1.43801088       5.30234491      -0.00266605       0.00377037       0.00461744
Br       3.06131001       4.34465933       8.86224802       0.00266594      -0.00377154      -0.00461812
Br       3.06130954       4.34465933       5.30234496       0.00266535      -0.00377103       0.00462012
Br       5.11662104       1.43801121       8.86224789      -0.00266560       0.00377009      -0.00461593
