9
Lattice="4.746768452005681 7.221719049807621e-08 2.7405479957250627 1.582256121927156 4.475296628882884 2.7405481634367375 -6.648002991405975e-08 1.5839552392047822e-07 5.4810961065968735" Properties=species:S:1:pos:R:3:forces:R:3 energy=-48.079139709472656 free_energy=-48.079139709472656 stress="-0.00018092518439516425 -5.855221019146484e-08 -1.0069032274628853e-09 -5.855221019146484e-08 -0.00018090338562615216 -2.6557810173244434e-08 -1.0069032274628853e-09 -2.6557810173244434e-08 -0.00018077473214361817" pbc="T T T"
Cr       1.58225693       1.11882445       2.74054760       0.00000139      -0.00000043      -0.00000103
Cr       4.74676786       3.35647253       8.22164485      -0.00000060       0.00000063       0.00000099
Ga       0.00000003      -0.00000000      -0.00000003       0.00000278       0.00000260      -0.00000227
F        1.54326802       1.09125500       5.48109634       0.00094725       0.00066952      -0.00000016
F        4.78575645       3.38404179       5.48109584      -0.00094973      -0.00067174       0.00000087
F        3.97513433       1.09125572       4.07705729      -0.00047182       0.00066790       0.00081608
F        2.35388995       3.38404101       6.88513489       0.00047175      -0.00066893      -0.00081486
F        2.35389049       3.38404141       4.07705761       0.00047079      -0.00066715       0.00081448
F        3.97513422       1.09125554       6.88513463      -0.00047170       0.00066763      -0.00081429
