9
Lattice="5.748138056264083 2.0882555987473233e-08 3.31868910357236 1.9160460676997124 5.419396423783405 3.3186890528981468 7.331391515932033e-08 -1.0222186180842937e-08 6.637378080161292" Properties=species:S:1:pos:R:3:forces:R:3 energy=-35.95519256591797 free_energy=-35.95519256591797 stress="0.0001200153274112381 2.421228906257511e-08 -1.4783052115774353e-08 2.421228906257511e-08 0.00012000682181678712 -1.4597558717355241e-08 -1.4783052115774353e-08 -1.4597558717355241e-08 0.00012001962022623047" pbc="T T T"
Cr       1.91604531       1.35484890       3.31868876      -0.00000455      -0.00000021      -0.00000016
Cr       5.74813867       4.06454742       9.95606732       0.00000338       0.00000022       0.00000041
Ga       0.00000009      -0.00000008       0.00000019      -0.00000053      -0.00000118      -0.00000093
Cl       1.91455064       1.35379188       6.63737832       0.00038874       0.00027299       0.00000160
Cl       5.74963353       4.06560469       6.63737786      -0.00038520      -0.00027211      -0.00000219
Cl       4.79086287       1.35379163       4.97673867      -0.00019312       0.00027351       0.00033653
Cl       2.87332133       4.06560466       8.29801756       0.00019220      -0.00027308      -0.00033468
Cl       2.87332102       4.06560492       4.97673867       0.00019059      -0.00027396       0.00033602
Cl       4.79086328       1.35379169       8.29801757      -0.00019124       0.00027409      -0.00033665
