9
Lattice="6.363715595435469 -9.021015998638216e-08 3.674093094149174 2.121238421128811 5.999768451109739 3.6740931385451634 -2.5804821941950657e-09 5.254909072965421e-08 7.348186192767859" Properties=species:S:1:pos:R:3:forces:R:3 energy=-42.813236236572266 free_energy=-42.813236236572266 stress="0.00018757554062176496 -8.53173443005062e-09 -1.793125292692821e-08 -8.53173443005062e-09 0.00018757760699372739 2.7506841249191893e-08 -1.793125292692821e-08 2.7506841249191893e-08 0.00018757727229967713" pbc="T T T"
Cr       2.12123841       1.49994222       3.67409323       0.00000027       0.00000072      -0.00000017
Cr       6.36371536       4.49982623      11.02228004      -0.00000124      -0.00000022       0.00000119
Hf      -0.00000009      -0.00000017      -0.00000036       0.00000353       0.00000114       0.00000303
Br       2.11912873       1.49845016       7.34818612      -0.00172406      -0.00121894      -0.00000116
Br       6.36582554       4.50131838       7.34818606       0.00172064       0.00121640      -0.00000025
Br       5.30415131       1.49845027       5.50931234       0.00086260      -0.00121914      -0.00149354
Br       3.18080283       4.50131814       9.18706001      -0.00086175       0.00121959       0.00149277
Br       3.18080277       4.50131832       5.50931238      -0.00086087       0.00121750      -0.00149137
Br       5.30415126       1.49845005       9.18705988       0.00086081      -0.00121704       0.00148952
