9
Lattice="5.258815683222736 -6.928275369490763e-07 3.036178221765114 1.7529382055991498 4.9580566885116895 3.0361777060834125 2.463583082084228e-07 -4.573768970991988e-07 6.072356016825109" Properties=species:S:1:pos:R:3:forces:R:3 energy=-59.3835563659668 free_energy=-59.3835563659668 stress="-9.444577881367877e-05 -9.459483862883644e-09 -2.842424429161383e-08 -9.459483862883644e-09 -9.452277299715206e-05 1.64296363180938e-08 -2.842424429161383e-08 1.64296363180938e-08 -9.449320350540802e-05" pbc="T T T"
Cr       1.75293845       1.23951379       3.03617785      -0.00000030       0.00000015       0.00000004
Cr       5.25881559       3.71854245       9.10853375       0.00000015       0.00000059      -0.00000051
Hf      -0.00000017      -0.00000001       0.00000006      -0.00000097      -0.00000656       0.00000341
F        1.64608579       1.16395719       6.07235611       0.00248349       0.00175643       0.00000005
F        5.36566829       3.79409805       6.07235612      -0.00247866      -0.00175282      -0.00000024
F        4.43577296       1.16395693       4.46173048      -0.00124007       0.00175443       0.00214806
F        2.57598112       3.79409840       7.68298185       0.00123952      -0.00175440      -0.00214797
F        2.57598089       3.79409875       4.46172973       0.00124045      -0.00175551       0.00214899
F        4.43577348       1.16395673       7.68298234      -0.00124337       0.00175750      -0.00215164
