9
Lattice="7.002222348302704 1.3212181188876324e-07 4.042734706122718 2.3340742379947157 6.601758267030441 4.042734710750479 5.02168743036512e-09 9.218711525164267e-09 8.08546940354757" Properties=species:S:1:pos:R:3:forces:R:3 energy=-38.532711029052734 free_energy=-38.532711029052734 stress="-0.0002182224707212299 3.521919111904026e-08 -8.780574489719584e-09 3.521919111904026e-08 -0.00021824112627655268 1.0918944859383828e-08 -8.780574489719584e-09 1.0918944859383828e-08 -0.0002182537573389709" pbc="T T T"
Cr       2.33407429       1.65043929       4.04273466      -0.00000034      -0.00000081       0.00000040
Cr       7.00222263       4.95131892      12.12820443       0.00000026      -0.00000026       0.00000031
Hf       0.00000045       0.00000027      -0.00000044      -0.00000735      -0.00000201       0.00000147
I        2.31069059       1.63390476       8.08546930       0.00347258       0.00245585       0.00000018
I        7.02560514       4.96785284       8.08546912      -0.00346556      -0.00245020      -0.00000025
I        5.84687725       1.63390514       6.04385142      -0.00173556       0.00245388       0.00300521
I        3.48941922       4.96785382      10.12708806       0.00173646      -0.00245623      -0.00300825
I        3.48941940       4.96785381       6.04385084       0.00173686      -0.00245616       0.00300847
I        5.84687744       1.63390479      10.12708771      -0.00173730       0.00245596      -0.00300756
