9
Lattice="4.899676750143432 2.402355423025534e-07 2.828829641082579 1.633225744523982 4.619459916202428 2.8288297542779377 8.636730943484287e-08 1.9970634076148346e-07 5.657659132572586" Properties=species:S:1:pos:R:3:forces:R:3 energy=-48.052391052246094 free_energy=-48.052391052246094 stress="-1.6501011486980133e-05 -5.209836562158898e-09 -3.4563253592523324e-08 -5.209836562158898e-09 -1.6567290003877133e-05 -6.036033539658092e-08 -3.4563253592523324e-08 -6.036033539658092e-08 -1.6619287634966895e-05" pbc="T T T"
Cr       1.63322606       1.15486481       2.82882957       0.00000083       0.00000013       0.00000045
Cr       4.89967760       3.46459545       8.48648897       0.00000083      -0.00000031      -0.00000038
Ir       0.00000003      -0.00000026       0.00000006      -0.00000971       0.00000346       0.00000424
F        1.63134514       1.15353613       5.65765910       0.00042128       0.00029849      -0.00000045
F        4.90155707       3.46592439       5.65765985      -0.00041676      -0.00029453      -0.00000059
F        4.08400343       1.15353610       4.24161584      -0.00020893       0.00029616       0.00036132
F        2.44889843       3.46592439       7.07370238       0.00021200      -0.00030106      -0.00036690
F        2.44889851       3.46592504       4.24161679       0.00021067      -0.00029648       0.00036507
F        4.08400407       1.15353545       7.07370151      -0.00021008       0.00029404      -0.00036286
