9
Lattice="4.899731907462859 -8.439721902104006e-08 2.8288615973527036 1.6332439495748494 4.619511579122305 2.8288614934451486 -5.518431908840515e-09 -1.3116230386793805e-07 5.657723204263536" Properties=species:S:1:pos:R:3:forces:R:3 energy=-48.052391052246094 free_energy=-48.052391052246094 stress="-1.1791189535870217e-05 4.863616620554012e-09 6.324917478650605e-08 4.863616620554012e-09 -1.1832305062853266e-05 -5.2630010571874664e-08 6.324917478650605e-08 -5.2630010571874664e-08 -1.1782499313994776e-05" pbc="T T T"
Cr       1.63324377       1.15487851       2.82886131      -0.00000072       0.00000032      -0.00000106
Cr       4.89973169       3.46463217       8.48658403      -0.00000049      -0.00000076      -0.00000113
Ir       0.00000001       0.00000009       0.00000012      -0.00000666       0.00000220      -0.00000382
F        1.63134927       1.15353813       5.65772273       0.00039627       0.00028039      -0.00000025
F        4.90162647       3.46597338       5.65772353      -0.00039301      -0.00027835       0.00000187
F        4.08405768       1.15353861       4.24165135      -0.00019729       0.00028083       0.00034261
F        2.44891865       3.46597288       7.07379521       0.00019898      -0.00028197      -0.00034342
F        2.44891851       3.46597339       4.24165169       0.00019689      -0.00027931       0.00034232
F        4.08405756       1.15353828       7.07379504      -0.00019414       0.00027654      -0.00033694
