9
Lattice="6.1291974247320935 8.071618351202176e-08 3.5386937647047216 2.043065908023167 5.778662702617506 3.5386937236911837 3.7196066313652574e-08 -2.3929492130384476e-08 7.077387464983937" Properties=species:S:1:pos:R:3:forces:R:3 energy=-37.175621032714844 free_energy=-37.175621032714844 stress="7.914802699815482e-05 4.617894688863089e-08 2.2848674063880026e-09 4.617894688863089e-08 7.911238935776055e-05 -3.1208505224533667e-10 2.2848674063880026e-09 -3.1208505224533667e-10 7.908202678663656e-05" pbc="T T T"
Cr       2.04306556       1.44466571       3.53869416      -0.00000043      -0.00000027       0.00000093
Cr       6.12919769       4.33399751      10.61608108      -0.00000013       0.00000130       0.00000069
Ir      -0.00000000      -0.00000013      -0.00000007      -0.00000287       0.00000137       0.00000628
Br       2.01630730       1.42574437       7.07738727       0.00165706       0.00117070       0.00000025
Br       6.15595606       4.35291832       7.07738741      -0.00165581      -0.00117116      -0.00000029
Br       5.12104388       1.42574469       5.28486692      -0.00082842       0.00117152       0.00143606
Br       3.05121941       4.35291844       8.86990828       0.00083177      -0.00117555      -0.00144081
Br       3.05121937       4.35291792       5.28486673       0.00082940      -0.00117254       0.00143707
Br       5.12104419       1.42574424       8.86990802      -0.00083053       0.00117465      -0.00144022
