9
Lattice="6.550321142077627 3.6593560032688896e-08 3.7818296147075476 2.1834404192760193 6.175701936408777 3.781829607636026 -1.183193969543656e-08 -1.702723048081323e-08 7.56365924990859" Properties=species:S:1:pos:R:3:forces:R:3 energy=-34.26234436035156 free_energy=-34.26234436035156 stress="0.00014595284301321954 8.99949359478569e-09 -4.906424155848299e-09 8.99949359478569e-09 0.00014594136155210435 -1.1089209550618762e-09 -4.906424155848299e-09 -1.1089209550618762e-09 0.00014595224638469517" pbc="T T T"
Cr       2.18344035       1.54392560       3.78182956      -0.00000054       0.00000103       0.00000003
Cr       6.55032122       4.63177630      11.34548858       0.00000001      -0.00000084      -0.00000120
Ir      -0.00000007      -0.00000039      -0.00000016       0.00000091       0.00000351       0.00000233
I        2.17416570       1.53736742       7.56365926      -0.00044192      -0.00031251      -0.00000004
I        6.55959583       4.63833461       7.56365945       0.00043976       0.00031064       0.00000080
I        5.46323826       1.53736743       5.66471262       0.00022106      -0.00031253      -0.00038299
I        3.27052331       4.63833461       9.46260611      -0.00021988       0.00031097       0.00038050
I        3.27052314       4.63833464       5.66471241      -0.00021970       0.00031099      -0.00038087
I        5.46323846       1.53736762       9.46260605       0.00022024      -0.00031132       0.00038142
