9
Lattice="6.550215568545245 -9.810846444009539e-09 3.781768777455048 2.1834052118387555 6.175602404010923 3.7817687227682257 1.2256529330647552e-08 -5.831070651137309e-08 7.563537533681155" Properties=species:S:1:pos:R:3:forces:R:3 energy=-34.26234436035156 free_energy=-34.26234436035156 stress="0.00013565940025728196 2.3252400005446816e-09 1.833252483152137e-08 2.3252400005446816e-09 0.00013563231914304197 -1.3651103358824912e-08 1.833252483152137e-08 -1.3651103358824912e-08 0.00013562024105340242" pbc="T T T"
Cr       2.18340500       1.54390049       3.78176890      -0.00000029       0.00000025      -0.00000000
Cr       6.55021554       4.63170179      11.34530631       0.00000013       0.00000033       0.00000055
Ir       0.00000025       0.00000021       0.00000010      -0.00000570       0.00000200      -0.00000175
I        2.17415114       1.53735689       7.56353757      -0.00044649      -0.00031573      -0.00000013
I        6.55946959       4.63824517       7.56353734       0.00044996       0.00031766       0.00000028
I        5.46314006       1.53735686       5.66463870       0.00022350      -0.00031686      -0.00038821
I        3.27048067       4.63824550       9.46243634      -0.00022294       0.00031486       0.00038527
I        3.27048080       4.63824559       5.66463870      -0.00022359       0.00031625      -0.00038618
I        5.46314013       1.53735684       9.46243619       0.00022547      -0.00031879       0.00039017
