9
Lattice="6.717516538483519 -6.442800004455474e-08 3.8783600943790404 2.2391721562429368 6.3333354090954845 3.8783600294414597 8.387811620099499e-08 -2.0221121688530086e-08 7.7567200434768635" Properties=species:S:1:pos:R:3:forces:R:3 energy=-36.043643951416016 free_energy=-36.043643951416016 stress="0.00017568495240993798 -5.4710072028285595e-09 -3.3394547127585383e-09 -5.4710072028285595e-09 0.00017568546172697097 4.780709716989406e-10 -3.3394547127585383e-09 4.780709716989406e-10 0.00017569521151017398" pbc="T T T"
Cr       2.23917209       1.58333329       3.87836006       0.00000046      -0.00000071      -0.00000058
Cr       6.71751677       4.75000161      11.63508033       0.00000116      -0.00000086       0.00000070
Mo      -0.00000094       0.00000020       0.00000043       0.00001182      -0.00000013      -0.00000443
I        2.25824852       1.59682296       7.75671987      -0.00142078      -0.00100371       0.00000040
I        6.69844082       4.73651318       7.75672016       0.00141145       0.00099856      -0.00000042
I        5.58839242       1.59682260       5.83406003       0.00070763      -0.00099936      -0.00122513
I        3.36829660       4.73651233       9.67937946      -0.00071062       0.00100428       0.00122990
I        3.36829646       4.73651254       5.83406059      -0.00070900       0.00100334      -0.00122721
I        5.58839238       1.59682263       9.67937973       0.00070795      -0.00100143       0.00122668
