9
Lattice="4.970198611737386 4.477120298072062e-08 2.8695459287554823 1.6567329120995073 4.685948981756956 2.8695459299511596 -1.055683554003495e-07 -7.318370051772238e-08 5.739092040360623" Properties=species:S:1:pos:R:3:forces:R:3 energy=-51.28243637084961 free_energy=-51.28243637084961 stress="-0.00014617036504205316 6.866623181167597e-08 3.1696757218924176e-08 6.866623181167597e-08 -0.000146154168760404 -1.2716859032479988e-07 3.1696757218924176e-08 -1.2716859032479988e-07 -0.00014616033877246082" pbc="T T T"
Cr       1.65673212       1.17148742       2.86954578      -0.00000097       0.00000155       0.00000012
Cr       4.97019823       3.51446147       8.60863835      -0.00000059       0.00000027       0.00000129
Mo       0.00000018       0.00000047      -0.00000006      -0.00000825       0.00000013      -0.00000652
F        1.65785330       1.17227873       5.73909202      -0.00319243      -0.00225756       0.00000021
F        4.96907908       3.51366997       5.73909141       0.00319379       0.00225962      -0.00000094
F        4.14127264       1.17227888       4.30528838       0.00159461      -0.00225149      -0.00276088
F        2.48565850       3.51366960       7.17289644      -0.00159276       0.00225312       0.00275833
F        2.48565897       3.51367002       4.30528822      -0.00159366       0.00225519      -0.00276037
F        4.14127255       1.17227922       7.17289461       0.00160034      -0.00226074       0.00276873
