9
Lattice="4.973517587717395 -4.0557284835951774e-07 2.8714616162289124 1.6578390284504376 4.689076234445375 2.8714612439724045 -2.119200477155641e-07 -6.057693507773337e-07 5.742923599514133" Properties=species:S:1:pos:R:3:forces:R:3 energy=-51.28246307373047 free_energy=-51.28246307373047 stress="-0.00010871415724977851 -1.3595180980985333e-08 -5.322371166016637e-08 -1.3595180980985333e-08 -0.00010876567102968693 -1.2932403592458286e-07 -5.322371166016637e-08 -1.2932403592458286e-07 -0.00010855908476514742" pbc="T T T"
Cr       1.65783965       1.17226830       2.87146123       0.00000073       0.00000045      -0.00000036
Cr       4.97351722       3.51680678       8.61438279      -0.00000016       0.00000172      -0.00000324
Mo      -0.00000021       0.00000069       0.00000012       0.00000359      -0.00000849      -0.00000143
F        1.65766243       1.17214301       5.74292341       0.00490043       0.00346735      -0.00000018
F        4.97369504       3.51693175       5.74292371      -0.00490370      -0.00346515       0.00000218
F        4.14468567       1.17214307       4.30703989      -0.00245102       0.00346576       0.00424477
F        2.48666999       3.51693184       7.17880792       0.00245050      -0.00346352      -0.00424371
F        2.48666991       3.51693240       4.30703862       0.00244928      -0.00346325       0.00424371
F        4.14468593       1.17214352       7.17880772      -0.00244972       0.00346519      -0.00424181
