9
Lattice="6.069808836086692 -2.053296555767387e-08 3.504405653035566 2.023269566506963 5.722670727044888 3.5044056983517495 -5.188767360983292e-08 1.8810605771482616e-08 7.00881139594327" Properties=species:S:1:pos:R:3:forces:R:3 energy=-39.25998306274414 free_energy=-39.25998306274414 stress="5.96884248693641e-08 1.3375572649465539e-08 6.355399317925503e-09 1.3375572649465539e-08 4.5033143436512546e-08 -1.1045097281225935e-08 6.355399317925503e-09 -1.1045097281225935e-08 1.2542678895499648e-08" pbc="T T T"
Cr       2.02326959       1.43066784       3.50440584       0.00000059       0.00000021       0.00000061
Cr       6.06980880       4.29200304      10.51321767       0.00000005       0.00000034       0.00000180
Mn      -0.00000019       0.00000003       0.00000039       0.00000106       0.00000246      -0.00000287
Br       1.93037104       1.36497882       7.00881114      -0.00033593      -0.00023696       0.00000084
Br       6.16270781       4.35769210       7.00881109       0.00033161       0.00023341      -0.00000034
Br       5.10462306       1.36497827       5.17615576       0.00016688      -0.00023504      -0.00028694
Br       2.98845508       4.35769204       8.84146644      -0.00016616       0.00023550       0.00028693
Br       2.98845520       4.35769221       5.17615591      -0.00016596       0.00023631      -0.00028775
Br       5.10462305       1.36497853       8.84146672       0.00016788      -0.00023630       0.00028778
