9
Lattice="6.718005250711035 1.1452304692911124e-07 3.8786420189065733 2.2393351947279725 6.333796074512794 3.8786420133912016 1.8275177473085202e-08 6.167596367661473e-09 7.757284006159594" Properties=species:S:1:pos:R:3:forces:R:3 energy=-36.04362869262695 free_energy=-36.04362869262695 stress="0.00023017660714685917 2.0449125059940343e-08 -6.84822731855661e-09 2.0449125059940343e-08 0.0002301658532815054 4.231333061710529e-09 -6.84822731855661e-09 4.231333061710529e-09 0.00023015997430775315" pbc="T T T"
Cr       2.23933502       1.58344868       3.87864230       0.00000000      -0.00000073       0.00000045
Cr       6.71800525       4.75034702      11.63592624      -0.00000032       0.00000007       0.00000043
Mo       0.00000059       0.00000027       0.00000054      -0.00000628      -0.00000368      -0.00001188
I        2.25845777       1.59697084       7.75728417      -0.00290041      -0.00205158      -0.00000070
I        6.69888196       4.73682508       7.75728388       0.00290722       0.00205640       0.00000017
I        5.58877677       1.59697046       5.83452330       0.00144857      -0.00205001      -0.00251086
I        3.36856421       4.73682553       9.68004436      -0.00145235       0.00205566       0.00251606
I        3.36856376       4.73682585       5.83452325      -0.00144920       0.00204873      -0.00250977
I        5.58877651       1.59697106       9.68004415       0.00145274      -0.00205480       0.00251621
