9
Lattice="5.9038938013715665 1.9759325970073268e-10 3.408614753651828 1.9679646098256276 5.566244282984094 3.408614737747856 6.149515766188482e-08 2.400536691316763e-08 6.81722940079089" Properties=species:S:1:pos:R:3:forces:R:3 energy=-42.86521911621094 free_energy=-42.86521911621094 stress="0.00011902442201972008 1.603689447904344e-08 -4.322537439094276e-09 1.603689447904344e-08 0.0001190004768432118 2.3468349041877445e-08 -4.322537439094276e-09 2.3468349041877445e-08 0.00011903642734978348" pbc="T T T"
Cr       1.96796417       1.39155991       3.40861500      -0.00000011      -0.00000443       0.00000142
Cr       5.90389488       4.17468446      10.22584468       0.00000420       0.00000544       0.00000134
Mo      -0.00000014       0.00000009       0.00000016       0.00000141       0.00000036       0.00000070
Cl       1.94786452       1.37734772       6.81722956      -0.00023017      -0.00016269      -0.00000052
Cl       5.92399425       4.18889657       6.81722927       0.00022732       0.00016157      -0.00000113
Cl       4.92996117       1.37734765       5.09551467       0.00011363      -0.00016264      -0.00019887
Cl       2.94189664       4.18889631       8.53894356      -0.00011645       0.00016459       0.00019805
Cl       2.94189677       4.18889683       5.09551499      -0.00011482       0.00016129      -0.00019665
Cl       4.92996162       1.37734776       8.53894364       0.00011503      -0.00016342       0.00019572
