9
Lattice="6.197231526180605 -8.827364151280404e-08 3.577973265949625 2.0657437863305286 5.842805903420125 3.5779732183259947 8.052544829023287e-08 -1.3867290028839988e-09 7.155946392425068" Properties=species:S:1:pos:R:3:forces:R:3 energy=-39.903263092041016 free_energy=-39.903263092041016 stress="1.597908340045251e-05 2.8489239856099857e-09 -4.7901176358777775e-09 2.8489239856099857e-09 1.5994823115761392e-05 5.2303970043965364e-09 -4.7901176358777775e-09 5.2303970043965364e-09 1.597055779711809e-05" pbc="T T T"
Cr       2.06574382       1.46070184       3.57797308       0.00000021       0.00000161      -0.00000002
Cr       6.19723184       4.38210458      10.73391952       0.00000040      -0.00000028      -0.00000085
Mo       0.00000000       0.00000005       0.00000020       0.00000189      -0.00000226       0.00000303
Br       2.07640933       1.46824303       7.15594646       0.00004918       0.00003489       0.00000006
Br       6.18656598       4.37456245       7.15594637      -0.00004862      -0.00003475       0.00000036
Br       5.15902677       1.46824298       5.37619638      -0.00002558       0.00003388       0.00004238
Br       3.10394859       4.37456238       8.93569664       0.00002440      -0.00003520      -0.00004218
Br       3.10394831       4.37456271       5.37619652       0.00002339      -0.00003414       0.00004199
Br       5.15902695       1.46824322       8.93569635      -0.00002526       0.00003623      -0.00004475
