9
Lattice="5.708698446767906 7.262810376047641e-08 3.2959185633168073 1.902899538940544 5.382212385302111 3.295918583737436 -2.1847676846465605e-08 9.561433360134955e-09 6.591837164474944" Properties=species:S:1:pos:R:3:forces:R:3 energy=-42.07143020629883 free_energy=-42.07143020629883 stress="0.00031175281037576497 -1.5406921960448017e-08 -2.252777342448553e-08 -1.5406921960448017e-08 0.00031174597097560763 4.2014572376736226e-10 -2.252777342448553e-08 4.2014572376736226e-10 0.0003117049054708332" pbc="T T T"
Cr       1.90289943       1.34555312       3.29591874       0.00000075       0.00000022      -0.00000060
Cr       5.70869933       4.03665933       9.88775463       0.00000226      -0.00000015      -0.00000573
Mn       0.00000025      -0.00000014      -0.00000012      -0.00000794       0.00000578       0.00000904
Cl       1.86310117       1.31741193       6.59183684      -0.00271209      -0.00191579       0.00000288
Cl       5.74849662       4.06480052       6.59183749       0.00271253       0.00191731       0.00000257
Cl       4.77714741       1.31741178       4.90941229       0.00135916      -0.00192500      -0.00235258
Cl       2.83445044       4.06480129       8.27426319      -0.00135418       0.00191292       0.00234141
Cl       2.83444988       4.06480068       4.90941125      -0.00135569       0.00191929      -0.00234368
Cl       4.77714735       1.31741142       8.27426293       0.00135531      -0.00191454       0.00234685
