9
Lattice="4.06713032610501 5.92823148503514e-08 2.3481586055607577 1.355710077922151 3.8345279023887566 2.3481587556800303 -1.3721250466122034e-07 8.683395622472956e-08 4.696317448780539" Properties=species:S:1:pos:R:3:forces:R:3 energy=-42.2526741027832 free_energy=-42.2526741027832 stress="6.088277223170735e-05 9.470391404420297e-08 4.2244581166528405e-09 9.470391404420297e-08 6.109043169999495e-05 -3.162873696282986e-08 4.2244581166528405e-09 -3.162873696282986e-08 6.156932067824528e-05" pbc="T T T"
Cr       1.35571127       0.95863169       2.34815858      -0.00000310      -0.00000018      -0.00000047
Cr       4.06712865       2.87589532       7.04447606       0.00000237      -0.00000057      -0.00000056
N        0.00000022       0.00000030       0.00000007      -0.00000017      -0.00000424      -0.00001245
F        1.21945532       0.86228553       4.69631751       0.00048852       0.00034213       0.00000501
F        4.20338496       2.97224270       4.69631756      -0.00048560      -0.00033981      -0.00000166
F        3.45740250       0.86228528       3.40423810      -0.00024134       0.00034380       0.00041562
F        1.96543773       2.97224302       5.98839666       0.00023764      -0.00033826      -0.00040805
F        1.96543800       2.97224285       3.40423815       0.00024515      -0.00034046       0.00041300
F        3.45740260       0.86228557       5.98839675      -0.00024357       0.00033897      -0.00041133
