9
Lattice="5.9719986773101255 -1.2162756210909787e-08 3.447935166450469 1.9906662305898872 5.630454433216969 3.4479351382405787 -6.07613399762759e-10 -3.4979575765541e-08 6.895870333953339" Properties=species:S:1:pos:R:3:forces:R:3 energy=-34.53694152832031 free_energy=-34.53694152832031 stress="0.0001790121605154127 1.8029657766760465e-09 -1.8014694180834567e-09 1.8029657766760465e-09 0.00017899049271363765 -4.433459377395366e-09 -1.8014694180834567e-09 -4.433459377395366e-09 0.0001789924135664478" pbc="T T T"
Cr       1.99066632       1.40761322       3.44793463       0.00000100      -0.00000021      -0.00000162
Cr       5.97199867       4.22284107      10.34380617      -0.00000079       0.00000086       0.00000258
Ni       0.00000004      -0.00000020      -0.00000017      -0.00000060       0.00000115       0.00000262
Br       1.95785324       1.38441121       6.89587033       0.00096968       0.00068560       0.00000070
Br       6.00481182       4.24604326       6.89587002      -0.00097057      -0.00068653      -0.00000020
Br       4.99307196       1.38441145       5.14348568      -0.00048332       0.00068527       0.00084060
Br       2.96959255       4.24604327       8.64825518       0.00048622      -0.00068808      -0.00084333
Br       2.96959301       4.24604315       5.14348572       0.00048497      -0.00068486       0.00084108
Br       4.99307196       1.38441106       8.64825499      -0.00048643       0.00068675      -0.00084242
