9
Lattice="5.615938124626766 9.583031516069864e-10 3.242363375117104 1.871979362851638 5.294757453630066 3.242363397508151 -4.1391589720381486e-08 -1.8449749349181683e-09 6.484726821926523" Properties=species:S:1:pos:R:3:forces:R:3 energy=-36.93449401855469 free_energy=-36.93449401855469 stress="8.166040788637474e-05 6.7928782598869475e-09 1.242553437919014e-08 6.7928782598869475e-09 8.159189019352198e-05 4.983238266476064e-09 1.242553437919014e-08 4.983238266476064e-09 8.160132711054757e-05" pbc="T T T"
Cr       1.87197946       1.32368924       3.24236357      -0.00000042      -0.00000099      -0.00000045
Cr       5.61593746       3.97106800       9.72709126      -0.00000394      -0.00000153       0.00000402
Ni      -0.00000007       0.00000021      -0.00000030       0.00000135      -0.00000170      -0.00000162
Cl       1.84263424       1.30293927       6.48472668       0.00115994       0.00082070       0.00000094
Cl       5.64528323       3.99181790       6.48472636      -0.00115755      -0.00082006      -0.00000305
Cl       4.69462107       1.30293950       4.83813126      -0.00058143       0.00082111       0.00100319
Cl       2.79329669       3.99181829       8.13132196       0.00058028      -0.00081821      -0.00100230
Cl       2.79329682       3.99181812       4.83813138       0.00058103      -0.00081906       0.00100257
Cl       4.69462091       1.30293924       8.13132221      -0.00057931       0.00081994      -0.00100312
