9
Lattice="6.450823184782051 -2.7902708937502195e-08 3.72438450379012 2.1502743702914273 6.081894473182552 3.7243845008958 8.98684638782238e-09 2.809891198765551e-09 7.448768992014474" Properties=species:S:1:pos:R:3:forces:R:3 energy=-31.08905029296875 free_energy=-31.08905029296875 stress="0.00011397842899896204 2.0906720799018785e-09 5.752812004544694e-09 2.0906720799018785e-09 0.00011397971684345976 -2.144057376085584e-09 5.752812004544694e-09 -2.144057376085584e-09 0.00011398632341297343" pbc="T T T"
Cr       2.15027422       1.52047369       3.72438465       0.00000023       0.00000053       0.00000013
Cr       6.45082302       4.56142047      11.17315323      -0.00000067      -0.00000155      -0.00000122
Ni       0.00000007       0.00000011       0.00000001      -0.00000001      -0.00000023      -0.00000083
I        2.15688097       1.52514526       7.44876903      -0.00082837      -0.00058540      -0.00000027
I        6.44421665       4.55674923       7.44876902       0.00082856       0.00058576       0.00000097
I        5.37238274       1.52514545       5.59229826       0.00041363      -0.00058577      -0.00071770
I        3.22871491       4.55674914       9.30523974      -0.00041353       0.00058594       0.00071840
I        3.22871501       4.55674912       5.59229835      -0.00041430       0.00058610      -0.00071755
I        5.37238266       1.52514533       9.30523971       0.00041440      -0.00058530       0.00071806
