9
Lattice="6.880816044321275 3.89731598192128e-08 3.972640971989179 2.293605342048936 6.48729589414506 3.972641046125089 -5.345473585755931e-08 5.299938533977e-08 7.945282036564675" Properties=species:S:1:pos:R:3:forces:R:3 energy=-36.50165557861328 free_energy=-36.50165557861328 stress="5.1686423830688e-05 -6.76039557667707e-10 -3.339869936169748e-09 -6.76039557667707e-10 5.1691156841116026e-05 2.5282360649470093e-09 -3.339869936169748e-09 2.5282360649470093e-09 5.1684790378203616e-05" pbc="T T T"
Cr       2.29360549       1.62182392       3.97264087       0.00000015      -0.00000044      -0.00000025
Cr       6.88081604       4.86547179      11.91792323      -0.00000020       0.00000024      -0.00000019
Nb      -0.00000010       0.00000009      -0.00000035      -0.00000159       0.00000084       0.00000263
I        2.27125922       1.60602293       7.94528210      -0.00353303      -0.00249787       0.00000033
I        6.90316186       4.88127297       7.94528200       0.00353362       0.00249968       0.00000009
I        5.74518634       1.60602311       5.93960935       0.00176740      -0.00249980      -0.00306200
I        3.42923499       4.88127319       9.95095499      -0.00176583       0.00249723       0.00305840
I        3.42923496       4.88127304       5.93960919      -0.00176685       0.00249878      -0.00305930
I        5.74518650       1.60602289       9.95095485       0.00176634      -0.00249869       0.00306028
