9
Lattice="4.761610689758217 1.9635818454062515e-07 2.749117310148977 1.5872036546806063 4.48929008420759 2.7491174724428165 -3.775903827493363e-08 1.720688646437806e-07 5.498234685698507" Properties=species:S:1:pos:R:3:forces:R:3 energy=-54.860816955566406 free_energy=-54.860816955566406 stress="-8.643534238217399e-05 1.6965111981903647e-08 1.2208655419954084e-08 1.6965111981903647e-08 -8.649627125123516e-05 -2.2280159939214172e-08 1.2208655419954084e-08 -2.2280159939214172e-08 -8.649032679386437e-05" pbc="T T T"
Cr       1.58720338       1.12232267       2.74911706      -0.00000031       0.00000002      -0.00000073
Cr       4.76161093       3.36696748       8.24735203       0.00000099      -0.00000134      -0.00000004
Nb      -0.00000007       0.00000006      -0.00000001       0.00000330      -0.00000253      -0.00000378
F        1.62377403       1.14818213       5.49823489       0.00165993       0.00117397      -0.00000009
F        4.72504008       3.34110834       5.49823495      -0.00166053      -0.00117508       0.00000102
F        3.94972389       1.14818223       4.15534701      -0.00083035       0.00117579       0.00144038
F        2.39909037       3.34110850       6.84112230       0.00082812      -0.00117245      -0.00143573
F        2.39909083       3.34110857       4.15534736       0.00082818      -0.00117213       0.00143573
F        3.94972358       1.14818208       6.84112264      -0.00082943       0.00117347      -0.00143707
