9
Lattice="4.067110387384786 7.029850158975782e-08 2.3481470571312566 1.3557034419662854 3.8345086405965683 2.3481472074271705 -1.2872605034713235e-07 9.305106723309551e-08 4.696294337222572" Properties=species:S:1:pos:R:3:forces:R:3 energy=-42.2526741027832 free_energy=-42.2526741027832 stress="-0.0002838179061654955 -6.212098213609352e-08 1.3548698518661695e-07 -6.212098213609352e-08 -0.00028372881934046745 -3.84659557539635e-08 1.3548698518661695e-07 -3.84659557539635e-08 -0.0002841375535354018" pbc="T T T"
Cr       1.35570336       0.95862679       2.34814799       0.00000014      -0.00000241       0.00000213
Cr       4.06711021       2.87588198       7.04444074      -0.00000207       0.00000375      -0.00000153
N       -0.00000000      -0.00000001       0.00000010      -0.00000545      -0.00000183       0.00000400
F        1.21945382       0.86228398       4.69629428      -0.00623184      -0.00440437       0.00000138
F        4.20336018       2.97222451       4.69629412       0.00623608       0.00440663      -0.00000243
F        3.45738348       0.86228418       3.40422492       0.00311759      -0.00440502      -0.00539345
F        1.96543023       2.97222469       5.98836358      -0.00311419       0.00440145       0.00538796
F        1.96543026       2.97222454       3.40422518      -0.00311759       0.00440872      -0.00539362
F        3.45738336       0.86228425       5.98836350       0.00311744      -0.00440800       0.00539553
