9
Lattice="6.0214135260686925 -1.302793547466639e-07 3.4764647056183797 2.0071377584622296 5.677042845975103 3.476464637604449 -3.653378068505826e-08 -1.0913304759538647e-07 6.952929474515102" Properties=species:S:1:pos:R:3:forces:R:3 energy=-43.76419448852539 free_energy=-43.76419448852539 stress="-0.00011173585517099127 1.713502228994912e-08 2.7353097564741802e-08 1.713502228994912e-08 -0.00011175691906828433 1.8726309392036455e-08 2.7353097564741802e-08 1.8726309392036455e-08 -0.00011179094872204587" pbc="T T T"
Cr       2.00713775       1.41926111       3.47646374       0.00000011       0.00000169      -0.00000353
Cr       6.02141304       4.25778224      10.42939589      -0.00000207       0.00000128       0.00000542
Nb       0.00000018      -0.00000012       0.00000005      -0.00000090      -0.00000150       0.00000010
Cl       1.96414342       1.38885844       6.95292951       0.00222582       0.00157180      -0.00000003
Cl       6.06440803       4.28818415       6.95292878      -0.00222352      -0.00157207      -0.00000131
Cl       5.03934225       1.38885867       5.17746269      -0.00111236       0.00157449       0.00192806
Cl       2.98920910       4.28818346       8.72839633       0.00111242      -0.00157520      -0.00192785
Cl       2.98920946       4.28818388       5.17746216       0.00111388      -0.00157478       0.00192755
Cl       5.03934175       1.38885853       8.72839613      -0.00111333       0.00157425      -0.00192848
