9
Lattice="5.579069979474707 -4.723658879890088e-08 3.221077497909783 1.8596899491270622 5.2599974577088675 3.221077497037013 -2.4228301428141618e-08 -1.8200946191209172e-08 6.4421550377842305" Properties=species:S:1:pos:R:3:forces:R:3 energy=-33.22797393798828 free_energy=-33.22797393798828 stress="0.00043675879715010524 -2.067260673754845e-08 -1.950226291569379e-08 -2.067260673754845e-08 0.0004367977671790868 1.2324223419568625e-08 -1.950226291569379e-08 1.2324223419568625e-08 0.00043675591587089" pbc="T T T"
Cr       1.85969057       1.31499935       3.22107724       0.00000493       0.00000110      -0.00000324
Cr       5.57907032       3.94499735       9.66323110       0.00000101      -0.00000464      -0.00001057
N        0.00000006      -0.00000021      -0.00000084      -0.00000067      -0.00000112      -0.00000241
Cl       1.81329839       1.28219570       6.44215513      -0.00536780      -0.00379428       0.00000175
Cl       5.62546141       3.97780208       6.44215560       0.00536577       0.00379619       0.00000435
Cl       4.67242045       1.28219587       4.79144036       0.00268384      -0.00379638      -0.00464845
Cl       2.76633897       3.97780173       8.09287053      -0.00268501       0.00379664       0.00465252
Cl       2.76633892       3.97780164       4.79144045      -0.00268570       0.00379767      -0.00464737
Cl       4.67242063       1.28219605       8.09287057       0.00268371      -0.00379504       0.00465336
