9
Lattice="5.579092075667813 4.35273451527988e-08 3.221090295616168 1.8596973839042226 5.260018565378291 3.2210903227914964 6.93144782671414e-09 3.8184095495256273e-08 6.442180579226721" Properties=species:S:1:pos:R:3:forces:R:3 energy=-33.22797775268555 free_energy=-33.22797775268555 stress="0.0004543535760603845 1.2831419482495221e-08 2.2201345206696033e-09 1.2831419482495221e-08 0.0004542582028079778 -5.19804421728054e-09 2.2201345206696033e-09 -5.19804421728054e-09 0.0004543040704447776" pbc="T T T"
Cr       1.85969692       1.31500366       3.22109055      -0.00000309      -0.00000642       0.00000129
Cr       5.57909172       3.94501436       9.66327185      -0.00000230       0.00000197       0.00000583
N       -0.00000030      -0.00000091       0.00000018      -0.00000268      -0.00000517       0.00000237
Cl       1.81334232       1.28222686       6.44218047      -0.00598975      -0.00423482      -0.00000165
Cl       5.62544765       3.97779270       6.44218025       0.00599299       0.00423908      -0.00000214
Cl       4.67242135       1.28222650       4.79149045       0.00299545      -0.00423422      -0.00518970
Cl       2.76636854       3.97779256       8.09287083      -0.00299373       0.00423810       0.00518683
Cl       2.76636848       3.97779258       4.79149004      -0.00299332       0.00423753      -0.00518854
Cl       4.67242120       1.28222633       8.09287012       0.00299649      -0.00423595       0.00518590
