9
Lattice="4.63707514884339 3.716418043345011e-08 2.6772165644891697 1.5456917887650405 4.371876220830855 2.6772164996321974 1.0379198834554569e-07 -6.041242019992765e-09 5.354432949205326" Properties=species:S:1:pos:R:3:forces:R:3 energy=-45.73973846435547 free_energy=-45.73973846435547 stress="0.00043539574835449457 1.9203044487881016e-08 2.3384135516835158e-08 1.9203044487881016e-08 0.00043538404861465096 -1.973082852657626e-08 2.3384135516835158e-08 -1.973082852657626e-08 0.00043542400817386806" pbc="T T T"
Cr       1.54569314       1.09296999       2.67721507       0.00000881       0.00000464      -0.00000845
Cr       4.63707378       3.27890618       8.03164849      -0.00000806      -0.00000497      -0.00000705
Ni       0.00000007      -0.00000004       0.00000004      -0.00000020       0.00000146       0.00000225
F        1.53815992       1.08764271       5.35443327       0.00042742       0.00030351       0.00000144
F        4.64460751       3.28423300       5.35443395      -0.00042860      -0.00030239       0.00000506
F        3.86799536       1.08764351       4.00930169      -0.00021194       0.00030332       0.00036808
F        2.31477163       3.28423280       6.69956480       0.00021482      -0.00030812      -0.00036784
F        2.31477212       3.28423318       4.00930163       0.00021552      -0.00030157       0.00036921
F        3.86799462       1.08764347       6.69956515      -0.00021784       0.00030389      -0.00036269
