9
Lattice="5.877768893346332 4.937160370389928e-08 3.3935314638959797 1.959256339541112 5.5416136858724 3.3935314721906646 -3.2550464863467894e-08 -1.2857746221949618e-08 6.787062984170977" Properties=species:S:1:pos:R:3:forces:R:3 energy=-40.96153259277344 free_energy=-40.96153259277344 stress="0.0002336624456802383 -5.914101208759348e-09 -7.292048298523923e-09 -5.914101208759348e-09 0.00023366515233647078 1.581585529208951e-08 -7.292048298523923e-09 1.581585529208951e-08 0.00023370070266537368" pbc="T T T"
Cr       1.95925612       1.38540386       3.39353145      -0.00000083      -0.00000070       0.00000022
Cr       5.87776911       4.15621040      10.18059468       0.00000093       0.00000126       0.00000040
Os       0.00000000      -0.00000018       0.00000008       0.00000030      -0.00000003      -0.00000304
Cl       1.91260503       1.35241631       6.78706266       0.00022733       0.00016208      -0.00000142
Cl       5.92442002       4.18919754       6.78706278      -0.00022644      -0.00016297       0.00000060
Cl       4.92146632       1.35241585       5.04989664      -0.00011325       0.00015889       0.00019737
Cl       2.91555883       4.18919741       8.52422928       0.00011139      -0.00015841      -0.00019498
Cl       2.91555933       4.18919778       5.04989628       0.00011557      -0.00016198       0.00019734
Cl       4.92146609       1.35241594       8.52422981      -0.00011493       0.00016195      -0.00019658
