9
Lattice="6.185659724190558 -3.611424810810586e-08 3.571292346469785 2.061886598068107 5.831895828016734 3.5712922470730093 1.0475214165327696e-07 -4.766472215795934e-08 7.142584511503543" Properties=species:S:1:pos:R:3:forces:R:3 energy=-38.46183395385742 free_energy=-38.46183395385742 stress="0.00016460326150991023 -1.3349810146223717e-08 1.0867446498252775e-08 -1.3349810146223717e-08 0.0001646059099584818 -2.8697588749793113e-09 1.0867446498252775e-08 -2.8697588749793113e-09 0.00016461698396597058" pbc="T T T"
Cr       2.06188679       1.45797412       3.57129199       0.00000021      -0.00000009      -0.00000178
Cr       6.18565960       4.37392132      10.71387728      -0.00000112      -0.00000101       0.00000204
Os      -0.00000007      -0.00000010       0.00000001      -0.00000002       0.00000160      -0.00000315
Br       2.02121128       1.42921229       7.14258463       0.00109725       0.00077620      -0.00000073
Br       6.22633519       4.40268348       7.14258479      -0.00109725      -0.00077555      -0.00000052
Br       5.17505436       1.42921228       5.32171259      -0.00054910       0.00077695       0.00095017
Br       3.07249242       4.40268340       8.96345634       0.00054760      -0.00077485      -0.00094884
Br       3.07249228       4.40268391       5.32171243       0.00055033      -0.00077654       0.00095072
Br       5.17505383       1.42921223       8.96345637      -0.00054796       0.00077330      -0.00094791
