9
Lattice="4.854493136685119 7.026773608161921e-08 2.802742990242844 1.6181644153813992 4.576860409413637 2.802743041793356 -7.146983234580692e-08 1.2599434979574494e-08 5.605486104275076" Properties=species:S:1:pos:R:3:forces:R:3 energy=-50.201698303222656 free_energy=-50.201698303222656 stress="-7.122380338842049e-05 4.696489597222353e-08 -2.1102701808217716e-08 4.696489597222353e-08 -7.129881851142272e-05 -7.522286793459898e-09 -2.1102701808217716e-08 -7.522286793459898e-09 -7.126264972612262e-05" pbc="T T T"
Cr       1.61816424       1.14421549       2.80274297      -0.00000060       0.00000099      -0.00000007
Cr       4.85449314       3.43264484       8.40822943       0.00000000      -0.00000088       0.00000056
Os       0.00000001      -0.00000002      -0.00000024      -0.00000005       0.00000047       0.00000443
F        1.62050315       1.14586941       5.60548621       0.00259346       0.00183403       0.00000054
F        4.85215431       3.43099114       5.60548580      -0.00259335      -0.00183493      -0.00000128
F        4.04424141       1.14586919       4.20613997      -0.00129785       0.00183690       0.00224823
F        2.42841569       3.43099116       7.00483204       0.00129871      -0.00183763      -0.00225036
F        2.42841613       3.43099143       4.20614007       0.00129887      -0.00183693       0.00224882
F        4.04424175       1.14586912       7.00483215      -0.00129905       0.00183804      -0.00225104
