9
Lattice="6.603213930608713 3.105760671366281e-08 3.81236726210413 2.201071324126519 6.225569842633045 3.8123672887046047 -5.228719659961669e-08 -4.393841552617637e-09 7.624734614772363" Properties=species:S:1:pos:R:3:forces:R:3 energy=-35.15410232543945 free_energy=-35.15410232543945 stress="4.778319635079242e-05 -3.033768125604297e-09 -2.881648919483837e-09 -3.033768125604297e-09 4.777351568918675e-05 4.5357012590230283e-10 -2.881648919483837e-09 4.5357012590230283e-10 4.7776902647456154e-05" pbc="T T T"
Cr       2.20107154       1.55639246       3.81236726       0.00000082      -0.00000010       0.00000007
Cr       6.60321395       4.66917758      11.43710198      -0.00000032       0.00000039       0.00000108
Os      -0.00000002       0.00000012      -0.00000015       0.00000016      -0.00000033       0.00000041
I        2.18826767       1.54733877       7.62473461       0.00091463       0.00064674       0.00000014
I        6.61601738       4.67823101       7.62473455      -0.00091476      -0.00064687      -0.00000068
I        5.50908008       1.54733891       5.70746248      -0.00045674       0.00064702       0.00079226
I        3.29520502       4.67823091       9.54200676       0.00045632      -0.00064660      -0.00079238
I        3.29520507       4.67823093       5.70746248       0.00045716      -0.00064657       0.00079215
I        5.50908009       1.54733881       9.54200669      -0.00045725       0.00064638      -0.00079297
