9
Lattice="6.32827476376593 5.842051356094142e-08 3.6536311048535057 2.1094248886869713 5.966354897605598 3.6536312566637457 -1.0647180662113144e-07 1.1064192525051682e-07 7.307262394121568" Properties=species:S:1:pos:R:3:forces:R:3 energy=-32.11517333984375 free_energy=-32.11517333984375 stress="0.00030136527493596077 -1.9354722269326885e-09 3.3176845715132686e-09 -1.9354722269326885e-09 0.0003013696987181902 -4.295197975068277e-09 3.3176845715132686e-09 -4.295197975068277e-09 0.0003013766836374998" pbc="T T T"
Cr       2.10942450       1.49158838       3.65363135      -0.00000004      -0.00000156       0.00000049
Cr       6.32827386       4.47476627      10.96089343      -0.00000294      -0.00000000       0.00000026
Pb       0.00000005       0.00000002       0.00000018       0.00000219       0.00000007       0.00000117
Br       2.23662143       1.58152997       7.30726221       0.00603104       0.00426307      -0.00000018
Br       6.20107817       4.38482518       7.30726250      -0.00603111      -0.00426425       0.00000071
Br       5.20996426       1.58153052       5.59060193      -0.00301484       0.00426418       0.00522297
Br       3.22773586       4.38482489       9.02392266       0.00301578      -0.00426417      -0.00522165
Br       3.22773565       4.38482484       5.59060221       0.00301501      -0.00426252       0.00522059
Br       5.20996445       1.58153023       9.02392251      -0.00301511       0.00426517      -0.00522429
