9
Lattice="5.1087031902189315 -2.445388444088181e-08 2.9495107868380317 1.7029009615021735 4.816532105017267 2.9495109234080483 -1.2402774093418609e-07 7.956263005506386e-08 5.899021788498433" Properties=species:S:1:pos:R:3:forces:R:3 energy=-45.72269821166992 free_energy=-45.72269821166992 stress="0.0002443433040753007 -2.6341124836903873e-08 -2.8406196506125525e-08 -2.6341124836903873e-08 0.0002443920529913157 2.0059490069002095e-08 -2.8406196506125525e-08 2.0059490069002095e-08 0.0002443780249450356" pbc="T T T"
Cr       1.70290171       1.20413313       2.94951047      -0.00000078      -0.00000038      -0.00000227
Cr       5.10870241       3.61239920       8.84853278      -0.00000246      -0.00000134      -0.00000021
Pb      -0.00000048      -0.00000030      -0.00000030      -0.00000103       0.00000021       0.00000712
F        1.73901175       1.22966795       5.89902234       0.00064281       0.00045615      -0.00000003
F        5.07259143       3.58686327       5.89902158      -0.00063758      -0.00045187      -0.00000031
F        4.23919684       1.22966780       4.45554042      -0.00031906       0.00044609       0.00054885
F        2.57240846       3.58686440       7.34250317       0.00031978      -0.00044941      -0.00055184
F        2.57240840       3.58686452       4.45553991       0.00031994      -0.00045080       0.00055041
F        4.23919577       1.22966828       7.34250371      -0.00032168       0.00045126      -0.00055167
