9
Lattice="6.135740579632515 5.350410709546499e-08 3.542471412250884 2.0452468945546087 5.784831913502963 3.5424714395602397 -2.085071302568185e-08 1.870331686393418e-08 7.0849428606162785" Properties=species:S:1:pos:R:3:forces:R:3 energy=-32.89511489868164 free_energy=-32.89511489868164 stress="-6.137238960945979e-05 -9.15167408521711e-09 1.392493009788609e-09 -9.15167408521711e-09 -6.136009324109182e-05 -2.2546635669584703e-09 1.392493009788609e-09 -2.2546635669584703e-09 -6.135489093139768e-05" pbc="T T T"
Cr       2.04524745       1.44620854       3.54247153       0.00000178       0.00000155       0.00000066
Cr       6.13574040       4.33862444      10.62741472      -0.00000085       0.00000178       0.00000156
P       -0.00000017       0.00000012      -0.00000022      -0.00000033      -0.00000150      -0.00000185
Br       2.07892355       1.47002053       7.08494267      -0.00077224      -0.00054658       0.00000013
Br       6.10206419       4.31481060       7.08494260       0.00077296       0.00054719       0.00000035
Br       5.09627884       1.47002098       5.34287224       0.00038639      -0.00054788      -0.00067040
Br       3.08470804       4.31481124       8.82701375      -0.00038622       0.00054612       0.00066934
Br       3.08470864       4.31481059       5.34287177      -0.00038679       0.00054640      -0.00067052
Br       5.09627884       1.47002092       8.82701378       0.00038542      -0.00054715       0.00067066
