9
Lattice="6.581290714419797 3.874420825488783e-08 3.7997099432046473 2.19376360509774 6.204900340184288 3.799709948234368 7.967580253234976e-09 1.1794046650145614e-08 7.599419872609045" Properties=species:S:1:pos:R:3:forces:R:3 energy=-31.6107120513916 free_energy=-31.6107120513916 stress="6.201902579050511e-05 2.1625883306342075e-09 2.1146000228622341e-10 2.1625883306342075e-09 6.201006908668205e-05 2.2591106763059088e-09 2.1146000228622341e-10 2.2591106763059088e-09 6.201583164511248e-05" pbc="T T T"
Cr       2.19376357       1.55122535       3.79970991       0.00000012       0.00000010      -0.00000052
Cr       6.58129075       4.65367528      11.39912953      -0.00000025      -0.00000013      -0.00000062
Pt      -0.00000009      -0.00000014      -0.00000038       0.00000098       0.00000115       0.00000241
I        2.20168812       1.55682850       7.59941991       0.00050958       0.00035968       0.00000019
I        6.57336640       4.64807196       7.59941997      -0.00051033      -0.00036041       0.00000026
I        5.48044666       1.55682852       5.70642771      -0.00025436       0.00035952       0.00044097
I        3.29460761       4.64807191       9.49241235       0.00025535      -0.00036089      -0.00044183
I        3.29460748       4.64807174       5.70642767       0.00025430      -0.00035992       0.00044122
I        5.48044684       1.55682845       9.49241239      -0.00025532       0.00036097      -0.00044218
