9
Lattice="5.8339103546239555 1.4080519990929075e-07 3.368209683257341 1.9446368940215057 5.500263335468776 3.3682097241434152 3.395349867871635e-08 7.408376067411778e-08 6.736419307705449" Properties=species:S:1:pos:R:3:forces:R:3 energy=-36.952537536621094 free_energy=-36.952537536621094 stress="0.00013288420450408012 -1.4455940444690896e-08 -7.863429019039359e-09 -1.4455940444690896e-08 0.0001328784564975649 1.862047183109894e-09 -7.863429019039359e-09 1.862047183109894e-09 0.0001329233346041292" pbc="T T T"
Cr       1.94463652       1.37506668       3.36820937      -0.00000250       0.00000353      -0.00000163
Cr       5.83391036       4.12519746      10.10462949      -0.00000037      -0.00000090       0.00000247
Pt       0.00000011      -0.00000024       0.00000020       0.00000019       0.00000785      -0.00000177
Cl       1.91100030       1.35128154       6.73641933       0.00256297       0.00181454       0.00000002
Cl       5.86754717       4.14898192       6.73641908      -0.00256513      -0.00181792      -0.00000037
Cl       4.87841038       1.35128129       5.02318442      -0.00128075       0.00181352       0.00221975
Cl       2.90013708       4.14898204       8.44965443       0.00128346      -0.00181631      -0.00222060
Cl       2.90013712       4.14898238       5.02318458       0.00128337      -0.00181610       0.00222198
Cl       4.87841011       1.35128116       8.44965399      -0.00128116       0.00181186      -0.00221989
