9
Lattice="6.102447752663658 -3.0242384151537626e-08 3.523249910964243 2.0341491927326465 5.753442948598456 3.5232499623064175 -3.214942341421772e-08 4.014797811160997e-08 7.046499877612922" Properties=species:S:1:pos:R:3:forces:R:3 energy=-33.887264251708984 free_energy=-33.887264251708984 stress="0.00016771508671808988 -2.5432495220911733e-08 2.795180531478536e-09 -2.5432495220911733e-08 0.0001677131949691102 2.0796593336314118e-09 2.795180531478536e-09 2.0796593336314118e-09 0.00016774045070633292" pbc="T T T"
Cr       2.03414936       1.43836064       3.52324993       0.00000187      -0.00000100      -0.00000054
Cr       6.10244732       4.31508237      10.56974955      -0.00000145       0.00000150      -0.00000060
Pd       0.00000017      -0.00000005       0.00000020      -0.00000235       0.00000376       0.00000064
Br       2.03117637       1.43625871       7.04649989       0.00096658       0.00068266       0.00000030
Br       6.10542059       4.31718430       7.04649999      -0.00096694      -0.00068395      -0.00000018
Br       5.08685934       1.43625861       5.28230039      -0.00048170       0.00068172       0.00083495
Br       3.04973759       4.31718440       8.81069932       0.00048298      -0.00068307      -0.00083603
Br       3.04973751       4.31718422       5.28230038       0.00048407      -0.00068237       0.00083629
Br       5.08685940       1.43625866       8.81069933      -0.00048302       0.00068076      -0.00083478
