9
Lattice="6.641651272412012 1.0049649861307801e-08 3.8345591418554092 2.2138837413827965 6.26180887872277 3.834559186131422 -4.550235077832778e-09 5.1009353306275606e-08 7.6691182915920155" Properties=species:S:1:pos:R:3:forces:R:3 energy=-29.903955459594727 free_energy=-29.903955459594727 stress="2.968824810523074e-05 -4.527694663636339e-09 -7.16905923514588e-10 -4.527694663636339e-09 2.969473644043319e-05 9.440376480540635e-09 -7.16905923514588e-10 9.440376480540635e-09 2.969265369756613e-05" pbc="T T T"
Cr       2.21388405       1.56545212       3.83455878       0.00000042      -0.00000061      -0.00000135
Cr       6.64165130       4.69635665      11.50367784       0.00000074       0.00000077       0.00000080
P       -0.00000010       0.00000007       0.00000016       0.00000036       0.00000009      -0.00000027
I        2.26743132       1.60331625       7.66911830       0.00164639       0.00116424       0.00000000
I        6.58810363       4.65849283       7.66911816      -0.00164702      -0.00116424       0.00000038
I        5.50793545       1.60331620       5.79821246      -0.00082349       0.00116381       0.00142550
I        3.34759937       4.65849273       9.54002423       0.00082350      -0.00116454      -0.00142535
I        3.34759955       4.65849289       5.79821240       0.00082302      -0.00116410       0.00142614
I        5.50793549       1.60331599       9.54002413      -0.00082393       0.00116455      -0.00142584
