9
Lattice="6.9538134462098355 -2.266666205063136e-08 4.014785994713038 2.317937801335472 6.556118112684267 4.014785982064666 -5.7588467737727246e-09 -1.9563137098485955e-08 8.02957199940068" Properties=species:S:1:pos:R:3:forces:R:3 energy=-28.882848739624023 free_energy=-28.882848739624023 stress="0.00011820201325463131 1.4148202609476357e-08 -4.195487512959062e-09 1.4148202609476357e-08 0.0001181967745651491 4.394771657700858e-09 -4.195487512959062e-09 4.394771657700858e-09 0.00011818003258667886" pbc="T T T"
Cr       2.31793776       1.63902954       4.01478581       0.00000007       0.00000039      -0.00000157
Cr       6.95381352       4.91708854      12.04435813      -0.00000024      -0.00000025       0.00000134
Pb       0.00000012      -0.00000020       0.00000022      -0.00000169       0.00000028       0.00000142
I        2.50978329       1.77468452       8.02957211       0.00144026       0.00101812       0.00000088
I        6.76196784       4.78143333       8.02957197      -0.00143929      -0.00101736      -0.00000090
I        5.69892177       1.77468494       6.18832210      -0.00071974       0.00101788       0.00124614
I        3.57282947       4.78143329       9.87082180       0.00072061      -0.00101884      -0.00124739
I        3.57282951       4.78143343       6.18832203       0.00071982      -0.00101901       0.00124730
I        5.69892174       1.77468485       9.87082164      -0.00071976       0.00101880      -0.00124730
