9
Lattice="6.1352670965079215 -6.375518681464592e-09 3.5421980063520353 2.045089038944734 5.784385364748777 3.542197984205433 -3.8181394641235906e-08 -5.41222317961561e-08 7.084396078836133" Properties=species:S:1:pos:R:3:forces:R:3 energy=-32.89510726928711 free_energy=-32.89510726928711 stress="-9.53794879023917e-05 -2.4471704662687443e-09 3.2162592589202177e-09 -2.4471704662687443e-09 -9.538168524159119e-05 -5.1596327210745585e-09 3.2162592589202177e-09 -5.1596327210745585e-09 -9.539211896480992e-05" pbc="T T T"
Cr       2.04508956       1.44609766       3.54219815       0.00000165       0.00000446      -0.00000009
Cr       6.13526726       4.33828866      10.62659397       0.00000029       0.00000021      -0.00000136
P        0.00000010      -0.00000026      -0.00000018      -0.00000075      -0.00000045       0.00000093
Br       2.07888768       1.46999565       7.08439629      -0.00125535      -0.00088745      -0.00000050
Br       6.10146844       4.31438930       7.08439628       0.00125582       0.00088628       0.00000057
Br       5.09582272       1.46999572       5.34256794       0.00062712      -0.00088852      -0.00108734
Br       3.08453279       4.31438900       8.82622395      -0.00062830       0.00088761       0.00108725
Br       3.08453296       4.31438945       5.34256751      -0.00062821       0.00088606      -0.00108741
Br       5.09582287       1.46999600       8.82622429       0.00062768      -0.00088819       0.00108789
