9
Lattice="4.741152678671881 2.4608784786039702e-08 2.737305921203777 1.5803842344541237 4.47000194071285 2.7373059471347525 -4.310319443594697e-08 1.2802655143451452e-09 5.474611917064513" Properties=species:S:1:pos:R:3:forces:R:3 energy=-48.68910598754883 free_energy=-48.68910598754883 stress="0.000725681777112186 2.264530607476445e-08 3.267648551741331e-08 2.264530607476445e-08 0.0007257363758981228 -1.3478511640130364e-08 3.267648551741331e-08 -1.3478511640130364e-08 0.0007256982498802245" pbc="T T T"
Cr       1.58038541       1.11750080       2.73730691      -0.00000022       0.00000013      -0.00000019
Cr       4.74115205       3.35250130       8.21191648       0.00000012      -0.00000073       0.00000024
P       -0.00000012      -0.00000007       0.00000003      -0.00000201      -0.00000547       0.00000478
F        1.38408333       0.97869483       5.47461182      -0.00352232      -0.00249355       0.00000019
F        4.93745283       3.49130704       5.47461198       0.00353029       0.00249729       0.00000047
F        4.04911078       0.97869512       3.93595719       0.00176150      -0.00249389      -0.00305232
F        2.27242615       3.49130709       7.01326643      -0.00176233       0.00249286       0.00305216
F        2.27242590       3.49130702       3.93595770      -0.00176565       0.00249587      -0.00305562
F        4.04911119       0.97869497       7.01326643       0.00176029      -0.00249246       0.00305037
