9
Lattice="6.64132572053469 4.6761143271559375e-09 3.83437111824907 2.2137752440243306 6.261501898748231 3.8343711192234475 -2.772930299323886e-08 -1.8414188445913413e-08 7.6687422845266395" Properties=species:S:1:pos:R:3:forces:R:3 energy=-29.90395736694336 free_energy=-29.90395736694336 stress="1.798776247596834e-05 4.463457603520737e-09 -2.3694615713942824e-10 4.463457603520737e-09 1.799324127205182e-05 -5.011231429818963e-09 -2.3694615713942824e-10 -5.011231429818963e-09 1.798959965526592e-05" pbc="T T T"
Cr       2.21377532       1.56537582       3.83437078       0.00000137       0.00000144      -0.00000027
Cr       6.64132541       4.69612629      11.50311275      -0.00000098       0.00000009      -0.00000169
P        0.00000012      -0.00000005      -0.00000011      -0.00000033      -0.00000022       0.00000091
I        2.26766420       1.60348067       7.66874240      -0.00023711      -0.00016820       0.00000002
I        6.58743672       4.65802103       7.66874260       0.00023731       0.00016775       0.00000072
I        5.50749357       1.60348073       5.79822597       0.00011821      -0.00016789      -0.00020481
I        3.34760736       4.65802120       9.53925889      -0.00011819       0.00016709       0.00020506
I        3.34760729       4.65802104       5.79822594      -0.00011848       0.00016762      -0.00020516
I        5.50749373       1.60348080       9.53925886       0.00011815      -0.00016765       0.00020519
