9
Lattice="4.930099918108949 1.127486902220931e-07 2.846394889015501 1.6433666494823271 4.648143794163417 2.8463950556176836 -2.009787008581506e-07 6.193176599485758e-08 5.692790126136308" Properties=species:S:1:pos:R:3:forces:R:3 energy=-45.475982666015625 free_energy=-45.475982666015625 stress="-6.358950940921204e-06 8.431796771901645e-08 2.8083983139026714e-08 8.431796771901645e-08 -6.464866601163521e-06 -1.1059592353035441e-08 2.8083983139026714e-08 -1.1059592353035441e-08 -6.567989203176694e-06" pbc="T T T"
Cr       1.64336655       1.16203669       2.84639485       0.00000045       0.00000034       0.00000016
Cr       4.93009983       3.48610852       8.53918587       0.00000006       0.00000021       0.00000000
Pt      -0.00000020      -0.00000023       0.00000012      -0.00000192       0.00000291       0.00000064
F        1.63485334       1.15601599       5.69279007      -0.00006658      -0.00004807       0.00000044
F        4.93861293       3.49212765       5.69278983       0.00006822       0.00004724      -0.00000047
F        4.11267342       1.15601617       4.26221918       0.00003068      -0.00004283      -0.00005269
F        2.46079310       3.49212740       7.12336034      -0.00003108       0.00004277       0.00005406
F        2.46079321       3.49212802       4.26221992      -0.00003034       0.00004306      -0.00005352
F        4.11267349       1.15601576       7.12336013       0.00003074      -0.00004512       0.00005201
