9
Lattice="6.000118228327482 -5.62767095511092e-08 3.4641699513687563 2.000039350756762 5.656965586123938 3.464169961115933 7.75823056323167e-08 6.679675599344443e-08 6.928339768361039" Properties=species:S:1:pos:R:3:forces:R:3 energy=-34.6950569152832 free_energy=-34.6950569152832 stress="0.0002664249041117728 1.0417211537827598e-09 -2.8999183498967795e-08 1.0417211537827598e-09 0.00026644140598364174 1.4485473265324345e-08 -2.8999183498967795e-08 1.4485473265324345e-08 0.0002664686180651188" pbc="T T T"
Cr       2.00003956       1.41424148       3.46416988       0.00000082      -0.00000010       0.00000046
Cr       6.00011846       4.24272426      10.39251115       0.00000118      -0.00000000       0.00000740
Pb       0.00000023      -0.00000003       0.00000009       0.00000085      -0.00000259      -0.00000147
Cl       2.10359803       1.48746807       6.92833977       0.00181966       0.00128470      -0.00000080
Cl       5.89655973       4.16949742       6.92833933      -0.00181965      -0.00128685      -0.00000329
Cl       4.94831926       1.48746835       5.28593897      -0.00090992       0.00128782       0.00157524
Cl       3.05183796       4.16949720       8.57074020       0.00090652      -0.00128345      -0.00157265
Cl       3.05183818       4.16949749       5.28593902       0.00091063      -0.00128620       0.00157358
Cl       4.94831921       1.48746801       8.57074032      -0.00091016       0.00128672      -0.00157851
