9
Lattice="5.7524093102156995 -5.757763260068e-08 3.3211549000724574 1.9174696901460897 5.423423308114077 3.3211549444841095 -3.603930064944287e-08 2.8909308337182075e-08 6.642309862566736" Properties=species:S:1:pos:R:3:forces:R:3 energy=-35.634620666503906 free_energy=-35.634620666503906 stress="-0.00027111920644529164 -3.153947858436368e-08 -2.8715829714087704e-08 -3.153947858436368e-08 -0.00027112849056720734 1.6893910270709966e-08 -2.8715829714087704e-08 1.6893910270709966e-08 -0.0002712103014346212" pbc="T T T"
Cr       1.91746957       1.35585431       3.32115528      -0.00000054      -0.00000731       0.00000184
Cr       5.75240905       4.06756660       9.96346494      -0.00000131      -0.00000415      -0.00000091
P        0.00000025       0.00000012       0.00000030      -0.00000330       0.00000461      -0.00000268
Cl       1.88924887       1.33590073       6.64231025      -0.00053533      -0.00037609      -0.00000219
Cl       5.78062989       4.08752331       6.64230991       0.00053370       0.00037806      -0.00000208
Cl       4.80778455       1.33590082       4.95729198       0.00026924      -0.00037861      -0.00046474
Cl       2.86209430       4.08752286       8.32732682      -0.00026635       0.00038316       0.00046510
Cl       2.86209411       4.08752328       4.95729229      -0.00026602       0.00037839      -0.00045987
Cl       4.80778524       1.33590114       8.32732705       0.00026996      -0.00037812       0.00046550
