9
Lattice="4.738140545337126 -4.08774602811925e-07 2.7355669862708822 1.5793799549323961 4.4671608910667135 2.735566711654703 -1.0332857250301917e-08 -3.436411636564206e-07 5.471133990438817" Properties=species:S:1:pos:R:3:forces:R:3 energy=-48.689170837402344 free_energy=-48.689170837402344 stress="6.50243737254641e-06 -1.5570926770180904e-09 -5.0380495331125985e-09 -1.5570926770180904e-09 6.541466973430943e-06 -2.88904704603965e-08 -5.0380495331125985e-09 -2.88904704603965e-08 6.621279226237675e-06" pbc="T T T"
Cr       1.57938064       1.11678865       2.73556745      -0.00000025      -0.00000064       0.00000034
Cr       4.73814028       3.35036969       8.20670063       0.00000043       0.00000011       0.00000023
P        0.00000007       0.00000029       0.00000004       0.00000058      -0.00000204       0.00000005
F        1.38406104       0.97867888       5.47113350      -0.00194934      -0.00137781       0.00000160
F        4.93345940       3.48848231       5.47113369       0.00194791       0.00137632       0.00000051
F        4.04610972       0.97867862       3.93419882       0.00097537      -0.00137600      -0.00168748
F        2.27141032       3.48848189       7.00806897      -0.00097260       0.00137572       0.00168715
F        2.27141056       3.48848220       3.93419882      -0.00097570       0.00138037      -0.00169019
F        4.04611008       0.97867806       7.00806916       0.00097373      -0.00137578       0.00168781
