9
Lattice="5.759475870226756 -1.6833716776563134e-08 3.325235032707809 1.9198252574895482 5.430085909125827 3.325235061659056 1.1523126390675943e-08 4.36060369970701e-08 6.650470045456911" Properties=species:S:1:pos:R:3:forces:R:3 energy=-36.03812789916992 free_energy=-36.03812789916992 stress="7.270005880855024e-05 6.136040009430133e-10 -1.1423175738656255e-09 6.136040009430133e-10 7.274103700183332e-05 5.515105261366671e-09 -1.1423175738656255e-09 5.515105261366671e-09 7.275439566001296e-05" pbc="T T T"
Cr       1.91982525       1.35752139       3.32523545      -0.00000288       0.00000058       0.00000238
Cr       5.75947547       4.07256460       9.97570686      -0.00000119       0.00000049       0.00001017
Pd       0.00000006       0.00000010       0.00000008      -0.00000014      -0.00000583      -0.00001131
Cl       1.91255526       1.35238079       6.65046988       0.00164405       0.00116117      -0.00000191
Cl       5.76674603       4.07770503       6.65046948      -0.00164127      -0.00115942      -0.00000317
Cl       4.80319818       1.35238106       4.98155632      -0.00082182       0.00116356       0.00142083
Cl       2.87610292       4.07770483       8.31938309       0.00081783      -0.00115637      -0.00141673
Cl       2.87610315       4.07770518       4.98155633       0.00082452      -0.00116212       0.00142002
Cl       4.80319824       1.35238074       8.31938311      -0.00081916       0.00115793      -0.00142035
