9
Lattice="6.1035025866972 2.4286216848354477e-08 3.5238588793782943 2.034500832540872 5.754437425298514 3.5238589704648215 -5.3402296304158334e-08 7.37966465198545e-08 7.047717851252048" Properties=species:S:1:pos:R:3:forces:R:3 energy=-34.737335205078125 free_energy=-34.737335205078125 stress="0.00019247144518885761 -2.0358259078534502e-08 -1.53720840501137e-08 -2.0358259078534502e-08 0.00019247418094892055 2.2260310927890714e-08 -1.53720840501137e-08 2.2260310927890714e-08 0.00019249085744377226" pbc="T T T"
Cr       2.03450086       1.43860939       3.52385921       0.00000039       0.00000001       0.00000110
Cr       6.10350227       4.31582803      10.57157681      -0.00000114      -0.00000041       0.00000073
Pt      -0.00000008      -0.00000002      -0.00000021       0.00000154       0.00000260      -0.00000223
Br       2.01793064       1.42689264       7.04771763       0.00106771       0.00075518      -0.00000050
Br       6.12007271       4.32754498       7.04771790      -0.00106989      -0.00075721       0.00000004
Br       5.09453704       1.42689279       5.27143830      -0.00053265       0.00075468       0.00092348
Br       3.04346635       4.32754503       8.82399728       0.00053289      -0.00075461      -0.00092348
Br       3.04346634       4.32754503       5.27143826       0.00053556      -0.00075565       0.00092580
Br       5.09453740       1.42689222       8.82399757      -0.00053433       0.00075547      -0.00092492
