9
Lattice="4.8661080775012255 -1.7761586049307703e-07 2.809448838796714 1.6220358994516502 4.587810458036756 2.8094487676514537 7.90295252272234e-08 -3.1252515576799e-08 5.61889754071025" Properties=species:S:1:pos:R:3:forces:R:3 energy=-44.70813751220703 free_energy=-44.70813751220703 stress="0.00017916347132995725 3.00163804922704e-09 -9.112217647100351e-09 3.00163804922704e-09 0.00017920513346325606 -5.033617966887505e-09 -9.112217647100351e-09 -5.033617966887505e-09 0.0001792245457181707" pbc="T T T"
Cr       1.62203567       1.14695254       2.80944892      -0.00000226       0.00000031       0.00000010
Cr       4.86610648       3.44085732       8.42834680      -0.00000286      -0.00000070       0.00000143
Pd       0.00000021       0.00000001       0.00000018       0.00000273      -0.00000449      -0.00000688
F        1.64244794       1.16138721       5.61889775      -0.00528158      -0.00373241       0.00000050
F        4.84569635       3.42642300       5.61889705       0.00528330       0.00373200      -0.00000095
F        4.04488318       1.16138616       4.23185061       0.00263821      -0.00373380      -0.00457108
F        2.44326144       3.42642450       7.00594436      -0.00263902       0.00373868       0.00457726
F        2.44326124       3.42642433       4.23185071      -0.00263960       0.00373638      -0.00457516
F        4.04488362       1.16138598       7.00594406       0.00264100      -0.00373594       0.00457470
