9
Lattice="5.825408706196403 5.620661654882597e-08 3.3633012224329217 1.9418029664812284 5.492247800126886 3.3633012026465723 2.2989547174364244e-08 -7.977163839720239e-09 6.726602405046802" Properties=species:S:1:pos:R:3:forces:R:3 energy=-39.76152801513672 free_energy=-39.76152801513672 stress="0.0001563116384204477 -1.0724143351126258e-08 8.46811332166908e-09 -1.0724143351126258e-08 0.00015633321891073138 -1.5984356949161338e-08 8.46811332166908e-09 -1.5984356949161338e-08 0.00015631152200512588" pbc="T T T"
Cr       1.94180326       1.37306232       3.36330126       0.00000196       0.00000256       0.00000056
Cr       5.82540905       4.11918570      10.08990301       0.00000048       0.00000010      -0.00000429
Ru       0.00000008      -0.00000003       0.00000004      -0.00000235       0.00000142       0.00000023
Cl       1.91511583       1.35419163       6.72660254       0.00043540       0.00030784       0.00000007
Cl       5.85209550       4.13805638       6.72660261      -0.00043531      -0.00030729       0.00000028
Cl       4.86785078       1.35419132       5.02184034      -0.00021796       0.00030549       0.00037803
Cl       2.89936087       4.13805627       8.43136469       0.00021903      -0.00030887      -0.00037719
Cl       2.89936065       4.13805598       5.02184002       0.00021651      -0.00030917       0.00037745
Cl       4.86785084       1.35419173       8.43136471      -0.00021768       0.00030795      -0.00037515
