9
Lattice="6.135960740887097 1.1809207203392605e-08 3.542598595505057 2.045320291509977 5.785039260202603 3.542598537630672 6.329009639693349e-08 -2.6128478072060886e-08 7.085197081388429" Properties=species:S:1:pos:R:3:forces:R:3 energy=-37.60548400878906 free_energy=-37.60548400878906 stress="0.0001068692363332957 1.9923010796674134e-08 1.2132328919278734e-08 1.9923010796674134e-08 0.00010686373570933938 -2.2703277480218276e-08 1.2132328919278734e-08 -2.2703277480218276e-08 0.00010684072913136333" pbc="T T T"
Cr       2.04532066       1.44625953       3.54259835       0.00000160       0.00000051      -0.00000099
Cr       6.13596107       4.33878006      10.62779514       0.00000022       0.00000151      -0.00000127
Ru       0.00000004       0.00000011      -0.00000008      -0.00000125       0.00000015       0.00000108
Br       2.01787085       1.42684987       7.08519726       0.00111211       0.00078654       0.00000023
Br       6.16341007       4.35818921       7.08519732      -0.00111279      -0.00078572       0.00000054
Br       5.12702522       1.42684984       5.29012595      -0.00055776       0.00078760       0.00096462
Br       3.05425556       4.35818909       8.88026863       0.00055834      -0.00078912      -0.00096696
Br       3.05425569       4.35818914       5.29012589       0.00055571      -0.00078688       0.00096540
Br       5.12702523       1.42685011       8.88026844      -0.00055623       0.00078543      -0.00096263
