9
Lattice="6.567829951917672 8.23012414985664e-09 3.7919384080753096 2.189276665742206 6.192209464519411 3.791938395355874 -2.910111407033816e-09 -1.763579848429798e-08 7.583876821191054" Properties=species:S:1:pos:R:3:forces:R:3 energy=-34.070396423339844 free_energy=-34.070396423339844 stress="0.0002643653133418411 8.795792538762726e-09 2.4752246918779974e-09 8.795792538762726e-09 0.00026435102336108685 -2.1250230464175957e-09 2.4752246918779974e-09 -2.1250230464175957e-09 0.00026435122708790004" pbc="T T T"
Cr       2.18927644       1.54805244       3.79193832      -0.00000017       0.00000024       0.00000035
Cr       6.56783007       4.64415692      11.37581528       0.00000046      -0.00000025       0.00000061
Ru       0.00000014       0.00000008       0.00000022      -0.00000184       0.00000096       0.00000176
I        2.18105922       1.54224169       7.58387674      -0.00053716      -0.00037918       0.00000008
I        6.57604753       4.64996786       7.58387676       0.00053778       0.00038001      -0.00000020
I        5.47730036       1.54224182       5.68079096       0.00026902      -0.00038000      -0.00046583
I        3.27980608       4.64996773       9.48696265      -0.00026810       0.00037843       0.00046344
I        3.27980622       4.64996754       5.68079094      -0.00026829       0.00037960      -0.00046495
I        5.47730038       1.54224172       9.48696261       0.00026828      -0.00037977       0.00046476
