9
Lattice="4.698094378720871 6.326403632132988e-09 2.7124463177476232 1.5660315182051674 4.429405710643878 2.7124462265257807 6.770503772892775e-08 -6.38487930893392e-08 5.424892518226674" Properties=species:S:1:pos:R:3:forces:R:3 energy=-53.71479415893555 free_energy=-53.71479415893555 stress="-0.0005023055127821863 9.577472148691868e-09 4.3671410931978016e-10 9.577472148691868e-09 -0.0005023240810260177 4.615321458345534e-08 4.3671410931978016e-10 4.615321458345534e-08 -0.0005023209378123283" pbc="T T T"
Cr       1.56603165       1.10735170       2.71244651       0.00000034       0.00000067       0.00000009
Cr       4.69809430       3.32205472       8.13733887      -0.00000023       0.00000056      -0.00000039
Re       0.00000006      -0.00000030      -0.00000010       0.00000175       0.00000209       0.00000510
F        1.60902075       1.13774963       5.42489227       0.00616076       0.00435601      -0.00000058
F        4.65510525       3.29165589       5.42489269      -0.00616180      -0.00435815       0.00000108
F        3.89358405       1.13774945       4.10589927      -0.00307986       0.00435440       0.00533409
F        2.37054202       3.29165626       6.74388563       0.00308125      -0.00435724      -0.00533649
F        2.37054217       3.29165618       4.10589927       0.00308142      -0.00435707       0.00533538
F        3.89358378       1.13774922       6.74388591      -0.00308362       0.00435864      -0.00533856
