9
Lattice="5.923920216895736 -1.8690028435494644e-08 3.4201769040905656 1.9746400461101097 5.585125695421214 3.4201769189295925 -5.998556750326466e-08 -2.4242132585424835e-08 6.840353912079154" Properties=species:S:1:pos:R:3:forces:R:3 energy=-43.190452575683594 free_energy=-43.190452575683594 stress="0.0002262963680550456 -9.42889855082285e-09 -2.6447482426306124e-08 -9.42889855082285e-09 0.00022631342289969325 1.2924596504149122e-08 -2.6447482426306124e-08 1.2924596504149122e-08 0.0002262703055748716" pbc="T T T"
Cr       1.97464007       1.39628128       3.42017657       0.00000037      -0.00000076      -0.00000193
Cr       5.92391963       4.18884403      10.26052926      -0.00000097      -0.00000035      -0.00000480
Re       0.00000002       0.00000002       0.00000013       0.00000151      -0.00000426       0.00000055
Cl       1.93212489       1.36621824       6.84035427       0.00037390       0.00026177       0.00000246
Cl       5.96643504       4.21890751       6.84035438      -0.00037201      -0.00026156       0.00000140
Cl       4.95785822       1.36621855       5.09344641      -0.00018548       0.00026399       0.00032277
Cl       2.94070272       4.21890668       8.58726167       0.00018419      -0.00025985      -0.00031945
Cl       2.94070230       4.21890682       5.09344621       0.00018386      -0.00026481       0.00031997
Cl       4.95785792       1.36621946       8.58726186      -0.00018540       0.00026599      -0.00032103
