9
Lattice="6.211449547204298 -4.355231914735366e-09 3.586182157833517 2.0704831712186413 5.856210953153119 3.586182170090593 1.1406747261460575e-08 2.30775735749369e-08 7.17236429590998" Properties=species:S:1:pos:R:3:forces:R:3 energy=-40.450462341308594 free_energy=-40.450462341308594 stress="0.00023426076222676784 8.77765504725403e-09 -1.506458291444801e-09 8.77765504725403e-09 0.00023425891413353384 -3.3717622027751304e-09 -1.506458291444801e-09 -3.3717622027751304e-09 0.00023425208928529173" pbc="T T T"
Cr       2.07048313       1.46405264       3.58618226       0.00000023      -0.00000042      -0.00000003
Cr       6.21144975       4.39215839      10.75854695       0.00000011       0.00000039       0.00000050
Re      -0.00000014       0.00000016      -0.00000025       0.00000266       0.00000071       0.00000358
Br       2.03769025       1.44086479       7.17236404       0.00053067       0.00037486       0.00000012
Br       6.24424288       4.41534643       7.17236422      -0.00053354      -0.00037707      -0.00000016
Br       5.19260443       1.44086433       5.35087335      -0.00026597       0.00037616       0.00046113
Br       3.08932805       4.41534639       8.99385518       0.00026721      -0.00037696      -0.00046236
Br       3.08932811       4.41534650       5.35087325       0.00026577      -0.00037536       0.00046036
Br       5.19260449       1.44086432       8.99385545      -0.00026705       0.00037770      -0.00046319
