9
Lattice="6.554303008271373 2.4986210585135628e-08 3.78412857004908 2.184767687376788 6.179456157324001 3.7841285797558775 -1.1867133243365442e-08 3.496997572763965e-09 7.568257160652599" Properties=species:S:1:pos:R:3:forces:R:3 energy=-33.225189208984375 free_energy=-33.225189208984375 stress="0.00016926953685469925 -1.231316026917284e-08 5.470042196975555e-10 -1.231316026917284e-08 0.000169275765074417 -5.492822641173234e-09 5.470042196975555e-10 -5.492822641173234e-09 0.00016929687990341336" pbc="T T T"
Cr       2.18476770       1.54486438       3.78412856      -0.00000057       0.00000051       0.00000047
Cr       6.55430286       4.63459197      11.35238570      -0.00000019       0.00000027      -0.00000083
Rh       0.00000015      -0.00000010       0.00000003      -0.00000124       0.00000004      -0.00000425
I        2.17344473       1.53685734       7.56825717      -0.00025174      -0.00017834      -0.00000029
I        6.56562595       4.64259870       7.56825721       0.00025319       0.00017868       0.00000069
I        5.46758062       1.53685757       5.66638701       0.00012622      -0.00017911      -0.00021967
I        3.27149004       4.64259856       9.47012738      -0.00012728       0.00018036       0.00022157
I        3.27149008       4.64259866       5.66638685      -0.00012662       0.00017855      -0.00021984
I        5.46758059       1.53685768       9.47012730       0.00012817      -0.00018088       0.00022214
