9
Lattice="6.136039402490162 -6.383113127032852e-08 3.5426440886958526 2.045346397589724 5.785113572246834 3.5426441055424887 -3.275155514342417e-09 1.831697616141376e-08 7.085288183064464" Properties=species:S:1:pos:R:3:forces:R:3 energy=-37.6054801940918 free_energy=-37.6054801940918 stress="0.0001140726963058114 8.442446741696585e-09 -4.621576898955482e-09 8.442446741696585e-09 0.00011406194244045764 -6.544749742154465e-10 -4.621576898955482e-09 -6.544749742154465e-10 0.00011406531848479062" pbc="T T T"
Cr       2.04534616       1.44627857       3.54264386      -0.00000048       0.00000057      -0.00000099
Cr       6.13603898       4.33883512      10.62793221      -0.00000102       0.00000034       0.00000048
Ru       0.00000001      -0.00000005       0.00000035       0.00000209       0.00000061       0.00000209
Br       2.01787918       1.42685599       7.08528832       0.00113411       0.00080061       0.00000087
Br       6.16350699       4.35825761       7.08528819      -0.00113611      -0.00080335      -0.00000057
Br       5.12709984       1.42685598       5.29017901      -0.00056717       0.00080312       0.00098327
Br       3.05428621       4.35825743       8.88039752       0.00056824      -0.00080299      -0.00098307
Br       3.05428607       4.35825733       5.29017864       0.00056824      -0.00080288       0.00098276
Br       5.12709977       1.42685616       8.88039741      -0.00056793       0.00080393      -0.00098479
