9
Lattice="4.857663996726653 -2.0021670550199692e-07 2.8045737194430997 1.6192212067688616 4.579849204346443 2.804573609816831 -4.353012190665581e-08 -1.6504468761936564e-07 5.609147514282614" Properties=species:S:1:pos:R:3:forces:R:3 energy=-47.816444396972656 free_energy=-47.816444396972656 stress="0.00019976009207312018 1.3383398389521517e-08 -6.3620086976357015e-09 1.3383398389521517e-08 0.00019977732154075056 2.113924502111786e-08 -6.3620086976357015e-09 2.113924502111786e-08 0.00019980015349574387" pbc="T T T"
Cr       1.61922174       1.14496218       2.80457446       0.00000023      -0.00000042       0.00000107
Cr       4.85766419       3.43488747       8.41372096       0.00000148       0.00000154      -0.00000014
Rh      -0.00000002      -0.00000012       0.00000003      -0.00000401      -0.00000312      -0.00000086
F        1.61914487       1.14490816       5.60914702      -0.00309123      -0.00218663      -0.00000082
F        4.85773993       3.43494066       5.60914777       0.00309505       0.00218917       0.00000027
F        4.04809134       1.14490764       4.20679471       0.00154628      -0.00218841      -0.00267886
F        2.42879341       3.43494084       7.01150001      -0.00154737       0.00218843       0.00267983
F        2.42879376       3.43494061       4.20679421      -0.00154615       0.00218645      -0.00267896
F        4.04809119       1.14490778       7.01150035       0.00154567      -0.00218702       0.00267860
