9
Lattice="5.761753376504376 -4.37756901405738e-09 3.326549976860092 1.9205844843970885 5.4322330737818465 3.326549925436372 6.236293837037076e-08 -1.8883678511648993e-08 6.653099845704399" Properties=species:S:1:pos:R:3:forces:R:3 energy=-38.516448974609375 free_energy=-38.516448974609375 stress="8.19933193270117e-05 -8.277654117705424e-09 2.663456299956124e-08 -8.277654117705424e-09 8.196533599402755e-05 -2.7696334115034915e-08 2.663456299956124e-08 -2.7696334115034915e-08 8.201984746847302e-05" pbc="T T T"
Cr       1.92058500       1.35805858       3.32654994       0.00000325      -0.00000108      -0.00000019
Cr       5.76175375       4.07417432       9.97964971       0.00000059      -0.00000112      -0.00000187
Rh      -0.00000007      -0.00000000      -0.00000012      -0.00000157       0.00000498      -0.00000227
Cl       1.90021677       1.34365630       6.65309993       0.00164866       0.00116634       0.00000013
Cl       5.78212092       4.08857704       6.65309993      -0.00165071      -0.00116783       0.00000117
Cl       4.81164498       1.34365598       4.97218619      -0.00082484       0.00116788       0.00142798
Cl       2.87069257       4.08857706       8.33401361       0.00082423      -0.00116818      -0.00142960
Cl       2.87069299       4.08857656       4.97218589       0.00082373      -0.00116625       0.00142799
Cl       4.81164479       1.34365641       8.33401400      -0.00082342       0.00116538      -0.00142322
