9
Lattice="4.6288651860189 -9.186498755613014e-08 2.67247669507563 1.5429550096018565 4.364135797087535 2.6724766358278815 3.5415741398325415e-09 -7.005909588869222e-08 5.344953384017064" Properties=species:S:1:pos:R:3:forces:R:3 energy=-49.410953521728516 free_energy=-49.410953521728516 stress="-0.0007050309795886278 -6.156218290698234e-08 -1.8757459585572178e-08 -6.156218290698234e-08 -0.0007049569394439459 -9.411676771264865e-09 -1.8757459585572178e-08 -9.411676771264865e-09 -0.0007049191044643521" pbc="T T T"
Cr       1.54295531       1.09103416       2.67247660       0.00000111       0.00000075       0.00000132
Cr       4.62886523       3.27310208       8.01743022       0.00000091       0.00000282      -0.00000021
Ru       0.00000004       0.00000004      -0.00000004       0.00000315      -0.00000524       0.00000114
F        1.57793237       1.11576649       5.34495330       0.00004321       0.00002909       0.00000239
F        4.59388776       3.24836914       5.34495322      -0.00004250      -0.00003056       0.00000059
F        3.83989851       1.11576653       4.03900614      -0.00001970       0.00002787       0.00003326
F        2.33192134       3.24836896       6.65090052       0.00001876      -0.00002903      -0.00003126
F        2.33192101       3.24836901       4.03900653       0.00001742      -0.00002551       0.00003064
F        3.83989925       1.11576608       6.65090046      -0.00002234       0.00002977      -0.00003800
