9
Lattice="4.857482347925641 -3.8629244276642323e-08 2.8044688501893904 1.619160841552998 4.579677676529679 2.804468685071063 2.126521062815787e-07 -5.1860072625575765e-08 5.6089373320545475" Properties=species:S:1:pos:R:3:forces:R:3 energy=-47.816444396972656 free_energy=-47.816444396972656 stress="0.00020825499086640775 7.707490823349872e-08 -3.2855731468828253e-09 7.707490823349872e-08 0.0002082283463096246 -1.6355990339889104e-08 -3.2855731468828253e-09 -1.6355990339889104e-08 0.0002081686252495274" pbc="T T T"
Cr       1.61916077       1.14491907       2.80446871      -0.00000065      -0.00000048       0.00000032
Cr       4.85748217       3.43475891       8.41340655      -0.00000083       0.00000071       0.00000057
Rh       0.00000004      -0.00000015       0.00000002      -0.00000379       0.00000170       0.00000091
F        1.61918384       1.14493469       5.60893735      -0.00422746      -0.00299165      -0.00000001
F        4.85745965       3.43474270       5.60893732       0.00423066       0.00299229      -0.00000005
F        4.04789121       1.14493562       4.20672247       0.00211314      -0.00298724      -0.00365961
F        2.42875242       3.43474200       7.01115253      -0.00211156       0.00298493       0.00365860
F        2.42875209       3.43474245       4.20672262      -0.00211322       0.00298748      -0.00365873
F        4.04789139       1.14493501       7.01115225       0.00211363      -0.00298793       0.00365798
