9
Lattice="5.761855382019804 6.447855985304546e-08 3.326608774224282 1.9206184998845235 5.432329315123812 3.3266088116014023 -2.9186905378645414e-08 2.5139180882669333e-08 6.653217599001777" Properties=species:S:1:pos:R:3:forces:R:3 energy=-38.516448974609375 free_energy=-38.516448974609375 stress="9.263113315682858e-05 1.007597383306802e-08 7.365401177850117e-09 1.007597383306802e-08 9.263578249374405e-05 -1.7332797419555845e-09 7.365401177850117e-09 -1.7332797419555845e-09 9.258868522010744e-05" pbc="T T T"
Cr       1.92061886       1.35808282       3.32660900       0.00000324       0.00000269       0.00000081
Cr       5.76185573       4.07424756       9.97982568       0.00000026       0.00000262      -0.00000304
Rh      -0.00000019       0.00000001       0.00000017      -0.00000459      -0.00000243       0.00000140
Cl       1.90022043       1.34365915       6.65321756       0.00178058       0.00126068      -0.00000043
Cl       5.78225302       4.08867035       6.65321778      -0.00177881      -0.00125757       0.00000196
Cl       4.81174486       1.34365872       4.97224832      -0.00089101       0.00125685       0.00154026
Cl       2.87072901       4.08867030       8.33418715       0.00089172      -0.00126062      -0.00154072
Cl       2.87072885       4.08866995       4.97224808       0.00089014      -0.00126082       0.00154181
Cl       4.81174484       1.34365887       8.33418701      -0.00089132       0.00125858      -0.00154203
