9
Lattice="6.077861367894447 4.3994217572839624e-08 3.509054897418633 2.0259538233926935 5.730262697280945 3.509054910207405 2.074499759437834e-08 3.033191076628875e-08 7.018109758905883" Properties=species:S:1:pos:R:3:forces:R:3 energy=-36.276947021484375 free_energy=-36.276947021484375 stress="9.385814337292686e-05 4.91438978400538e-09 -2.346507654849006e-09 4.91438978400538e-09 9.385248267790303e-05 1.511034675161227e-08 -2.346507654849006e-09 1.511034675161227e-08 9.384032455272973e-05" pbc="T T T"
Cr       2.02595370       1.43256516       3.50905494      -0.00000017      -0.00000064      -0.00000067
Cr       6.07786130       4.29769747      10.52716451      -0.00000015       0.00000056      -0.00000060
Rh       0.00000010       0.00000007      -0.00000031       0.00000025      -0.00000219       0.00000872
Br       2.00598057       1.41844262       7.01810965       0.00145872       0.00103131      -0.00000062
Br       6.09783455       4.31182022       7.01810982      -0.00145811      -0.00103070       0.00000035
Br       5.07487122       1.41844254       5.24628505      -0.00072851       0.00102909       0.00126198
Br       3.02894411       4.31182019       8.78993475       0.00073043      -0.00103174      -0.00126494
Br       3.02894428       4.31182042       5.24628514       0.00072849      -0.00102886       0.00126257
Br       5.07487102       1.41844241       8.78993479      -0.00073094       0.00103316      -0.00126682
