9
Lattice="6.55416353991166 -9.762025301009283e-09 3.784048138426471 2.1847211748555373 6.1793247253339345 3.7840481313446603 1.1909209528838014e-08 -2.5237809248943943e-10 7.56809625622568" Properties=species:S:1:pos:R:3:forces:R:3 energy=-33.22519302368164 free_energy=-33.22519302368164 stress="0.000157206755829975 2.5198085840116846e-09 3.3078009220588456e-09 2.5198085840116846e-09 0.00015720284136477858 -2.35031660800189e-09 3.3078009220588456e-09 -2.35031660800189e-09 0.00015720048395451158" pbc="T T T"
Cr       2.18472108       1.54483113       3.78404817      -0.00000071       0.00000024      -0.00000021
Cr       6.55416356       4.63449362      11.35214438      -0.00000013       0.00000082      -0.00000026
Rh       0.00000023       0.00000017       0.00000046      -0.00000168      -0.00000097      -0.00000213
I        2.17342807       1.53684572       7.56809637      -0.00031989      -0.00022660      -0.00000025
I        6.56545642       4.64247878       7.56809626       0.00032246       0.00022749       0.00000007
I        5.46744955       1.53684563       5.66629216       0.00016000      -0.00022662      -0.00027722
I        3.27143549       4.64247879       9.46990018      -0.00016128       0.00022773       0.00027889
I        3.27143517       4.64247912       5.66629200      -0.00015982       0.00022577      -0.00027750
I        5.46744934       1.53684591       9.46990011       0.00016104      -0.00022784       0.00027861
