9
Lattice="4.62981731535794 -1.5311777779529784e-07 2.6730261814066303 1.5432723452767074 4.365032987377603 2.6730260927518357 -1.0865011024837647e-08 -1.162622307032735e-07 5.346052381632001" Properties=species:S:1:pos:R:3:forces:R:3 energy=-49.41098403930664 free_energy=-49.41098403930664 stress="-0.0007210224866867065 2.164731149889576e-08 4.830621236351362e-09 2.164731149889576e-08 -0.0007209346513263881 -5.722778695371744e-09 4.830621236351362e-09 -5.722778695371744e-09 -0.0007209107861854136" pbc="T T T"
Cr       1.54327272       1.09125853       2.67302595       0.00000245       0.00000093      -0.00000136
Cr       4.62981650       3.27377394       8.01907804      -0.00000418      -0.00000271      -0.00000177
Ru       0.00000018      -0.00000009       0.00000006      -0.00000840      -0.00000067       0.00000308
F        1.57776156       1.11564566       5.34605233       0.00675714       0.00477783       0.00000009
F        4.59532792       3.24938721       5.34605249      -0.00675040      -0.00477386       0.00000067
F        3.84093643       1.11564574       4.03940776      -0.00337596       0.00477730       0.00584804
F        2.33215341       3.24938699       6.65269718       0.00337888      -0.00477956      -0.00584991
F        2.33215337       3.24938725       4.03940768       0.00337856      -0.00477628       0.00584912
F        3.84093650       1.11564572       6.65269719      -0.00337781       0.00477700      -0.00584802
