9
Lattice="6.678404165044707 8.959902438922664e-10 3.855778423662015 2.2261346707988454 6.2964599758071715 3.855778513256587 -6.345597753086255e-08 6.486036302305033e-08 7.711556957232981" Properties=species:S:1:pos:R:3:forces:R:3 energy=-36.785499572753906 free_energy=-36.785499572753906 stress="0.00014700389874633402 3.813881654934903e-09 -3.2819478246182143e-09 3.813881654934903e-09 0.0001470132847316563 1.2219439904370688e-09 -3.2819478246182143e-09 1.2219439904370688e-09 0.00014701650070492178" pbc="T T T"
Cr       2.22613485       1.57411488       3.85577860       0.00000059      -0.00000032       0.00000038
Cr       6.67840407       4.72234507      11.56733557      -0.00000034      -0.00000036      -0.00000034
Re      -0.00000021       0.00000005       0.00000017       0.00000002      -0.00000118       0.00000001
I        2.20544983       1.55948887       7.71155699      -0.00027098      -0.00019145      -0.00000017
I        6.69908918       4.73697138       7.71155685       0.00027088       0.00019161      -0.00000025
I        5.57567905       1.55948874       5.76575410       0.00013577      -0.00019187      -0.00023459
I        3.32885969       4.73697124       9.65735954      -0.00013575       0.00019308       0.00023555
I        3.32885969       4.73697123       5.76575411      -0.00013507       0.00019153      -0.00023454
I        5.57567889       1.55948872       9.65735966       0.00013484      -0.00019105       0.00023398
