9
Lattice="6.567657916681155 -2.8789246323372714e-08 3.7918390907041895 2.1892192750644575 6.192047306563355 3.791839096512023 -2.18847223611779e-09 5.5656550572683e-09 7.583678185198895" Properties=species:S:1:pos:R:3:forces:R:3 energy=-34.07040023803711 free_energy=-34.07040023803711 stress="0.00024881598073989153 -6.1416574048678285e-09 -7.660040136914237e-13 -6.1416574048678285e-09 0.0002488122263457626 -3.6377006962240443e-10 -7.660040136914237e-13 -3.6377006962240443e-10 0.0002488258178345859" pbc="T T T"
Cr       2.18921925       1.54801183       3.79183910      -0.00000006      -0.00000042       0.00000023
Cr       6.56765808       4.64403520      11.37551747       0.00000026      -0.00000040       0.00000051
Ru      -0.00000010       0.00000007      -0.00000000      -0.00000067       0.00000065       0.00000104
I        2.18104022       1.54222859       7.58367826      -0.00065441      -0.00046247       0.00000004
I        6.57583682       4.64981870       7.58367816       0.00065443       0.00046275      -0.00000064
I        5.47713780       1.54222864       5.68067554       0.00032751      -0.00046296      -0.00056715
I        3.27973951       4.64981869       9.48668069      -0.00032701       0.00046268       0.00056568
I        3.27973946       4.64981882       5.68067559      -0.00032734       0.00046301      -0.00056631
I        5.47713771       1.54222860       9.48668065       0.00032728      -0.00046284       0.00056661
