9
Lattice="5.945528152397708 -4.836615451321047e-08 3.4326524262603715 1.9818426660748456 5.60549775020518 3.4326524362906286 -7.380707988936144e-08 -3.990497207369278e-08 6.865304980358345" Properties=species:S:1:pos:R:3:forces:R:3 energy=-32.788169860839844 free_energy=-32.788169860839844 stress="0.00027481361757963896 -4.415435128635181e-08 1.1072136096856866e-08 -4.415435128635181e-08 0.00027477610274218023 -8.174688481688008e-09 1.1072136096856866e-08 -8.174688481688008e-09 0.0002747296239249408" pbc="T T T"
Cr       1.98184297       1.40137475       3.43265169       0.00000028       0.00000334      -0.00000357
Cr       5.94552765       4.20412324      10.29795658      -0.00000183      -0.00000172      -0.00000437
Se      -0.00000086       0.00000001       0.00000071       0.00001267      -0.00000026      -0.00001009
Cl       1.99062540       1.40758470       6.86530515      -0.00225145      -0.00159330       0.00000062
Cl       5.93674607       4.19791339       6.86530526       0.00224592       0.00158805       0.00000326
Cl       4.95021594       1.40758453       5.15658496       0.00112454      -0.00158893      -0.00194756
Cl       2.97715591       4.19791198       8.57402493      -0.00112780       0.00159347       0.00195663
Cl       2.97715490       4.19791314       5.15658473      -0.00112659       0.00159121      -0.00194790
Cl       4.95021493       1.40758491       8.57402536       0.00112424      -0.00159194       0.00195307
