9
Lattice="4.786193206774861 -6.77148217137056e-08 2.7633101034019107 1.5953977911181714 4.512465707116562 2.7633098966493144 1.724220974415077e-07 -1.3129839750010797e-07 5.526619908159997" Properties=species:S:1:pos:R:3:forces:R:3 energy=-43.132389068603516 free_energy=-43.132389068603516 stress="0.0005173386889509857 9.00858587726816e-09 -2.6995929047757272e-08 9.00858587726816e-09 0.0005172699457034469 1.6186653795102757e-08 -2.6995929047757272e-08 1.6186653795102757e-08 0.0005172573146410286" pbc="T T T"
Cr       1.59539763       1.12811651       2.76330995      -0.00000088      -0.00000136       0.00000053
Cr       4.78619326       3.38434890       8.28993044       0.00000056       0.00000075       0.00000073
Se       0.00000009       0.00000004      -0.00000006      -0.00000042       0.00000139      -0.00000677
F        1.60912658       1.13782388       5.52661976      -0.00665522      -0.00470598       0.00000062
F        4.77246476       3.37464164       5.52661998       0.00665490       0.00470578       0.00000019
F        3.98163041       1.13782407       4.15685437       0.00332816      -0.00470615      -0.00576257
F        2.39996074       3.37464161       6.89638543      -0.00332841       0.00470663       0.00576454
F        2.39996091       3.37464193       4.15685411      -0.00332638       0.00470508      -0.00576048
F        3.98163034       1.13782354       6.89638539       0.00332769      -0.00470619       0.00576317
