9
Lattice="6.6249415817354675 5.1059699863297424e-08 3.8249119484450866 2.208313957044085 6.246054901735718 3.824911864741903 4.549118237541639e-08 -7.034794022296055e-08 7.649823818097141" Properties=species:S:1:pos:R:3:forces:R:3 energy=-27.525527954101562 free_energy=-27.525527954101562 stress="-7.750205440970603e-06 5.10018471899798e-09 -8.593628031405842e-09 5.10018471899798e-09 -7.759999789413996e-06 1.226139012544536e-08 -8.593628031405842e-09 1.226139012544536e-08 -7.746153642074205e-06" pbc="T T T"
Cr       2.20831397       1.56151391       3.82491193      -0.00000006       0.00000034      -0.00000082
Cr       6.62494155       4.68454071      11.47473563      -0.00000110      -0.00000090      -0.00000105
S       -0.00000022      -0.00000023      -0.00000068       0.00000119      -0.00000056       0.00000262
I        2.33910614       1.65399809       7.64982382      -0.00032170      -0.00022604      -0.00000060
I        6.49414967       4.59205689       7.64982413       0.00032187       0.00022662      -0.00000026
I        5.45538840       1.65399806       5.85063736       0.00016001      -0.00022722      -0.00027782
I        3.37786736       4.59205700       9.44901041      -0.00016003       0.00022747       0.00027755
I        3.37786736       4.59205731       5.85063736      -0.00015994       0.00022677      -0.00027712
I        5.45538812       1.65399783       9.44901052       0.00015975      -0.00022651       0.00027758
