9
Lattice="5.072430356569145 1.4551769892903297e-07 2.92856922320495 1.6908102327154355 4.782333392160368 2.9285692636247074 1.2676646739686829e-08 5.846759207042233e-08 5.857138424453308" Properties=species:S:1:pos:R:3:forces:R:3 energy=-47.83710861206055 free_energy=-47.83710861206055 stress="0.0005277907475829124 -7.983103955666593e-09 -4.995626134984832e-09 -7.983103955666593e-09 0.0005277732270769775 2.037120339082321e-08 -4.995626134984832e-09 2.037120339082321e-08 0.0005277124000713229" pbc="T T T"
Cr       1.69080947       1.19558400       2.92856942      -0.00000116       0.00000003      -0.00000010
Cr       5.07243046       3.58675003       8.78570730       0.00000045       0.00000002      -0.00000014
Sn      -0.00000002      -0.00000008      -0.00000016       0.00000366      -0.00000082       0.00000015
F        1.65509027       1.17032606       5.85713885       0.00014745       0.00010504      -0.00000039
F        5.10815036       3.61200739       5.85713868      -0.00014901      -0.00010593      -0.00000037
F        4.24488544       1.17032557       4.36191976      -0.00007481       0.00010531       0.00012908
F        2.51835584       3.61200752       7.35235751       0.00007413      -0.00010407      -0.00012700
F        2.51835540       3.61200783       4.36191969       0.00007408      -0.00010490       0.00012827
F        4.24488532       1.17032585       7.35235701      -0.00007468       0.00010537      -0.00012937
