9
Lattice="6.127582631788546 3.340809774233297e-08 3.5377612427280383 2.0425275733006556 5.777140347629102 3.5377612464108052 -2.7868088227620983e-09 2.539847776441802e-09 7.075522490283034" Properties=species:S:1:pos:R:3:forces:R:3 energy=-30.3074893951416 free_energy=-30.3074893951416 stress="-8.021253597689793e-05 2.006504296048206e-09 3.363666234434959e-09 2.006504296048206e-09 -8.02072900114581e-05 -1.6449434869780788e-10 3.363666234434959e-09 -1.6449434869780788e-10 -8.022354450076818e-05" pbc="T T T"
Cr       2.04252778       1.44428511       3.53776139      -0.00000072      -0.00000175       0.00000031
Cr       6.12758276       4.33285507      10.61328413       0.00000064       0.00000100       0.00000107
S       -0.00000015      -0.00000036       0.00000002       0.00000021       0.00000164       0.00000108
Br       2.08740277       1.47601681       7.07552230      -0.00612867      -0.00433338      -0.00000017
Br       6.08270738       4.30112386       7.07552203       0.00612770       0.00433376      -0.00000077
Br       5.08388130       1.47601664       5.34550581       0.00306401      -0.00433351      -0.00530806
Br       3.08622894       4.30112399       8.80553968      -0.00306336       0.00433259       0.00530623
Br       3.08622920       4.30112343       5.34550566      -0.00306421       0.00433318      -0.00530763
Br       5.08388083       1.47601710       8.80553887       0.00306442      -0.00433356       0.00530791
