9
Lattice="6.298020587060194 2.394465495627942e-08 3.6361639864973956 2.099340257476968 5.9378307802361325 3.6361639185749906 9.335649285040586e-08 -1.7174601850481716e-08 7.272327811296609" Properties=species:S:1:pos:R:3:forces:R:3 energy=-33.12635803222656 free_energy=-33.12635803222656 stress="0.00014164092135615647 -1.6441401129441147e-08 -3.1139439915506273e-09 -1.6441401129441147e-08 0.0001416459126630798 1.089955348199112e-09 -3.1139439915506273e-09 1.089955348199112e-09 0.00014165733591653407" pbc="T T T"
Cr       2.09933993       1.48445744       3.63616394      -0.00000013       0.00000000       0.00000032
Cr       6.29802095       4.45337319      10.90849184       0.00000028      -0.00000034       0.00000035
Sb      -0.00000023      -0.00000021      -0.00000014       0.00000136       0.00000109      -0.00000006
Br       2.16565771       1.53135101       7.27232791      -0.00219089      -0.00154875       0.00000059
Br       6.23170360       4.40647986       7.27232787       0.00218837       0.00154748      -0.00000053
Br       5.21519144       1.53135135       5.51167872       0.00109664      -0.00154997      -0.00189859
Br       3.18216928       4.40647978       9.03297691      -0.00109571       0.00154994       0.00189783
Br       3.18216923       4.40647946       5.51167891      -0.00109585       0.00155003      -0.00189796
Br       5.21519182       1.53135131       9.03297699       0.00109586      -0.00154949       0.00189813
