9
Lattice="6.82316993040517 -2.5758671597775358e-08 3.9393589287949324 2.2743899437322135 6.432946266014593 3.9393589440092684 5.316715544726513e-09 2.2393149880044566e-08 7.878717848381012" Properties=species:S:1:pos:R:3:forces:R:3 energy=-29.695030212402344 free_energy=-29.695030212402344 stress="9.547898662276566e-05 -4.161104349975631e-09 1.1454166504165642e-09 -4.161104349975631e-09 9.548309753881767e-05 -1.1910346042753872e-09 1.1454166504165642e-09 -1.1910346042753872e-09 9.548015077598393e-05" pbc="T T T"
Cr       2.27439008       1.60823658       3.93935881       0.00000026      -0.00000027      -0.00000008
Cr       6.82316967       4.82470983      11.81807703      -0.00000062       0.00000029       0.00000042
Sn       0.00000006      -0.00000013       0.00000032      -0.00000016       0.00000010      -0.00000288
I        2.37410332       1.67874443       7.87871776       0.00142774       0.00100917       0.00000025
I        6.72345662       4.75420172       7.87871766      -0.00142764      -0.00100923      -0.00000037
I        5.63611805       1.67874481       5.99539275      -0.00071340       0.00100928       0.00123668
I        3.46144178       4.75420163       9.76204295       0.00071290      -0.00100834      -0.00123528
I        3.46144183       4.75420152       5.99539292       0.00071384      -0.00100933       0.00123654
I        5.63611812       1.67874463       9.76204265      -0.00071293       0.00100827      -0.00123526
