9
Lattice="6.901386315181412 5.848756858772427e-08 3.984517061876178 2.3004621119559685 6.506689261471278 3.9845171454426263 -5.6900855732955216e-08 6.211255523613785e-08 7.969034222307462" Properties=species:S:1:pos:R:3:forces:R:3 energy=-29.543853759765625 free_energy=-29.543853759765625 stress="7.407496741507202e-05 1.6068028685367608e-08 -1.5892556159968763e-09 1.6068028685367608e-08 7.406255463138223e-05 -3.889923938515949e-09 -1.5892556159968763e-09 -3.889923938515949e-09 7.405041105812415e-05" pbc="T T T"
Cr       2.30046214       1.62667220       3.98451698       0.00000072      -0.00000074       0.00000060
Cr       6.90138635       4.88001703      11.95355169      -0.00000121       0.00000089       0.00000067
Sb       0.00000025       0.00000037      -0.00000112      -0.00000141      -0.00000184       0.00000593
I        2.41531909       1.70788870       7.96903413      -0.00267452      -0.00189143       0.00000023
I        6.78652852       4.79880059       7.96903395       0.00267668       0.00189282      -0.00000031
I        5.69372670       1.70788850       6.07624498       0.00133763      -0.00189198      -0.00231709
I        3.50812149       4.79880141       9.86182417      -0.00133542       0.00188908       0.00231380
I        3.50812178       4.79880050       6.07624489      -0.00133792       0.00189198      -0.00231776
I        5.69372710       1.70788819       9.86182407       0.00133544      -0.00188874       0.00231387
