9
Lattice="5.734020908143836 -2.6536266037103384e-08 3.3105385661858446 1.9113402991619042 5.406086807416597 3.310538529005763 4.256263157576369e-08 -1.543975594301501e-08 6.621077058651036" Properties=species:S:1:pos:R:3:forces:R:3 energy=-38.72667694091797 free_energy=-38.72667694091797 stress="1.2830905689042993e-05 3.091010825073681e-08 -1.1460946858221632e-08 3.091010825073681e-08 1.3056289390078746e-05 2.337076843161867e-08 -1.1460946858221632e-08 2.337076843161867e-08 1.3029345609538723e-05" pbc="T T T"
Cr       1.91133998       1.35152200       3.31053850      -0.00000257       0.00000181       0.00000028
Cr       5.73402089       4.05456537       9.93161595       0.00000003       0.00000210       0.00000061
Si      -0.00000003      -0.00000003       0.00000034       0.00000212      -0.00000310      -0.00000710
Cl       1.82644710       1.29149279       6.62107717       0.00542852       0.00383583       0.00000055
Cl       5.81891453       4.11459359       6.62107701      -0.00542888      -0.00383631      -0.00000044
Cl       4.82079726       1.29149318       4.89228814      -0.00271471       0.00383556       0.00470096
Cl       2.82456392       4.11459361       8.34986572       0.00271323      -0.00383505      -0.00469550
Cl       2.82456401       4.11459346       4.89228811       0.00271658      -0.00383670       0.00469892
Cl       4.82079735       1.29149306       8.34986571      -0.00271427       0.00383586      -0.00469822
