9
Lattice="5.0762881969802205 3.8884359186919973e-07 2.9307962689276095 1.6920961821525355 4.785972007025009 2.9307967021357046 -1.4579258399534443e-07 4.274784169407549e-07 5.861592790375442" Properties=species:S:1:pos:R:3:forces:R:3 energy=-47.04877853393555 free_energy=-47.04877853393555 stress="-6.002618192724185e-06 -1.2568526663869761e-08 -1.101582158824499e-09 -1.2568526663869761e-08 -5.9917620092164725e-06 -7.481054886682159e-09 -1.101582158824499e-09 -7.481054886682159e-09 -6.00360544922296e-06" pbc="T T T"
Cr       1.69209673       1.19649443       2.93079601      -0.00000002       0.00000192      -0.00000029
Cr       5.07628809       3.58947915       8.79239019       0.00000056      -0.00000160       0.00000035
Sb      -0.00000024      -0.00000002      -0.00000011       0.00000615      -0.00000389       0.00000457
F        1.68060986       1.18837215       5.86159295       0.00211065       0.00149269      -0.00000035
F        5.08777425       3.59760071       5.86159269      -0.00211160      -0.00149356      -0.00000043
F        4.23598324       1.18837182       4.38624719      -0.00105792       0.00149557       0.00183049
F        2.53240104       3.59760086       7.33693847       0.00105586      -0.00149447      -0.00182927
F        2.53240140       3.59760052       4.38624755       0.00105438      -0.00149149       0.00182563
F        4.23598233       1.18837181       7.33693815      -0.00105809       0.00149469      -0.00183074
