9
Lattice="5.076062356581738 1.358432605697573e-07 2.9306659844908056 1.6920208798239313 4.785757380126105 2.93066604299526 8.228866692939197e-08 1.2983989071454408e-07 5.861331826453466" Properties=species:S:1:pos:R:3:forces:R:3 energy=-47.04878234863281 free_energy=-47.04878234863281 stress="7.794361408741679e-06 -1.4207739873484115e-08 -2.0318180915523953e-08 -1.4207739873484115e-08 7.860308869567234e-06 -3.624937505719572e-08 -2.0318180915523953e-08 -3.624937505719572e-08 7.844054380257148e-06" pbc="T T T"
Cr       1.69202177       1.19643882       2.93066616       0.00000076      -0.00000015       0.00000076
Cr       5.07606293       3.58931841       8.79199881       0.00000094       0.00000029       0.00000060
Sb       0.00000002       0.00000029       0.00000020       0.00000183      -0.00000130       0.00000314
F        1.68069721       1.18843230       5.86133152       0.00111689       0.00079030      -0.00000007
F        5.08738598       3.59732569       5.86133151      -0.00111783      -0.00078943      -0.00000061
F        4.23571356       1.18843258       4.38619215      -0.00055849       0.00078903       0.00096594
F        2.53236923       3.59732528       7.33647139       0.00055771      -0.00078973      -0.00096776
F        2.53236912       3.59732535       4.38619266       0.00055698      -0.00078765       0.00096543
F        4.23571348       1.18843225       7.33647156      -0.00055879       0.00078881      -0.00096722
