9
Lattice="6.297921901165231 5.498952130384222e-08 3.6361068550966817 2.0993073084493745 5.937737672075745 3.636106930932159 -1.4684708816000433e-07 -1.0957451472311957e-08 7.272213964539971" Properties=species:S:1:pos:R:3:forces:R:3 energy=-33.12635803222656 free_energy=-33.12635803222656 stress="0.0001343277544947341 -3.5800327147228472e-09 4.7081787357683424e-09 -3.5800327147228472e-09 0.00013433040294330567 2.1488224533072753e-09 4.7081787357683424e-09 2.1488224533072753e-09 0.00013433747517410666" pbc="T T T"
Cr       2.09930692       1.48443453       3.63610683      -0.00000021       0.00000065      -0.00000043
Cr       6.29792177       4.45330297      10.90832071      -0.00000049      -0.00000052      -0.00000159
Sb       0.00000013      -0.00000017       0.00000009      -0.00000100       0.00000109      -0.00000323
Br       2.16563257       1.53133353       7.27221415      -0.00218365      -0.00154454       0.00000032
Br       6.23159650       4.40640399       7.27221379       0.00218494       0.00154425      -0.00000009
Br       5.21510552       1.53133341       5.51159941       0.00109186      -0.00154420      -0.00189059
Br       3.18212391       4.40640405       9.03282817      -0.00109250       0.00154476       0.00189276
Br       3.18212329       4.40640459       5.51159991      -0.00109217       0.00154436      -0.00188999
Br       5.21510565       1.53133391       9.03282789       0.00109333      -0.00154586       0.00189279
