9
Lattice="5.850215706170699 -1.3223705325346975e-08 3.3776237485951635 1.9500718930968657 5.515636122693461 3.3776237425201368 3.644732651675499e-09 -4.863153588835161e-09 6.755247490877465" Properties=species:S:1:pos:R:3:forces:R:3 energy=-32.53383255004883 free_energy=-32.53383255004883 stress="-1.3802497960568871e-05 1.6550885106880742e-08 -4.8223895987575816e-09 1.6550885106880742e-08 -1.3763423339696601e-05 -7.758735875995626e-09 -4.8223895987575816e-09 -7.758735875995626e-09 -1.3791318451694679e-05" pbc="T T T"
Cr       1.95007230       1.37890898       3.37762448       0.00000267       0.00000050       0.00000506
Cr       5.85021562       4.13672681      10.13287202      -0.00000081       0.00000048       0.00000271
S       -0.00000006      -0.00000014      -0.00000015      -0.00000150       0.00000193      -0.00000320
Cl       1.95480173       1.38225397       6.75524718      -0.00038880      -0.00027496      -0.00000047
Cl       5.84548572       4.13338287       6.75524724       0.00038779       0.00027335      -0.00000047
Cl       4.87281453       1.38225340       5.07053130       0.00019246      -0.00027418      -0.00033754
Cl       2.92747284       4.13338272       8.43996319      -0.00019246       0.00027315       0.00033623
Cl       2.92747233       4.13338251       5.07053144      -0.00019325       0.00027284      -0.00033668
Cl       4.87281535       1.38225335       8.43996318       0.00019395      -0.00027308       0.00033447
