9
Lattice="5.970123996912311 1.569909961294848e-07 3.4468526831780393 1.9900414663390678 5.6286868841977915 3.446852707387904 7.548853477901422e-09 3.498875460455861e-08 6.893705353281113" Properties=species:S:1:pos:R:3:forces:R:3 energy=-36.55351638793945 free_energy=-36.55351638793945 stress="0.00023450357548426837 4.904984751696873e-10 -3.1788220944406476e-09 4.904984751696873e-10 0.00023450021399185061 -2.9434723547439035e-09 -3.1788220944406476e-09 -2.9434723547439035e-09 0.0002344994863960892" pbc="T T T"
Cr       1.99004165       1.40717176       3.44685237      -0.00000052      -0.00000060      -0.00000115
Cr       5.97012434       4.22151500      10.34055815       0.00000103      -0.00000032       0.00000029
Sn       0.00000014       0.00000018      -0.00000016      -0.00000022      -0.00000008       0.00000104
Cl       2.01181261       1.42256667       6.89370560      -0.00024335      -0.00017149      -0.00000007
Cl       5.94835255       4.20612042       6.89370540       0.00024411       0.00017306       0.00000005
Cl       4.96421772       1.42256646       5.18913356       0.00012092      -0.00017177      -0.00021100
Cl       2.99594769       4.20612063       8.59827733      -0.00012216       0.00017129       0.00021049
Cl       2.99594773       4.20612081       5.18913358      -0.00012112       0.00017195      -0.00021051
Cl       4.96421753       1.42256637       8.59827725       0.00012134      -0.00017205       0.00021080
