9
Lattice="6.300505545306295 -1.8790089482095312e-07 3.637598471173632 2.1001684517423382 5.940173719592197 3.637598274075118 -5.7675678094777266e-08 -2.8217825080594037e-07 7.275197042244487" Properties=species:S:1:pos:R:3:forces:R:3 energy=-30.19672203063965 free_energy=-30.19672203063965 stress="1.2629343473236077e-06 1.5562123811818651e-09 3.3166445145837997e-09 1.5562123811818651e-09 1.2572384093800792e-06 -4.183906998633802e-09 3.3166445145837997e-09 -4.183906998633802e-09 1.2586287994054146e-06" pbc="T T T"
Cr       2.10016866       1.48504410       3.63759836       0.00000119       0.00000155      -0.00000020
Cr       6.30050513       4.45512761      10.91279352      -0.00000160      -0.00000537      -0.00000506
Se       0.00000023      -0.00000020       0.00000073      -0.00000032       0.00000164      -0.00000477
Br       2.13085120       1.50673978       7.27519714      -0.00057875      -0.00040650       0.00000012
Br       6.26982237       4.43343349       7.27519735       0.00057887       0.00040800       0.00000300
Br       5.23507958       1.50673976       5.48296985       0.00028834      -0.00040766      -0.00050038
Br       3.16559481       4.43343396       9.06742414      -0.00028820       0.00040834       0.00050244
Br       3.16559433       4.43343397       5.48296989      -0.00028998       0.00040786      -0.00050015
Br       5.23507946       1.50674059       9.06742417       0.00029044      -0.00040783       0.00050496
