9
Lattice="5.985348591409768 -7.907676435362242e-09 3.455642746189248 1.9951161925062273 5.643040754440745 3.4556427412960646 -5.911704256513425e-08 -4.779494172455689e-08 6.9112855947722585" Properties=species:S:1:pos:R:3:forces:R:3 energy=-35.88837432861328 free_energy=-35.88837432861328 stress="0.00015097876894287765 -7.280449576541059e-10 1.4043614271486149e-08 -7.280449576541059e-10 0.00015099039592314512 1.2388281511732657e-08 1.4043614271486149e-08 1.2388281511732657e-08 0.0001509690482635051" pbc="T T T"
Cr       1.99511625       1.41076015       3.45564229       0.00000007      -0.00000001      -0.00000189
Cr       5.98534898       4.23228104      10.36692803       0.00000215       0.00000176      -0.00000065
Sb       0.00000012      -0.00000008       0.00000002       0.00000018       0.00000053       0.00000219
Cl       2.01586085       1.42542879       6.91128556       0.00208488       0.00147349       0.00000047
Cl       5.96460367       4.21761239       6.91128612      -0.00208564      -0.00147411       0.00000123
Cl       4.97741829       1.42542880       5.20142968      -0.00104123       0.00147310       0.00180584
Cl       3.00304598       4.21761135       8.62114165       0.00104154      -0.00147557      -0.00180562
Cl       3.00304656       4.21761197       5.20142956       0.00104190      -0.00147404       0.00180605
Cl       4.97741820       1.42542843       8.62114135      -0.00104394       0.00147508      -0.00180772
