9
Lattice="5.985426984791489 -7.093466154244254e-08 3.4556878140382334 1.9951423049155705 5.643114704417824 3.455687738642736 1.9970299313697268e-08 -7.821911427901158e-08 6.9113755934868895" Properties=species:S:1:pos:R:3:forces:R:3 energy=-35.888370513916016 free_energy=-35.888370513916016 stress="0.00015648298722226173 1.8563769188517654e-08 5.9018439024782765e-09 1.8563769188517654e-08 0.00015648202679585665 -1.1036616953674638e-08 5.9018439024782765e-09 -1.1036616953674638e-08 0.0001564568665344268" pbc="T T T"
Cr       1.99514219       1.41077837       3.45568692      -0.00000034       0.00000043      -0.00000374
Cr       5.98542655       4.23233610      10.36706285      -0.00000248      -0.00000006      -0.00000269
Sb       0.00000010      -0.00000001       0.00000019      -0.00000001      -0.00000054       0.00000067
Cl       2.01585175       1.42542173       6.91137563       0.00220175       0.00155449       0.00000239
Cl       5.96471786       4.21769244       6.91137558      -0.00220010      -0.00155486       0.00000108
Cl       4.97750185       1.42542220       5.20146653      -0.00109978       0.00155684       0.00190766
Cl       3.00306794       4.21769236       8.62128515       0.00110227      -0.00155835      -0.00190632
Cl       3.00306785       4.21769257       5.20146653       0.00110003      -0.00155517       0.00190628
Cl       4.97750116       1.42542246       8.62128512      -0.00110140       0.00155728      -0.00190525
