9
Lattice="6.2507633868884565 1.3886586265242694e-07 3.6088799851432336 2.0835879255745264 5.893276464404246 3.608879986838819 8.006270628628229e-08 5.8689524950055075e-08 7.217759831613806" Properties=species:S:1:pos:R:3:forces:R:3 energy=-33.59197998046875 free_energy=-33.59197998046875 stress="0.0001449022674933076 1.070077093601185e-08 4.8338315572493684e-09 1.070077093601185e-08 0.0001448994444217533 -3.5215527716125905e-10 4.8338315572493684e-09 -3.5215527716125905e-10 0.00014486712461803108" pbc="T T T"
Cr       2.08358789       1.47331937       3.60887997       0.00000022       0.00000133      -0.00000018
Cr       6.25076405       4.41995752      10.82664052       0.00000064      -0.00000074       0.00000112
Sn      -0.00000002       0.00000016       0.00000032      -0.00000102      -0.00000362      -0.00000086
Br       2.14065544       1.51367217       7.21775986       0.00250433       0.00177167      -0.00000064
Br       6.19369557       4.37960418       7.21775991      -0.00250078      -0.00176895      -0.00000010
Br       5.18043586       1.51367228       5.46274175      -0.00125358       0.00177156       0.00216994
Br       3.15391553       4.37960430       8.97277754       0.00125078      -0.00177035      -0.00216851
Br       3.15391577       4.37960448       5.46274183       0.00125154      -0.00177124       0.00216857
Br       5.18043545       1.51367218       8.97277757      -0.00125205       0.00177033      -0.00216935
