9
Lattice="3.906497866193487 1.6800882313987128e-08 2.255417763332435 1.3021659109461472 3.6830818494312916 2.2554178677607086 -4.4234666788908764e-08 9.661938334836371e-08 4.5108356032815555" Properties=species:S:1:pos:R:3:forces:R:3 energy=-46.81086730957031 free_energy=-46.81086730957031 stress="-5.085222710476955e-06 1.6966490079539653e-07 1.1496855734094424e-07 1.6966490079539653e-07 -4.339467068348313e-06 2.235788088000845e-08 1.1496855734094424e-07 2.235788088000845e-08 -4.917411843052832e-06" pbc="T T T"
Cr       1.30216597       0.92077043       2.25541778      -0.00000923       0.00001164       0.00000120
Cr       3.90649776       2.76231167       6.76625326       0.00001333      -0.00002392       0.00000004
S       -0.00000017      -0.00000017       0.00000007      -0.00000103       0.00000313       0.00000227
F        1.28731412       0.91026872       4.51083567      -0.00001842      -0.00000048      -0.00000033
F        3.92134968       2.77281329       4.51083586       0.00001219       0.00000009      -0.00000272
F        3.26284057       0.91026876       3.37026493       0.00001414       0.00000486      -0.00001281
F        1.94582324       2.77281308       5.65140625      -0.00001135       0.00000167       0.00000539
F        1.94582310       2.77281332       3.37026477      -0.00000761      -0.00000027      -0.00000417
F        3.26284071       0.91026879       5.65140634       0.00000778       0.00000283       0.00001130
