9
Lattice="6.750523961412097 -7.429719890723158e-08 3.8974169036854143 2.2501746268138527 6.364454976748071 3.8974168291069575 5.590992981531809e-08 -5.180534341151103e-08 7.794833710532033" Properties=species:S:1:pos:R:3:forces:R:3 energy=-27.3865966796875 free_energy=-27.3865966796875 stress="0.00017666725034359843 3.4691474692927216e-10 4.05480582443829e-09 3.4691474692927216e-10 0.00017666710482444614 7.346629971038965e-10 4.05480582443829e-09 7.346629971038965e-10 0.000176670218934305" pbc="T T T"
Cr       2.25017466       1.59111372       3.89741684      -0.00000041      -0.00000079       0.00000028
Cr       6.75052401       4.77334111      11.69225066       0.00000040       0.00000044      -0.00000053
Se      -0.00000022       0.00000010      -0.00000011       0.00000023      -0.00000015       0.00000011
I        2.36857900       1.67483808       7.79483374      -0.00594878      -0.00420659       0.00000006
I        6.63211962       4.68961663       7.79483362       0.00594934       0.00420680       0.00000017
I        5.56623449       1.67483822       5.94866638       0.00297421      -0.00420677      -0.00515198
I        3.43446417       4.68961665       9.64100110      -0.00297469       0.00420682       0.00515219
I        3.43446425       4.68961661       5.94866644      -0.00297500       0.00420668      -0.00515248
I        5.56623454       1.67483827       9.64100115       0.00297474      -0.00420647       0.00515220
