9
Lattice="6.052949957869974 -4.993833817238102e-09 3.4946723746440735 2.017649991334753 5.706776199565534 3.494672357174144 1.134984321983195e-09 -2.0593701382840422e-08 6.98934474732234" Properties=species:S:1:pos:R:3:forces:R:3 energy=-45.99043273925781 free_energy=-45.99043273925781 stress="-0.0001840931217884645 -2.5559852900869373e-08 9.96558568999717e-09 -2.5559852900869373e-08 -0.00018406411982141435 -7.852389849460906e-09 9.96558568999717e-09 -7.852389849460906e-09 -0.00018407781317364424" pbc="T T T"
Cr       2.01765055       1.42669436       3.49467288       0.00000154       0.00000027       0.00000208
Cr       6.05294954       4.28008304      10.48401840      -0.00000213       0.00000355       0.00000360
Ta      -0.00000017      -0.00000032      -0.00000029       0.00000077       0.00000600       0.00000411
Cl       1.94941577       1.37844442       6.98934436       0.00313556       0.00221735      -0.00000054
Cl       6.12118439       4.32833086       6.98934469      -0.00313812      -0.00221956      -0.00000188
Cl       5.07824159       1.37844481       5.18291574      -0.00156707       0.00221664       0.00271255
Cl       2.99235828       4.32833133       8.79577306       0.00156793      -0.00221980      -0.00271851
Cl       2.99235806       4.32833098       5.18291531       0.00156879      -0.00221872       0.00271457
Cl       5.07824191       1.37844524       8.79577367      -0.00156751       0.00221425      -0.00271583
