9
Lattice="6.053405412577588 -1.537506709018366e-07 3.494935330004398 2.017801773738298 5.707205069889959 3.4949351316788593 2.2491334118763182e-07 -8.386045945475242e-08 6.989870270447453" Properties=species:S:1:pos:R:3:forces:R:3 energy=-45.99044418334961 free_energy=-45.99044418334961 stress="-0.00015310660819523036 -7.226640175161947e-09 1.5804378250550144e-08 -7.226640175161947e-09 -0.00015309630543924868 -1.80783690240105e-08 1.5804378250550144e-08 -1.80783690240105e-08 -0.00015310157323256135" pbc="T T T"
Cr       2.01780240       1.42680147       3.49493579       0.00000203       0.00000147       0.00000149
Cr       6.05340624       4.28040340      10.48480687       0.00000202      -0.00000105       0.00000426
Ta       0.00000004       0.00000026      -0.00000047      -0.00000082      -0.00000550       0.00000618
Cl       1.94944972       1.37846837       6.98986985       0.00263321       0.00186282      -0.00000068
Cl       6.12175820       4.32873604       6.98987041      -0.00263160      -0.00185937      -0.00000088
Cl       5.07868043       1.37846921       5.18320733      -0.00131604       0.00186098       0.00227737
Cl       2.99252564       4.32873619       8.79653291       0.00131539      -0.00186265      -0.00228208
Cl       2.99252653       4.32873572       5.18320770       0.00131318      -0.00185782       0.00227422
Cl       5.07868049       1.37846863       8.79653256      -0.00131744       0.00186080      -0.00228006
