9
Lattice="6.319518436898779 1.7332340815179272e-07 3.648575720969261 2.106506242209055 5.958099420002671 3.6485758367304104 8.981647582192067e-08 2.052877252486962e-07 7.297151286371812" Properties=species:S:1:pos:R:3:forces:R:3 energy=-42.59135818481445 free_energy=-42.59135818481445 stress="8.147507287503686e-06 6.047353906524222e-08 1.0552839491140276e-08 6.047353906524222e-08 8.101152161543723e-06 -3.027698625146513e-08 1.0552839491140276e-08 -3.027698625146513e-08 8.035653081606142e-06" pbc="T T T"
Cr       2.10650626       1.48952517       3.64857586      -0.00000012       0.00000021       0.00000044
Cr       6.31951847       4.46857496      10.94572697      -0.00000013       0.00000060       0.00000033
Ta      -0.00000018       0.00000000      -0.00000028      -0.00000186       0.00000064       0.00000777
Br       2.07021392       1.46386222       7.29715128      -0.00024134      -0.00016993       0.00000008
Br       6.35581084       4.49423748       7.29715161       0.00024271       0.00017184      -0.00000064
Br       5.28441175       1.46386217       5.44143316       0.00011843      -0.00016695      -0.00020513
Br       3.14161290       4.49423769       9.15286983      -0.00011569       0.00016227       0.00019938
Br       3.14161304       4.49423745       5.44143338      -0.00011989       0.00016850      -0.00020647
Br       5.28441205       1.46386218       9.15286968       0.00011799      -0.00016710       0.00020459
