9
Lattice="4.709620465889445 -9.661659742088353e-08 2.7191008113907076 1.5698734104441483 4.440272430067775 2.7191007890380217 -1.010685409761788e-07 -9.8842626975325e-08 5.43820179783728" Properties=species:S:1:pos:R:3:forces:R:3 energy=-57.04423904418945 free_energy=-57.04423904418945 stress="-5.278898242977448e-05 -3.576505136493324e-08 3.2535286464963065e-08 -3.576505136493324e-08 -5.297815005178563e-05 -1.154142470483066e-08 3.2535286464963065e-08 -1.154142470483066e-08 -5.2850893553113565e-05" pbc="T T T"
Cr       1.56987343       1.11006786       2.71910095       0.00000006      -0.00000229       0.00000120
Cr       4.70962045       3.33020430       8.15730260       0.00000067       0.00000032       0.00000018
Ta      -0.00000019      -0.00000056       0.00000003       0.00000163       0.00000601      -0.00000282
F        1.58690931       1.12211444       5.43820170       0.00116134       0.00082129       0.00000031
F        4.69258413       3.31815806       5.43820152      -0.00116503      -0.00082344      -0.00000085
F        3.91616552       1.12211436       4.09340492      -0.00058103       0.00082099       0.00100625
F        2.36332839       3.31815830       6.78299829       0.00058067      -0.00081974      -0.00100648
F        2.36332832       3.31815797       4.09340515       0.00058055      -0.00082147       0.00100648
F        3.91616594       1.12211437       6.78299876      -0.00057900       0.00081831      -0.00100458
