9
Lattice="6.057205798818008 -6.242763858933141e-08 3.4971295665985953 2.0190685732120586 5.710788387506443 3.497129510370342 -4.062744574105347e-09 -7.173806720924014e-08 6.994259140234066" Properties=species:S:1:pos:R:3:forces:R:3 energy=-33.701229095458984 free_energy=-33.701229095458984 stress="0.0001096180931199342 -6.696708965137077e-09 4.094653949238136e-09 -6.696708965137077e-09 0.00010962670057779178 -1.541861216480811e-08 4.094653949238136e-09 -1.541861216480811e-08 0.00010963618115056306" pbc="T T T"
Cr       2.01906922       1.42769655       3.49712907       0.00000164      -0.00000098      -0.00000159
Cr       6.05720551       4.28309113      10.49138833       0.00000003      -0.00000003      -0.00000155
Te       0.00000007       0.00000019       0.00000034       0.00000039       0.00000051      -0.00000251
Cl       2.04420433       1.44547077       6.99425978       0.00085546       0.00060523       0.00000139
Cl       6.03206995       4.26531749       6.99425952      -0.00085638      -0.00060520       0.00000045
Cl       5.03510355       1.44547052       5.26746267      -0.00042815       0.00060454       0.00074229
Cl       3.04117098       4.26531815       8.72105494       0.00042745      -0.00060375      -0.00074057
Cl       3.04117107       4.26531699       5.26746217       0.00042768      -0.00060469       0.00074059
Cl       5.03510277       1.44547125       8.72105594      -0.00042813       0.00060439      -0.00073844
