9
Lattice="6.319645244160898 1.330655922491093e-08 3.648648884337339 2.1065483402075906 5.958218808297455 3.6486490351266827 -9.154799667120315e-08 1.199442329117145e-07 7.29729792724047" Properties=species:S:1:pos:R:3:forces:R:3 energy=-42.59136199951172 free_energy=-42.59136199951172 stress="1.5807569070602767e-05 -2.261585940743771e-08 2.9814162250119125e-09 -2.261585940743771e-08 1.5822941350052133e-05 -3.919256919004965e-09 2.9814162250119125e-09 -3.919256919004965e-09 1.583047014719341e-05" pbc="T T T"
Cr       2.10654862       1.48955484       3.64864880       0.00000037      -0.00000010       0.00000019
Cr       6.31964505       4.46866370      10.94594702      -0.00000024      -0.00000096      -0.00000024
Ta      -0.00000025      -0.00000003       0.00000043       0.00000235       0.00000200       0.00000432
Br       2.07022836       1.46387276       7.29729770      -0.00034225      -0.00024170       0.00000098
Br       6.35596501       4.49434610       7.29729779       0.00033963       0.00024083       0.00000047
Br       5.28453086       1.46387335       5.44151953       0.00017309      -0.00024399      -0.00029901
Br       3.14166231       4.49434656       9.15307622      -0.00017035       0.00023985       0.00029582
Br       3.14166286       4.49434571       5.44151955      -0.00017279       0.00024447      -0.00029874
Br       5.28453112       1.46387284       9.15307641       0.00017011      -0.00024059       0.00029638
