9
Lattice="6.918023045541956 -1.0320690084146177e-07 3.9941224568727316 2.3060075979851575 6.522374492032271 3.9941224335900634 -3.030283351265577e-08 -4.9942675813486656e-08 7.988244966231518" Properties=species:S:1:pos:R:3:forces:R:3 energy=-27.727802276611328 free_energy=-27.727802276611328 stress="-5.1025126595050097e-05 -2.045881908330216e-09 -2.1909041247880623e-09 -2.045881908330216e-09 -5.103382864035666e-05 1.5859336066625929e-09 -2.1909041247880623e-09 1.5859336066625929e-09 -5.103208604850806e-05" pbc="T T T"
Cr       2.30600769       1.63059361       3.99412262       0.00000013       0.00000031       0.00000022
Cr       6.91802303       4.89178083      11.98236722       0.00000023      -0.00000020       0.00000004
Te       0.00000005      -0.00000025       0.00000025       0.00000005       0.00000197      -0.00000121
I        2.41958705       1.71090654       7.98824495       0.00047914       0.00033842       0.00000019
I        6.80444373       4.81146792       7.98824496      -0.00048102      -0.00034005      -0.00000003
I        5.70822928       1.71090634       6.08954621      -0.00023941       0.00033923       0.00041582
I        3.51580127       4.81146798       9.88694346       0.00023999      -0.00033915      -0.00041578
I        3.51580081       4.81146813       6.08954625       0.00024022      -0.00033936       0.00041646
I        5.70822950       1.71090626       9.88694342      -0.00023933       0.00033885      -0.00041569
