9
Lattice="4.90120703847483 3.2832785000025005e-07 2.8297136133771947 1.633735817439969 4.62090336239514 2.829713910600701 -1.9021885712974496e-07 2.2951800306248058e-07 5.659427556223079" Properties=species:S:1:pos:R:3:forces:R:3 energy=-44.61564636230469 free_energy=-44.61564636230469 stress="-7.496974831155967e-06 -8.700426690211316e-08 -2.7634014188038236e-08 -8.700426690211316e-08 -7.690523489145562e-06 -1.978224339893586e-08 -2.7634014188038236e-08 -1.978224339893586e-08 -7.699333764321636e-06" pbc="T T T"
Cr       1.63373527       1.15522616       2.82971383      -0.00000090       0.00000163       0.00000045
Cr       4.90120743       3.46567747       8.48914196       0.00000093      -0.00000085       0.00000039
Te      -0.00000020       0.00000036      -0.00000018      -0.00000039      -0.00000392       0.00000006
F        1.68985423       1.19490830       5.65942768       0.00092828       0.00065739       0.00000031
F        4.84508885       3.42599518       5.65942729      -0.00092752      -0.00065665      -0.00000098
F        4.05627977       1.19490850       4.29317088      -0.00046415       0.00065714       0.00080416
F        2.47866285       3.42599579       7.02568457       0.00046361      -0.00065538      -0.00080337
F        2.47866282       3.42599580       4.29317087       0.00046373      -0.00065471       0.00080298
F        4.05627946       1.19490830       7.02568364      -0.00046361       0.00065553      -0.00080378
