9
Lattice="6.9238327510744595 8.861703968648717e-08 3.997476670075205 2.3079443270210684 6.527852112571526 3.997476682002206 -1.8900577700846246e-08 1.2428015298948234e-09 7.994953372887185" Properties=species:S:1:pos:R:3:forces:R:3 energy=-38.183837890625 free_energy=-38.183837890625 stress="-8.323913789354265e-05 1.882382605344901e-08 5.9002771557459255e-09 1.882382605344901e-08 -8.325615635840222e-05 -4.414070220448707e-10 5.9002771557459255e-09 -4.414070220448707e-10 -8.328186959261075e-05" pbc="T T T"
Cr       2.30794435       1.63196338       3.99747667       0.00000027       0.00000022      -0.00000047
Cr       6.92383280       4.89588925      11.99243005      -0.00000011       0.00000001      -0.00000021
Ta      -0.00000015      -0.00000033       0.00000028       0.00000170       0.00000194      -0.00000055
I        2.26248075       1.59981560       7.99495340       0.00157753       0.00111547       0.00000008
I        6.96929654       4.92803674       7.99495333      -0.00158006      -0.00111744       0.00000042
I        5.79259238       1.59981519       5.95684213      -0.00079089       0.00111832       0.00137052
I        3.43918468       4.92803675      10.03306450       0.00079100      -0.00111836      -0.00137021
I        3.43918463       4.92803689       5.95684204       0.00079072      -0.00111815       0.00137019
I        5.79259227       1.59981534      10.03306448      -0.00079020       0.00111803      -0.00136973
