9
Lattice="6.181314224565775 6.600615365089033e-08 3.568783446765614 2.06043814157619 5.8277989915949275 3.5687834389892044 9.955992154823836e-08 6.08753177556902e-08 7.137566721088374" Properties=species:S:1:pos:R:3:forces:R:3 energy=-39.87800216674805 free_energy=-39.87800216674805 stress="0.00023537041852250695 1.2985568176304696e-08 6.445163958090916e-09 1.2985568176304696e-08 0.0002353694144403562 -2.695038636701952e-10 6.445163958090916e-09 -2.695038636701952e-10 0.00023534754291176796" pbc="T T T"
Cr       2.06043819       1.45695001       3.56878352      -0.00000040       0.00000021       0.00000046
Cr       6.18131428       4.37084957      10.70635082       0.00000003       0.00000093       0.00000252
Ti       0.00000019      -0.00000015       0.00000035      -0.00000030       0.00000027      -0.00000361
Br       2.04001106       1.44250562       7.13756652       0.00019921       0.00014021      -0.00000042
Br       6.20174102       4.38529334       7.13756674      -0.00019835      -0.00014028      -0.00000061
Br       5.16130890       1.44250568       5.33548451      -0.00010091       0.00014228       0.00017410
Br       3.08044361       4.38529336       8.93964875       0.00009985      -0.00014147      -0.00017347
Br       3.08044366       4.38529342       5.33548448       0.00010054      -0.00014292       0.00017430
Br       5.16130893       1.44250562       8.93964879      -0.00009958       0.00014073      -0.00017326
