9
Lattice="6.9240105928978695 -9.535019217173372e-08 3.9975794969469547 2.3080034563745917 6.528019862391871 3.997579470436845 1.2398120191884359e-08 -2.370132929352012e-08 7.995158972419725" Properties=species:S:1:pos:R:3:forces:R:3 energy=-38.183837890625 free_energy=-38.183837890625 stress="-7.509494753321633e-05 -4.831300914887038e-10 2.3694433082255273e-09 -4.831300914887038e-10 -7.508710405090824e-05 -4.395996011652414e-09 2.3694433082255273e-09 -4.395996011652414e-09 -7.508504495490342e-05" pbc="T T T"
Cr       2.30800359       1.63200492       3.99757926       0.00000023       0.00000016       0.00000020
Cr       6.92401056       4.89601486      11.99273866      -0.00000005      -0.00000022       0.00000032
Ta       0.00000018       0.00000026       0.00000038       0.00000043      -0.00000240      -0.00000230
I        2.26249804       1.59982777       7.99515896       0.00146352       0.00103481       0.00000003
I        6.96951563       4.92819189       7.99515879      -0.00146310      -0.00103450      -0.00000032
I        5.79276139       1.59982773       5.95696043      -0.00073253       0.00103566       0.00126818
I        3.43925277       4.92819202      10.03335731       0.00073108      -0.00103356      -0.00126611
I        3.43925266       4.92819176       5.95696064       0.00073157      -0.00103427       0.00126667
I        5.79276144       1.59982778      10.03335739      -0.00073120       0.00103436      -0.00126670
