9
Lattice="6.796536024506848 -3.477868678283901e-08 3.923981914626846 2.265511977159395 6.407835540619532 3.9239819115435854 1.4445513121016781e-08 6.438359166508297e-09 7.847963804233323" Properties=species:S:1:pos:R:3:forces:R:3 energy=-35.632469177246094 free_energy=-35.632469177246094 stress="4.669135159929283e-05 -1.0984076759257277e-08 -2.2505703967112822e-09 -1.0984076759257277e-08 4.6700301027158275e-05 1.1541936295600408e-09 -2.2505703967112822e-09 1.1541936295600408e-09 4.6717239456484094e-05" pbc="T T T"
Cr       2.26551201       1.60195870       3.92398196       0.00000014       0.00000028      -0.00000016
Cr       6.79653584       4.80587679      11.77194550      -0.00000001       0.00000043       0.00000023
Ti      -0.00000004      -0.00000004       0.00000054       0.00000124       0.00000085      -0.00000596
I        2.23577917       1.58093455       7.84796412      -0.00082153      -0.00058091      -0.00000061
I        6.82626900       4.82690117       7.84796394       0.00081966       0.00057918      -0.00000092
I        5.67864645       1.58093419       5.86022306       0.00040992      -0.00057934      -0.00071073
I        3.38340184       4.82690072       9.83570393      -0.00041237       0.00058351       0.00071447
I        3.38340150       4.82690128       5.86022322      -0.00040942       0.00057918      -0.00070994
I        5.67864628       1.58093468       9.83570422       0.00041232      -0.00058321       0.00071359
