9
Lattice="4.736497465017561 -1.7136360293547185e-07 2.734617818704153 1.5788324301633927 4.465611946245496 2.7346176396319675 1.0285470048154441e-07 -1.4658848396165572e-07 5.469235459258726" Properties=species:S:1:pos:R:3:forces:R:3 energy=-53.730323791503906 free_energy=-53.730323791503906 stress="0.0001520122605143115 -8.166725251612661e-08 4.600413827660077e-09 -8.166725251612661e-08 0.00015210478159133345 2.760645489985336e-09 4.600413827660077e-09 2.760645489985336e-09 0.00015212509606499225" pbc="T T T"
Cr       1.57883176       1.11640255       2.73461784      -0.00000188      -0.00000093       0.00000106
Cr       4.73649671       3.34920857       8.20385316      -0.00000230      -0.00000084       0.00000083
V        0.00000015      -0.00000008      -0.00000001       0.00000194       0.00000423      -0.00000447
F        1.56345170       1.10552695       5.46923545       0.00130805       0.00092344       0.00000032
F        4.75187853       3.36008466       5.46923554      -0.00131024      -0.00092673      -0.00000087
F        3.95477178       1.10552709       4.08860635      -0.00065126       0.00092274       0.00112966
F        2.36055857       3.36008492       6.84986460       0.00065321      -0.00092150      -0.00112896
F        2.36055853       3.36008485       4.08860635       0.00065380      -0.00092217       0.00113092
F        3.95477219       1.10552696       6.84986439      -0.00065113       0.00092166      -0.00112852
