9
Lattice="6.631200946620444 6.404608819541576e-08 3.828525631234415 2.2104003446799436 6.251956265841355 3.82852568534966 -6.588306158861106e-08 1.9691003786093577e-08 7.657051376581644" Properties=species:S:1:pos:R:3:forces:R:3 energy=-35.65200424194336 free_energy=-35.65200424194336 stress="0.00023108742607291788 -8.634652992611791e-10 -6.346853709260358e-09 -8.634652992611791e-10 0.00023108992900233716 7.07075020756065e-09 -6.346853709260358e-09 7.07075020756065e-09 0.00023108854657039046" pbc="T T T"
Cr       2.21040026       1.56298908       3.82852571       0.00000086       0.00000046      -0.00000010
Cr       6.63120025       4.68896760      11.48557683      -0.00000133       0.00000081      -0.00000094
V        0.00000006       0.00000010       0.00000016       0.00000106      -0.00000289      -0.00000113
I        2.18928913       1.54806086       7.65705137       0.00016013       0.00011246      -0.00000045
I        6.65231229       4.70389530       7.65705133      -0.00015832      -0.00011287       0.00000021
I        5.53655653       1.54806096       5.72450549      -0.00007981       0.00011243       0.00013816
I        3.30504513       4.70389527       9.58959722       0.00007809      -0.00011066      -0.00013451
I        3.30504481       4.70389527       5.72450535       0.00007972      -0.00011345       0.00013731
I        5.53655639       1.54806095       9.58959724      -0.00008045       0.00011366      -0.00013860
