9
Lattice="6.11972135675495 -6.932990459720665e-08 3.5332228264062144 2.039907115209826 5.769728529113414 3.533222719614248 -8.968907938833143e-09 -1.371349106313675e-07 7.066445668347067" Properties=species:S:1:pos:R:3:forces:R:3 energy=-39.622802734375 free_energy=-39.622802734375 stress="0.0002595289552118629 1.6443830741508236e-09 6.264770036068512e-09 1.6443830741508236e-09 0.0002595361147541553 4.122153285379682e-09 6.264770036068512e-09 4.122153285379682e-09 0.00025952429859898984" pbc="T T T"
Cr       2.03990651       1.44243252       3.53322278      -0.00000124       0.00000044      -0.00000064
Cr       6.11972154       4.32729635      10.59966842      -0.00000043       0.00000020       0.00000012
V       -0.00000002      -0.00000024       0.00000003      -0.00000076       0.00000123       0.00000220
Br       2.01848896       1.42728686       7.06644566      -0.00058233      -0.00041189       0.00000026
Br       6.14113987       4.34244135       7.06644552       0.00058239       0.00041068       0.00000075
Br       5.11047707       1.42728694       5.28128517       0.00029230      -0.00041217      -0.00050391
Br       3.04915133       4.34244134       8.85160594      -0.00028954       0.00040961       0.00050226
Br       3.04915163       4.34244147       5.28128526      -0.00029138       0.00041208      -0.00050379
Br       5.11047697       1.42728669       8.85160603       0.00029102      -0.00041012       0.00050274
