9
Lattice="6.757805993586846 -6.320508991908037e-08 3.9016211562439755 2.2526019785220717 6.371320668866534 3.901621086528711 2.650343059110445e-08 -6.664268869592366e-08 7.803242266582672" Properties=species:S:1:pos:R:3:forces:R:3 energy=-37.4494743347168 free_energy=-37.4494743347168 stress="0.00012411855277605355 -2.0220442209506473e-08 5.436288752491691e-09 -2.0220442209506473e-08 0.00012414301454555243 -4.543888376673522e-09 5.436288752491691e-09 -4.543888376673522e-09 0.0001241604913957417" pbc="T T T"
Cr       2.25260204       1.59282980       3.90162119      -0.00000025      -0.00000051      -0.00000005
Cr       6.75780586       4.77849047      11.70486321       0.00000037      -0.00000005       0.00000046
W       -0.00000016      -0.00000020      -0.00000011       0.00000172       0.00000095       0.00000012
I        2.23049121       1.57719537       7.80324227      -0.00249855      -0.00176720       0.00000016
I        6.77991700       4.79412532       7.80324224       0.00249740       0.00176753      -0.00000013
I        5.64256047       1.57719560       5.83328321       0.00125001      -0.00176899      -0.00216673
I        3.36784759       4.79412522       9.77320144      -0.00125062       0.00176883       0.00216605
I        3.36784751       4.79412499       5.83328332      -0.00125044       0.00176895      -0.00216653
I        5.64256048       1.57719558       9.77320129       0.00125040      -0.00176941       0.00216667
