9
Lattice="5.012844870614764 1.8540662327711125e-07 2.8941671823949267 1.6709483903131583 4.726155737007838 2.894167311770122 -4.994310394378335e-08 1.2313650930004397e-07 5.788334451293856" Properties=species:S:1:pos:R:3:forces:R:3 energy=-51.91499328613281 free_energy=-51.91499328613281 stress="-6.47448468953371e-05 1.9919275118240876e-08 5.978194050904051e-10 1.9919275118240876e-08 -6.472306267824024e-05 2.9441745041935974e-08 5.978194050904051e-10 2.9441745041935974e-08 -6.481208401964977e-05" pbc="T T T"
Cr       1.67094856       1.18153905       2.89416798       0.00000058       0.00000141      -0.00000016
Cr       5.01284514       3.54461802       8.68250208      -0.00000002       0.00000106       0.00000013
W       -0.00000005       0.00000024      -0.00000019      -0.00000061      -0.00000379      -0.00001017
F        1.64545306       1.16351080       5.78833470       0.00355655       0.00251411      -0.00000085
F        5.03834054       3.56264474       5.78833415      -0.00355446      -0.00251310      -0.00000016
F        4.19011880       1.16351067       4.31917146      -0.00178078       0.00251645       0.00308312
F        2.49367474       3.56264479       7.25749729       0.00177539      -0.00251059      -0.00307600
F        2.49367426       3.56264462       4.31917088       0.00178008      -0.00251780       0.00308208
F        4.19011781       1.16351149       7.25749795      -0.00177667       0.00251211      -0.00307781
