9
Lattice="7.0218229377527 -6.857145609380173e-09 4.0540513739186785 2.3406076247351773 6.620238109735143 4.0540513994100245 -3.0582627149559946e-08 9.595179477842166e-09 8.108102800808034" Properties=species:S:1:pos:R:3:forces:R:3 energy=-36.074440002441406 free_energy=-36.074440002441406 stress="-5.613308894680813e-05 -1.5502804373568324e-08 2.4864432734972297e-09 -1.5502804373568324e-08 -5.611452797893435e-05 -3.556190897313627e-09 2.4864432734972297e-09 -3.556190897313627e-09 -5.611336018773727e-05" pbc="T T T"
Cr       2.34060746       1.65505927       4.05405140       0.00000000       0.00000045       0.00000003
Cr       7.02182270       4.96517900      12.16215414      -0.00000021       0.00000022      -0.00000002
Y       -0.00000005      -0.00000015       0.00000025      -0.00000065       0.00000054      -0.00000262
I        2.43281392       1.72025895       8.10810287      -0.00192808      -0.00136342      -0.00000043
I        6.92961686       4.89997929       8.10810282       0.00192703       0.00136343      -0.00000060
I        5.80541607       1.72025891       6.16093001       0.00096358      -0.00136395      -0.00167059
I        3.55701470       4.89997887      10.05527551      -0.00096367       0.00136550       0.00167047
I        3.55701435       4.89997911       6.16092988      -0.00096283       0.00136218      -0.00166926
I        5.80541612       1.72025924      10.05527542       0.00096484      -0.00136494       0.00167298
