9
Lattice="6.057045185362907 -1.1672065067235723e-07 3.497036700983158 2.0190149515812723 5.710636616532038 3.4970367012621373 -1.4270060216605484e-08 -9.748773043533433e-09 6.994073426682799" Properties=species:S:1:pos:R:3:forces:R:3 energy=-42.9717903137207 free_energy=-42.9717903137207 stress="0.0002417407085886225 -1.0592207999593484e-08 1.8482008146136764e-09 -1.0592207999593484e-08 0.00024174949794542044 -9.74051728164227e-10 1.8482008146136764e-09 -9.74051728164227e-10 0.00024174177087843418" pbc="T T T"
Cr       2.01901494       1.42765884       3.49703622      -0.00000015      -0.00000104      -0.00000246
Cr       6.05704537       4.28297660      10.49110931       0.00000162      -0.00000305      -0.00000582
Y        0.00000018       0.00000005       0.00000014       0.00000143       0.00000401       0.00000550
Cl       2.09904669       1.48425056       6.99407349      -0.00027521      -0.00019196       0.00000105
Cl       5.97701301       4.22638643       6.99407363       0.00027266       0.00019241       0.00000232
Cl       5.00752167       1.48425005       5.31486490       0.00013850      -0.00019613      -0.00023852
Cl       3.06853870       4.22638648       8.67328226      -0.00013621       0.00019242       0.00023722
Cl       3.06853839       4.22638667       5.31486506      -0.00013922       0.00019548      -0.00023779
Cl       5.00752147       1.48425027       8.67328236       0.00013662      -0.00019215       0.00023843
