9
Lattice="6.436297158233774 1.0563999551760732e-07 3.7159979682110715 2.1454324772216715 6.068199369226142 3.7159979828548817 -2.3681021208222896e-09 1.626037815876455e-08 7.431995940523827" Properties=species:S:1:pos:R:3:forces:R:3 energy=-40.02719497680664 free_energy=-40.02719497680664 stress="0.00020531548943836242 4.097498784716436e-09 -8.355494629519455e-10 4.097498784716436e-09 0.00020530828624032438 9.433246184187283e-09 -8.355494629519455e-10 9.433246184187283e-09 0.0002053233329206705" pbc="T T T"
Cr       2.14543223       1.51704974       3.71599770      -0.00000106      -0.00000083      -0.00000104
Cr       6.43629739       4.55114972      11.14799363       0.00000103       0.00000103      -0.00000016
Y       -0.00000008      -0.00000009      -0.00000012      -0.00000018      -0.00000163      -0.00000270
Br       2.22895513       1.57610924       7.43199623      -0.00108758      -0.00076931       0.00000092
Br       6.35277469       4.49209012       7.43199634       0.00108755       0.00076966      -0.00000049
Br       5.32181957       1.57610918       5.64632987       0.00054380      -0.00076842      -0.00094138
Br       3.25991001       4.49209029       9.21766209      -0.00054464       0.00077033       0.00094318
Br       3.25990981       4.49209036       5.64632970      -0.00054356       0.00076896      -0.00094166
Br       5.32181978       1.57610952       9.21766206       0.00054461      -0.00076981       0.00094332
