9
Lattice="5.116848300520752 -6.748139095264129e-08 2.954213667645508 1.7056160362939272 4.824210427221101 2.954213668091623 -2.199792770114654e-07 -1.550024491799402e-07 5.908427716306335" Properties=species:S:1:pos:R:3:forces:R:3 energy=-54.7313346862793 free_energy=-54.7313346862793 stress="0.00029154590447433293 4.393586650053294e-08 -4.4575451663142474e-10 4.393586650053294e-08 0.0002915067598223686 3.4432730000588663e-09 -4.4575451663142474e-10 3.4432730000588663e-09 0.0002915315271820873" pbc="T T T"
Cr       1.70561656       1.20605239       2.95421281       0.00000229      -0.00000077      -0.00000233
Cr       5.11684756       3.61815698       8.86264013      -0.00000161      -0.00000166      -0.00000352
Y        0.00000015       0.00000004      -0.00000033      -0.00000276      -0.00000455       0.00000478
F        1.75157211       1.23854850       5.90842824       0.00460897       0.00325932       0.00000129
F        5.07089152       3.58566232       5.90842835      -0.00460609      -0.00325546       0.00000210
F        4.24106258       1.23854808       4.47111992      -0.00230332       0.00325853       0.00399325
F        2.58140205       3.58566214       7.34573517       0.00230474      -0.00325967      -0.00399292
F        2.58140224       3.58566151       4.47111910       0.00230484      -0.00325986       0.00398974
F        4.24106154       1.23854918       7.34573642      -0.00230707       0.00326420      -0.00399246
