9
Lattice="6.972041241654374 -2.0220820017313448e-08 4.025309917827963 2.324013730291109 6.573303473374778 4.025309914125985 1.7525144175276064e-08 7.858146909724303e-09 8.050619805301476" Properties=species:S:1:pos:R:3:forces:R:3 energy=-37.12645721435547 free_energy=-37.12645721435547 stress="-0.00012234422320034355 1.3099305640196235e-08 -4.2716048476165724e-09 1.3099305640196235e-08 -0.00012234544556122273 7.190686268643276e-09 -4.2716048476165724e-09 7.190686268643276e-09 -0.00012235679605510086" pbc="T T T"
Cr       2.32401360       1.64332603       4.02531004      -0.00000060       0.00000063       0.00000027
Cr       6.97204137       4.92997750      12.07592946       0.00000088      -0.00000019      -0.00000036
Zr       0.00000031      -0.00000006       0.00000029      -0.00000292      -0.00000204      -0.00000340
I        2.32861438       1.64657904       8.05061993       0.00166556       0.00117739      -0.00000052
I        6.96744025       4.92672412       8.05062009      -0.00166138      -0.00117485      -0.00000026
I        5.80773397       1.64657901       6.04194934      -0.00083378       0.00117793       0.00144237
I        3.48832117       4.92672416      10.05929010       0.00083089      -0.00117589      -0.00144008
I        3.48832097       4.92672463       6.04194919       0.00083299      -0.00117881       0.00144266
I        5.80773393       1.64657944      10.05929010      -0.00083166       0.00117583      -0.00144069
