9
Lattice="6.355851507824846 3.0343466102797467e-09 3.669552630456858 2.118617183984442 5.992354043563024 3.669552609934338 -2.2959187029184878e-08 -4.136941881270536e-08 7.339105300680163" Properties=species:S:1:pos:R:3:forces:R:3 energy=-41.25757598876953 free_energy=-41.25757598876953 stress="0.00020948458404745907 1.136140426183374e-08 1.063707455450924e-09 1.136140426183374e-08 0.00020946547738276422 -5.946235059894889e-09 1.063707455450924e-09 -5.946235059894889e-09 0.00020947122538927943" pbc="T T T"
Cr       2.11861731       1.49808870       3.66955263       0.00000003       0.00000041      -0.00000036
Cr       6.35585170       4.49426550      11.00865778       0.00000028       0.00000056      -0.00000071
Zr      -0.00000022       0.00000014       0.00000006       0.00000069       0.00000013      -0.00000027
Br       2.13760080       1.51151179       7.33910555      -0.00162607      -0.00114962       0.00000007
Br       6.33686809       4.48084244       7.33910521       0.00162357       0.00114745      -0.00000047
Br       5.28705117       1.51151149       5.52076889       0.00081155      -0.00114691      -0.00140543
Br       3.18741742       4.48084210       9.15744139      -0.00081132       0.00114848       0.00140686
Br       3.18741725       4.48084194       5.52076929      -0.00081195       0.00114734      -0.00140661
Br       5.28705116       1.51151196       9.15744135       0.00081324      -0.00114781       0.00140694
