9
Lattice="6.008195555860718 1.012935443146723e-07 3.4688332643857125 2.0027319156412076 5.664580975702251 3.468833319487131 -4.9462056978262155e-08 3.251022027507363e-08 6.937666614442201" Properties=species:S:1:pos:R:3:forces:R:3 energy=-44.69435119628906 free_energy=-44.69435119628906 stress="0.00015502945461776108 1.4001102499605622e-08 2.078511940339922e-08 1.4001102499605622e-08 0.00015500650624744594 -2.195842796481884e-08 2.078511940339922e-08 -2.195842796481884e-08 0.00015500989684369415" pbc="T T T"
Cr       2.00273212       1.41614485       3.46883331       0.00000008      -0.00000129      -0.00000036
Cr       6.00819608       4.24843673      10.40649899       0.00000169       0.00000421      -0.00000278
Zr      -0.00000005      -0.00000015      -0.00000026      -0.00000278       0.00000173       0.00000493
Cl       2.01480972       1.42468588       6.93766653      -0.00158763      -0.00112240      -0.00000001
Cl       5.99611734       4.23989503       6.93766713       0.00159021       0.00112505       0.00000182
Cl       5.00079048       1.42468523       5.21370993       0.00079241      -0.00112537      -0.00137465
Cl       3.01013672       4.23989559       8.66162374      -0.00079113       0.00111862       0.00137080
Cl       3.01013691       4.23989605       5.21371004      -0.00079516       0.00112382      -0.00137480
Cl       5.00079040       1.42468525       8.66162345       0.00079231      -0.00112431       0.00137506
