9
Lattice="6.576091314338244 1.818271550549586e-07 3.796707925508241 2.1920305810488796 6.199998282483039 3.796707974858243 1.5981260193019065e-08 7.174175492662232e-08 7.593415823336375" Properties=species:S:1:pos:R:3:forces:R:3 energy=-29.310890197753906 free_energy=-29.310890197753906 stress="2.913252046710113e-06 7.33008675979363e-09 -1.1474184269388843e-08 7.33008675979363e-09 2.8843282962043304e-06 2.244137853324446e-08 -1.1474184269388843e-08 2.244137853324446e-08 2.886158881665324e-06" pbc="T T T"
Cs       2.19203066       1.54999985       3.79670775      -0.00000050      -0.00000019       0.00000032
Cs       6.57609136       4.64999916      11.39012381       0.00000027      -0.00000006       0.00000033
As       0.00000002       0.00000011      -0.00000033       0.00000175      -0.00000085       0.00000365
Cl       2.00958457       1.42099033       7.59341600       0.00108615       0.00076899      -0.00000084
Cl       6.75853820       4.77900819       7.59341560      -0.00108927      -0.00077093      -0.00000025
Cl       5.57129917       1.42099011       5.53705882      -0.00054295       0.00076985       0.00094154
Cl       3.19682235       4.77900796       9.64977286       0.00054385      -0.00076821      -0.00094149
Cl       3.19682208       4.77900831       5.53705821       0.00054552      -0.00077161       0.00094390
Cl       5.57129921       1.42099001       9.64977411      -0.00054491       0.00077310      -0.00094718
