9
Lattice="7.356259882140603 1.1675624187273987e-07 4.247138560144339 2.4520868289077358 6.935547975179341 4.247138401750655 6.047890123094612e-08 -1.512268015549457e-07 8.494277015536024" Properties=species:S:1:pos:R:3:forces:R:3 energy=-23.170114517211914 free_energy=-23.170114517211914 stress="0.00012985676585230976 5.234843669654765e-08 -1.8162700232693396e-09 5.234843669654765e-08 0.0001298182614846155 2.8409015140340443e-09 -1.8162700232693396e-09 2.8409015140340443e-09 0.00012977918959222734" pbc="T T T"
Cs       2.45208679       1.73388745       4.24713771       0.00000009      -0.00000009       0.00000004
Cs       7.35626066       5.20166040      12.74141667      -0.00000012       0.00000005      -0.00000033
As       0.00000032       0.00000009       0.00000109      -0.00000326      -0.00000036      -0.00000350
I        2.32432877       1.64354867       8.49427709      -0.00461315      -0.00326239       0.00000029
I        7.48401723       5.29199877       8.49427717       0.00461555       0.00326381       0.00000004
I        6.19409626       1.64354762       6.26006485       0.00230325      -0.00325723      -0.00398897
I        3.61425073       5.29200035      10.72848859      -0.00230359       0.00325786       0.00399018
I        3.61425010       5.29200032       6.26006396      -0.00230239       0.00325649      -0.00398805
I        6.19409616       1.64354808      10.72848884       0.00230360      -0.00325816       0.00399021
