9
Lattice="5.6813430320201075 1.0036320792684924e-07 3.2801247651338716 1.8937811119042292 5.3564213014473525 3.280124753689277 1.3827456267588254e-07 8.375822391668955e-08 6.560249290769125" Properties=species:S:1:pos:R:3:forces:R:3 energy=-40.5645751953125 free_energy=-40.5645751953125 stress="0.00011576848919503391 -1.0898985047802512e-09 9.892223040708359e-09 -1.0898985047802512e-09 0.00011575622920645401 -1.7228241944167166e-08 9.892223040708359e-09 -1.7228241944167166e-08 0.00011572527000680566" pbc="T T T"
Cs       1.89378102       1.33910540       3.28012408      -0.00000016       0.00000063       0.00000194
Cs       5.68134355       4.01731584       9.84037489      -0.00000015      -0.00000003       0.00000062
As      -0.00000003      -0.00000005       0.00000002      -0.00000168      -0.00000216      -0.00000160
F        1.59041649       1.12459419       6.56024968      -0.00448567      -0.00317153      -0.00000076
F        5.98470759       4.23182720       6.56024932       0.00448692       0.00317189      -0.00000030
F        4.88613518       1.12459421       4.65746567       0.00224209      -0.00317052      -0.00388348
F        2.68898952       4.23182715       8.46303267      -0.00224149       0.00317138       0.00388378
F        2.68898946       4.23182744       4.65746594      -0.00224423       0.00317359      -0.00388747
F        4.88613454       1.12459469       8.46303276       0.00224417      -0.00317281       0.00388736
