9
Lattice="6.884292092526803 2.418321496843712e-09 3.974647979075219 2.2947640818261075 6.490572833834639 3.974647894717792 4.9962577090432887e-08 -6.798759663172754e-08 7.949295871612856" Properties=species:S:1:pos:R:3:forces:R:3 energy=-26.293319702148438 free_energy=-26.293319702148438 stress="-8.941147098084912e-05 2.4046201474448026e-08 1.9879113910548085e-09 2.4046201474448026e-08 -8.942163549363613e-05 -2.078358374291156e-09 1.9879113910548085e-09 -2.078358374291156e-09 -8.94530166988261e-05" pbc="T T T"
Cs       2.29476435       1.62264317       3.97464800      -0.00000032       0.00000021      -0.00000030
Cs       6.88429179       4.86792947      11.92394377       0.00000024      -0.00000004       0.00000033
As      -0.00000013      -0.00000250      -0.00000113       0.00000049       0.00002223       0.00000713
Br       2.15263587       1.52214384       7.94929583      -0.00147961      -0.00104695       0.00000004
Br       7.02642070       4.96842962       7.94929617       0.00147220       0.00104015      -0.00000063
Br       5.80797380       1.52214397       5.83888518       0.00074017      -0.00104791      -0.00128141
Br       3.37108197       4.96843005      10.05970779      -0.00073508       0.00103782       0.00127096
Br       3.37108210       4.96842938       5.83888463      -0.00073684       0.00104094      -0.00127532
Br       5.80797441       1.52214406      10.05970669       0.00073871      -0.00104649       0.00127929
