9
Lattice="7.499821967250786 -3.577311951886197e-08 4.330023831686878 2.499940760729801 7.070899543746488 4.330023591439704 -1.4804068159181208e-08 -3.04709558703326e-07 8.660047689015164" Properties=species:S:1:pos:R:3:forces:R:3 energy=-23.546449661254883 free_energy=-23.546449661254883 stress="0.00011619151337072253 4.582281931675425e-08 1.7461459833612025e-08 4.582281931675425e-08 0.0001161533800768666 -2.7736797747479613e-08 1.7461459833612025e-08 -2.7736797747479613e-08 0.00011612056550802663" pbc="T T T"
Cs       2.49994054       1.76772469       4.33002400       0.00000004      -0.00000018      -0.00000001
Cs       7.49982168       5.30317415      12.99007151       0.00000011       0.00000024       0.00000013
Bi       0.00000197       0.00000082      -0.00000061      -0.00001214      -0.00000283       0.00000543
I        2.51365724       1.77742355       8.66004716      -0.00367926      -0.00260133      -0.00000016
I        7.48610489       5.29347515       8.66004717       0.00368664       0.00260628      -0.00000056
I        6.24299350       1.77742295       6.50691370       0.00183906      -0.00259887      -0.00318368
I        3.75676833       5.29347663      10.81318251      -0.00183552       0.00259653       0.00317907
I        3.75676916       5.29347558       6.50691376      -0.00183861       0.00260101      -0.00318529
I        6.24299349       1.77742324      10.81318114       0.00183973      -0.00260083       0.00318494
