9
Lattice="6.795427635500373 6.581812929299435e-08 3.9233414933436843 2.265142565908265 6.406790300889923 3.923341564899401 -1.6424698727361837e-10 8.752120505451584e-08 7.846682986971845" Properties=species:S:1:pos:R:3:forces:R:3 energy=-29.549325942993164 free_energy=-29.549325942993164 stress="3.230410584365018e-05 -1.545261163471423e-08 -1.6135089708768646e-08 -1.545261163471423e-08 3.230457514291629e-05 2.7693230819636483e-08 -1.6135089708768646e-08 2.7693230819636483e-08 3.23339227179531e-05" pbc="T T T"
Cs       2.26514262       1.60169730       3.92334142      -0.00000018       0.00000009      -0.00000038
Cs       6.79542780       4.80509311      11.77002461      -0.00000000      -0.00000032       0.00000093
Bi      -0.00000057      -0.00000038       0.00000348       0.00000194       0.00000450      -0.00004133
Cl       2.18133297       1.54243522       7.84668344       0.00053325       0.00037736       0.00000064
Cl       6.87923771       4.86435520       7.84668313      -0.00053561      -0.00037926       0.00000173
Cl       5.70476157       1.54243505       5.81243101      -0.00027175       0.00038329       0.00046968
Cl       3.35580984       4.86435445       9.88093305       0.00026219      -0.00037062      -0.00045133
Cl       3.35580861       4.86435592       5.81243052       0.00027238      -0.00038612       0.00047332
Cl       5.70476025       1.54243607       9.88093332      -0.00026222       0.00037113      -0.00045326
