9
Lattice="5.979097441936678 3.690281734893098e-07 3.4520335938408153 1.9930328557748624 5.637146853942364 3.4520335467182823 3.8321482799113394e-07 2.1326066574608072e-07 6.904066523933966" Properties=species:S:1:pos:R:3:forces:R:3 energy=-39.60446548461914 free_energy=-39.60446548461914 stress="-0.00024010274501051754 1.2994145492939424e-07 5.442000272637415e-08 1.2994145492939424e-07 -0.00024022741126827896 -1.958507844790347e-08 5.442000272637415e-08 -1.958507844790347e-08 -0.0002403236139798537" pbc="T T T"
Cs       1.99303250       1.40928724       3.45203352       0.00000066       0.00000011      -0.00000039
Cs       5.97909793       4.22785972      10.35610015       0.00000014       0.00000098       0.00000085
Bi       0.00000030       0.00000055      -0.00000078      -0.00000575      -0.00001179       0.00002693
F        1.78588539       1.26281126       6.90406673       0.00112194       0.00079483      -0.00000080
F        6.18624525       4.37433581       6.90406687      -0.00111425      -0.00078887      -0.00000172
F        5.08615580       1.26281129       4.99865383      -0.00056562       0.00079918       0.00097620
F        2.88597442       4.37433761       8.80948001       0.00057095      -0.00080901      -0.00098729
F        2.88597477       4.37433633       4.99865419       0.00056306      -0.00079471       0.00097466
F        5.08615640       1.26281013       8.80948015      -0.00057077       0.00080931      -0.00098825
