9
Lattice="5.747329506649045 4.470615954665768e-07 3.318221642502375 1.9157768393677093 5.418634362661259 3.3182217885875525 9.652821179150312e-08 2.47172923629925e-07 6.636443117812936" Properties=species:S:1:pos:R:3:forces:R:3 energy=-39.86384582519531 free_energy=-39.86384582519531 stress="0.00011205911869183183 2.8613410307798404e-08 2.379221264448006e-08 2.8613410307798404e-08 0.00011200342123629525 9.886397478453546e-09 2.379221264448006e-08 9.886397478453546e-09 0.00011185563198523596" pbc="T T T"
Cs       1.91577636       1.35465846       3.31822173      -0.00000043       0.00000007      -0.00000063
Cs       5.74732980       4.06397696       9.95466417      -0.00000021      -0.00000048       0.00000060
Ga      -0.00000022      -0.00000003      -0.00000052       0.00000884      -0.00000120       0.00001281
F        1.57955490       1.11691471       6.63644351      -0.00329661      -0.00233018      -0.00000113
F        6.08355182       4.30172114       6.63644354       0.00329113       0.00232589       0.00000001
F        4.95755183       1.11691369       4.68615593       0.00164586      -0.00232714      -0.00285029
F        2.70555461       4.30172096       8.58673114      -0.00164437       0.00232679       0.00284851
F        2.70555445       4.30172074       4.68615586      -0.00164765       0.00232810      -0.00285155
F        4.95755232       1.11691406       8.58673064       0.00164354      -0.00232071       0.00284177
