9
Lattice="6.8477584097212105 -2.0064568492891676e-07 3.9535550595348097 2.282585952425789 6.456128674257971 3.953555050835317 -4.881687914367475e-08 -4.517347117915004e-08 7.9071102036230165" Properties=species:S:1:pos:R:3:forces:R:3 energy=-25.697723388671875 free_energy=-25.697723388671875 stress="1.5234896636684425e-05 -1.3395051734477192e-09 -3.3416636124883325e-09 -1.3395051734477192e-09 1.5250082469719928e-05 -5.680116377249078e-09 -3.3416636124883325e-09 -5.680116377249078e-09 1.523007176729152e-05" pbc="T T T"
Cs       2.28258599       1.61403220       3.95355500       0.00000033      -0.00000004      -0.00000018
Cs       6.84775813       4.84209647      11.86066478      -0.00000013      -0.00000009       0.00000072
Ga       0.00000052       0.00000018       0.00000041      -0.00000303      -0.00000170      -0.00000177
Br       2.08759514       1.47615281       7.90711001       0.00225079       0.00159135      -0.00000036
Br       7.04274858       4.97997501       7.90711042      -0.00224572      -0.00158769      -0.00000037
Br       5.80396060       1.47615304       5.76146594      -0.00112532       0.00158975       0.00194770
Br       3.32638405       4.97997512      10.05275424       0.00112267      -0.00158888      -0.00194690
Br       3.32638391       4.97997532       5.76146590       0.00112420      -0.00159049       0.00194752
Br       5.80396015       1.47615348      10.05275442      -0.00112367       0.00158784      -0.00194630
