9
Lattice="6.587722939520125 -5.805555067842873e-07 3.803422822100732 2.1959070886130667 6.210963862437476 3.803422840357734 -9.246232998374609e-07 -6.314472933571799e-07 7.6068472456961835" Properties=species:S:1:pos:R:3:forces:R:3 energy=-25.045713424682617 free_energy=-25.045713424682617 stress="1.0374686098657548e-05 -8.951136720725117e-09 -2.5018360716444477e-08 -8.951136720725117e-09 1.0368755283707287e-05 1.206137589804257e-08 -2.5018360716444477e-08 1.206137589804257e-08 1.0408827620267402e-05" pbc="T T T"
Cs       2.19590665       1.55274082       3.80342289       0.00000004       0.00000033      -0.00000013
Cs       6.58772203       4.65822159      11.41026937      -0.00000012       0.00000043      -0.00000019
N       -0.00000024       0.00000311      -0.00000262       0.00000006      -0.00001016       0.00000678
Cl       1.77006545       1.25162575       7.60684577       0.00401130       0.00283225       0.00000938
Cl       7.01356381       4.95933758       7.60684448      -0.00400896      -0.00283960       0.00000797
Cl       5.70268779       1.25162731       5.33634735      -0.00199480       0.00282415       0.00346743
Cl       3.08093990       4.95933694       9.87734604       0.00200887      -0.00283815      -0.00346484
Cl       3.08094188       4.95933417       5.33634953       0.00199634      -0.00281829       0.00345660
Cl       5.70268953       1.25162330       9.87734919      -0.00201264       0.00284902      -0.00348294
