9
Lattice="5.840792212671906 -1.5994390586546142e-08 3.3721830088966622 1.9469307820393216 5.506751573379555 3.372182905732714 2.00566360573316e-08 -1.1216731662035408e-07 6.744365983054297" Properties=species:S:1:pos:R:3:forces:R:3 energy=-40.92847442626953 free_energy=-40.92847442626953 stress="0.00027525369659997523 -9.900858799483103e-09 2.475921867528541e-08 -9.900858799483103e-09 0.0002752391737885773 -5.4358970658086037e-08 2.475921867528541e-08 -5.4358970658086037e-08 0.000275230995612219" pbc="T T T"
Cs       1.94693162       1.37668830       3.37218224       0.00000042       0.00000036       0.00000132
Cs       5.84079168       4.13006464      10.11655067      -0.00000017       0.00000072      -0.00000120
Sb      -0.00000020       0.00000006       0.00000014       0.00000087       0.00000734      -0.00000082
F        1.68894230       1.19426177       6.74436585      -0.00646520      -0.00457147       0.00000040
F        6.09878149       4.31248909       6.74436499       0.00646240       0.00456861       0.00000022
F        4.99632072       1.19426231       4.83484955       0.00323147      -0.00457004      -0.00559619
F        2.79140149       4.31248888       8.65388283      -0.00323023       0.00456744       0.00559431
F        2.79140214       4.31248903       4.83484898      -0.00323351       0.00457081      -0.00559887
F        4.99632083       1.19426162       8.65388232       0.00323406      -0.00457367       0.00560075
