9
Lattice="6.9224620217917225 4.78827581959293e-07 3.9966848294392237 2.3074878005597244 6.526559113188612 3.9966848146827543 3.765878898719727e-08 8.55627780227136e-09 7.9933695936510105" Properties=species:S:1:pos:R:3:forces:R:3 energy=-26.534378051757812 free_energy=-26.534378051757812 stress="-0.00011203049507457763 6.824519971360132e-08 5.983884499016767e-09 6.824519971360132e-08 -0.00011209926742594689 -1.0097730651636994e-08 5.983884499016767e-09 -1.0097730651636994e-08 -0.00011214373807888478" pbc="T T T"
Cs       2.30748759       1.63163963       3.99668508      -0.00000025       0.00000032      -0.00000041
Cs       6.92246267       4.89491987      11.99005410       0.00000028      -0.00000023       0.00000039
Sb      -0.00000028       0.00000033      -0.00000235       0.00000453      -0.00000365       0.00002576
Br       2.23805513       1.58254312       7.99336995       0.00377404       0.00266998      -0.00000153
Br       6.99189497       4.94401661       7.99336972      -0.00377550      -0.00267062      -0.00000111
Br       5.80343526       1.58254257       5.93489533      -0.00188993       0.00267390       0.00327318
Br       3.42651397       4.94401734      10.05184414       0.00189348      -0.00267907      -0.00328214
Br       3.42651439       4.94401661       5.93489587       0.00188811      -0.00267086       0.00326949
Br       5.80343572       1.58254231      10.05184508      -0.00189472       0.00268028      -0.00328369
