9
Lattice="6.642293493275798 -2.140437911321729e-07 3.834929854806832 2.2140975976811585 6.262414110709919 3.8349299095540554 -1.4362167694307788e-07 -3.4504600463207804e-08 7.669859958373652" Properties=species:S:1:pos:R:3:forces:R:3 energy=-29.722496032714844 free_energy=-29.722496032714844 stress="4.1582392441341653e-05 -3.9830990061773264e-08 -2.4251551877796373e-09 -3.9830990061773264e-08 4.158127194386907e-05 5.32330002300796e-09 -2.4251551877796373e-09 5.32330002300796e-09 4.161512333666906e-05" pbc="T T T"
Cs       2.21409807       1.56560309       3.83492999       0.00000003       0.00000003      -0.00000031
Cs       6.64229315       4.69681086      11.50479000       0.00000026      -0.00000005      -0.00000027
Sb       0.00000142       0.00000049      -0.00000219      -0.00002045      -0.00000545       0.00003275
Cl       2.07798595       1.46935737       7.66985988       0.00073859       0.00052340      -0.00000189
Cl       6.77840393       4.79305566       7.66985960      -0.00072551      -0.00051480      -0.00000118
Cl       5.60329939       1.46935910       5.63451990      -0.00035869       0.00050917       0.00062234
Cl       3.25309110       4.79305602       9.70520102       0.00036816      -0.00052007      -0.00063961
Cl       3.25309157       4.79305505       5.63451969       0.00036217      -0.00051194       0.00062600
Cl       5.60329924       1.46935790       9.70520095      -0.00036454       0.00051972      -0.00063782
