9
Lattice="6.13217399831604 3.4914206508688593e-07 3.5404120332018185 2.044058441491194 5.781469545691426 3.540411837691068 4.260498971324656e-08 -2.093244930289833e-07 7.080823992609423" Properties=species:S:1:pos:R:3:forces:R:3 energy=-48.07829666137695 free_energy=-48.07829666137695 stress="-0.0002793294261209667 2.3910466495635774e-08 3.340403509355383e-08 2.3910466495635774e-08 -0.0002793620224110782 -3.103998125197904e-08 3.340403509355383e-08 -3.103998125197904e-08 -0.0002792753221001476" pbc="T T T"
Cs       2.04405780       1.44536646       3.54041086      -0.00000008      -0.00000042       0.00000000
Cs       6.13217371       4.33610268      10.62123742       0.00000048       0.00000036      -0.00000039
Y        0.00000050      -0.00000002      -0.00000047      -0.00000586       0.00000881       0.00000377
F        1.78837486       1.26457121       7.08082417       0.00019968       0.00014263      -0.00000012
F        6.38785829       4.51689890       7.08082336      -0.00020528      -0.00014517      -0.00000089
F        5.23798743       1.26457212       5.08918937      -0.00009781       0.00014013       0.00017071
F        2.93824539       4.51689803       9.07245855       0.00010449      -0.00014317      -0.00017768
F        2.93824548       4.51689794       5.08918966       0.00010094      -0.00014079       0.00017399
F        5.23798649       1.26457159       9.07245740      -0.00009614       0.00013778      -0.00016928
