9
Lattice="7.500442301159455 2.9617435672303104e-07 4.330382145631354 2.5001478005151654 7.071484905431236 4.330381993973872 1.3749749866426125e-07 -8.851623797319292e-08 8.66076405310994" Properties=species:S:1:pos:R:3:forces:R:3 energy=-30.393308639526367 free_energy=-30.393308639526367 stress="7.254223601194099e-05 1.7662337370438763e-08 9.576048398685089e-09 1.7662337370438763e-08 7.252065552165732e-05 -1.5728662816627548e-08 9.576048398685089e-09 -1.5728662816627548e-08 7.250384805956855e-05" pbc="T T T"
Cs       2.50014738       1.76787135       4.33038216       0.00000024      -0.00000073      -0.00000026
Cs       7.50044233       5.30361394      12.99114592      -0.00000036       0.00000011      -0.00000004
Y        0.00000112       0.00000072      -0.00000105      -0.00000730      -0.00000557       0.00000749
I        2.47379908       1.74923996       8.66076405      -0.00178454      -0.00126195       0.00000028
I        7.52679047       5.32224469       8.66076441       0.00179162       0.00126721      -0.00000013
I        6.26354297       1.74923984       6.47275430       0.00089345      -0.00126293      -0.00154646
I        3.73704698       5.32224552      10.84877452      -0.00089082       0.00126007       0.00154249
I        3.73704732       5.32224468       6.47275430      -0.00089428       0.00126557      -0.00154837
I        6.26354336       1.74923976      10.84877418       0.00089201      -0.00126182       0.00154501
