9
Lattice="6.828863412222601 -1.4000347713085349e-06 3.942646177489267 2.2762863960977575 6.438314703235509 3.942646329928712 -1.38437148741113e-07 8.880950498564287e-08 7.885292594758479" Properties=species:S:1:pos:R:3:forces:R:3 energy=-37.632301330566406 free_energy=-37.632301330566406 stress="6.225356628419831e-06 -1.0513756620866843e-07 1.6610711028874903e-08 -1.0513756620866843e-07 6.312911409622757e-06 -2.4171823653773572e-08 1.6610711028874903e-08 -2.4171823653773572e-08 6.407837190636201e-06" pbc="T T T"
Cs       2.27628727       1.60957874       3.94264636       0.00000181      -0.00000013      -0.00000010
Cs       6.82886216       4.82873500      11.82793884      -0.00000141       0.00000047      -0.00000025
Y        0.00000017       0.00000001      -0.00000020      -0.00000267      -0.00000189      -0.00000501
Cl       2.14355425       1.51572213       7.88529269       0.00108242       0.00076433      -0.00000034
Cl       6.96159534       4.92259098       7.88529280      -0.00107984      -0.00076304      -0.00000019
Cl       5.75708572       1.51572178       5.79902112      -0.00053434       0.00075632       0.00092554
Cl       3.34806432       4.92259132       9.97156336       0.00053258      -0.00075369      -0.00092222
Cl       3.34806431       4.92259144       5.79902148       0.00053464      -0.00075552       0.00092451
Cl       5.75708505       1.51572226       9.97156379      -0.00053319       0.00075321      -0.00092201
