9
Lattice="5.719917123250272 -2.987608716735082e-08 3.3023956763769244 1.9066390312292891 5.392789729970142 3.302395644657348 1.7534524486050483e-08 -2.644962662276308e-08 6.604791322383185" Properties=species:S:1:pos:R:3:forces:R:3 energy=-24.16709327697754 free_energy=-24.16709327697754 stress="0.0001885977981146425 2.273513155515161e-09 2.1398767202640556e-09 2.273513155515161e-09 0.00018861968419514596 7.137559876468913e-09 2.1398767202640556e-09 7.137559876468913e-09 0.00018856256792787462" pbc="T T T"
Cu       1.90663952       1.34819684       3.30239543       0.00000333      -0.00000231      -0.00000193
Cu       5.71991658       4.04459262       9.90718714      -0.00000351       0.00000199       0.00000229
As       0.00000014       0.00000004       0.00000001      -0.00000054      -0.00000083       0.00000079
Cl       1.91028379       1.35077438       6.60479152      -0.00128801      -0.00091206      -0.00000067
Cl       5.71627230       4.04201532       6.60479134       0.00128856       0.00091071      -0.00000046
Cl       4.76477527       1.35077443       4.95674979       0.00064403      -0.00090967      -0.00111455
Cl       2.86178091       4.04201513       8.25283279      -0.00064380       0.00091241       0.00111641
Cl       2.86178135       4.04201527       4.95674964      -0.00064328       0.00091048      -0.00111568
Cl       4.76477481       1.35077467       8.25283293       0.00064319      -0.00091064       0.00111373
