9
Lattice="6.7033053537016265 6.046940371646597e-08 3.8701550959503193 2.2344351658799093 6.319936903356414 3.8701551115937445 -2.156466275196371e-08 3.910695833268294e-09 7.740310229251742" Properties=species:S:1:pos:R:3:forces:R:3 energy=-18.088176727294922 free_energy=-18.088176727294922 stress="7.164765702327713e-05 7.2619017466024616e-09 4.154327104544109e-09 7.2619017466024616e-09 7.16517970431596e-05 -4.618611715301313e-09 4.154327104544109e-09 -4.618611715301313e-09 7.163800182752311e-05" pbc="T T T"
Cu       2.23443517       1.57998420       3.87015487       0.00000001      -0.00000044      -0.00000055
Cu       6.70330551       4.73995276      11.61046552       0.00000095      -0.00000074      -0.00000027
As       0.00000003       0.00000008      -0.00000012       0.00000002       0.00000007       0.00000053
I        2.30159384       1.62747276       7.74031029      -0.00080097      -0.00056572       0.00000017
I        6.63614625       4.69246421       7.74031032       0.00080128       0.00056675       0.00000039
I        5.55250854       1.62747270       5.86339384       0.00040012      -0.00056618      -0.00069316
I        3.38523196       4.69246416       9.61722667      -0.00040044       0.00056562       0.00069268
I        3.38523232       4.69246426       5.86339380      -0.00040094       0.00056641      -0.00069337
I        5.55250839       1.62747275       9.61722660       0.00040009      -0.00056581       0.00069350
