9
Lattice="6.703261088485297 3.618696121181279e-09 3.8701295796165156 2.234420365115588 6.31989495760475 3.870129581564386 1.6136805546799044e-08 1.3796058943111835e-08 7.74025913128332" Properties=species:S:1:pos:R:3:forces:R:3 energy=-18.088178634643555 free_energy=-18.088178634643555 stress="6.849689088994637e-05 -6.563313892371525e-09 -2.354940464854849e-09 -6.563313892371525e-09 6.850253703305498e-05 3.741116749722551e-09 -2.354940464854849e-09 3.741116749722551e-09 6.850552017567679e-05" pbc="T T T"
Cu       2.23442040       1.57997375       3.87012965      -0.00000007      -0.00000042       0.00000009
Cu       6.70326073       4.73992151      11.61038886      -0.00000034       0.00000139      -0.00000011
As       0.00000017       0.00000001       0.00000015      -0.00000042       0.00000031       0.00000004
I        2.30158455       1.62746566       7.74025907      -0.00077523      -0.00054842      -0.00000021
I        6.63609695       4.69242906       7.74025903       0.00077577       0.00054869      -0.00000013
I        5.55246888       1.62746580       5.86336023       0.00038803      -0.00054957      -0.00067225
I        3.38521279       4.69242911       9.61715812      -0.00038822       0.00054905       0.00067207
I        3.38521263       4.69242909       5.86336013      -0.00038780       0.00054862      -0.00067179
I        5.55246876       1.62746589       9.61715796       0.00038824      -0.00054963       0.00067230
