9
Lattice="5.719766282537054 -6.033761940908669e-08 3.302308610791189 1.9065887207918264 5.3926471745189675 3.3023085816355815 -8.109316030309755e-09 -4.144232935942091e-08 6.604617235628163" Properties=species:S:1:pos:R:3:forces:R:3 energy=-24.167098999023438 free_energy=-24.167098999023438 stress="0.00016607566794846207 -9.391983191164854e-09 -2.1310123443640805e-08 -9.391983191164854e-09 0.00016611459432169795 6.715163536341606e-09 -2.1310123443640805e-08 6.715163536341606e-09 0.00016608745499979705" pbc="T T T"
Cu       1.90658920       1.34816260       3.30230954       0.00000076       0.00000390       0.00000391
Cu       5.71976566       4.04448478       9.90692643      -0.00000269      -0.00000345       0.00000119
As       0.00000011       0.00000018      -0.00000031       0.00000071      -0.00000165       0.00000190
Cl       1.91024026       1.35074357       6.60461686      -0.00115357      -0.00081567      -0.00000254
Cl       5.71611467       4.04190317       6.60461690       0.00115685       0.00081661      -0.00000068
Cl       4.76464598       1.35074407       4.95662482       0.00057822      -0.00081523      -0.00100118
Cl       2.86170908       4.04190303       8.25260924      -0.00057764       0.00081550       0.00100085
Cl       2.86170898       4.04190294       4.95662494      -0.00058023       0.00081608      -0.00100309
Cl       4.76464606       1.35074397       8.25260934       0.00057765      -0.00081606       0.00099979
