9
Lattice="4.6183393997896545 -1.6552901756661605e-07 2.6663995816956994 1.5394463425930816 4.354212039239888 2.666399526168213 2.1903600362463544e-08 -5.251879468435412e-08 5.332799125453258" Properties=species:S:1:pos:R:3:forces:R:3 energy=-35.838069915771484 free_energy=-35.838069915771484 stress="0.00010421172191854566 -6.670629204563738e-08 -2.177502445022128e-08 -6.670629204563738e-08 0.00010423895582789555 4.269731235240215e-08 -2.177502445022128e-08 4.269731235240215e-08 0.00010434538125991821" pbc="T T T"
Cu       1.53944628       1.08855369       2.66639954      -0.00000121       0.00000144      -0.00000136
Cu       4.61833900       3.26565884       7.99919842      -0.00000105       0.00000150      -0.00000090
As      -0.00000024       0.00000019       0.00000061       0.00000808      -0.00000983      -0.00002216
F        1.49970965       1.06045435       5.33279941      -0.00610593      -0.00431639       0.00000092
F        4.65807613       3.29375692       5.33279940       0.00610541       0.00431634       0.00000156
F        3.86848480       1.06045428       3.96518691       0.00305164      -0.00431505      -0.00528473
F        2.28930144       3.29375675       6.70041110      -0.00305867       0.00432441       0.00530007
F        2.28930146       3.29375735       3.96518658      -0.00305369       0.00431742      -0.00528787
F        3.86848452       1.06045483       6.70041114       0.00305545      -0.00432000       0.00529443
