9
Lattice="6.179969282994706 -6.785012690514855e-08 3.5680068440965798 2.0599896892311667 5.826530430579487 3.568006857601983 -1.8974892707297348e-08 3.123383266016141e-09 7.1360137210586725" Properties=species:S:1:pos:R:3:forces:R:3 energy=-20.853107452392578 free_energy=-20.853107452392578 stress="0.0001142705514212139 -3.5750880034157717e-09 -4.393825303594667e-09 -3.5750880034157717e-09 0.00011429504957050085 -5.179958684209396e-09 -4.393825303594667e-09 -5.179958684209396e-09 0.00011429583537392318" pbc="T T T"
Cu       2.05998786       1.45663309       3.56800880      -0.00000654       0.00000201       0.00000571
Cu       6.17997003       4.36989654      10.70402059       0.00000254      -0.00000507       0.00000074
As      -0.00000013       0.00000009      -0.00000030       0.00000194       0.00000145       0.00000056
Br       2.09238313       1.47953889       7.13601335      -0.00236240      -0.00166810      -0.00000219
Br       6.14757571       4.34699141       7.13601360       0.00236222       0.00166841      -0.00000019
Br       5.13377768       1.47953867       5.38006392       0.00118145      -0.00166978      -0.00204611
Br       3.10618150       4.34699221       8.89196271      -0.00118142       0.00167097       0.00204322
Br       3.10618163       4.34699191       5.38006372      -0.00118209       0.00166924      -0.00204502
Br       5.13377839       1.47953866       8.89196327       0.00118436      -0.00166909       0.00204328
