9
Lattice="6.179968857054817 3.3138406393775114e-08 3.5680066481171404 2.059989662665049 5.82653038573495 3.568006626633634 1.242577178811344e-07 6.155159105341971e-08 7.136013081013592" Properties=species:S:1:pos:R:3:forces:R:3 energy=-20.853107452392578 free_energy=-20.853107452392578 stress="0.00011203261965420097 4.516915730334858e-09 -2.977783131186129e-09 4.516915730334858e-09 0.00011203038593521342 5.24710608296175e-10 -2.977783131186129e-09 5.24710608296175e-10 0.00011203325993847102" pbc="T T T"
Cu       2.05998924       1.45663229       3.56800684      -0.00000159      -0.00000151      -0.00000015
Cu       6.17996953       4.36989737      10.70402052       0.00000144      -0.00000194       0.00000192
As      -0.00000002       0.00000009      -0.00000046       0.00000059      -0.00000066       0.00000135
Br       2.09235414       1.47951817       7.13601337      -0.00217055      -0.00153421       0.00000025
Br       6.14760449       4.34701266       7.13601295       0.00217009       0.00153488      -0.00000133
Br       5.13379203       1.47951778       5.38003803       0.00108519      -0.00153336      -0.00187998
Br       3.10616655       4.34701288       8.89198785      -0.00108507       0.00153497       0.00187850
Br       3.10616647       4.34701289       5.38003855      -0.00108529       0.00153564      -0.00187969
Br       5.13379217       1.47951783       8.89198775       0.00108529      -0.00153382       0.00187914
