9
Lattice="5.027485746937206 -1.0464713037108948e-07 2.9026199085400033 1.6758285119218872 4.7399585573704845 2.902619859571937 -1.2909819756778975e-07 -1.5125966160990383e-07 5.805240040684635" Properties=species:S:1:pos:R:3:forces:R:3 energy=-34.64051055908203 free_energy=-34.64051055908203 stress="0.0002008932933676988 7.606536200910341e-08 2.2686169387498012e-08 7.606536200910341e-08 0.00020087948360014707 -4.2954237500225645e-08 2.2686169387498012e-08 -4.2954237500225645e-08 0.00020084393327124417" pbc="T T T"
Cu       1.67582857       1.18499035       2.90262023      -0.00000075       0.00000166       0.00000153
Cu       5.02748566       3.55496879       8.70786002      -0.00000026       0.00000090       0.00000017
Bi      -0.00000039      -0.00000000       0.00000006      -0.00000100      -0.00000629      -0.00000012
F        1.70789362       1.20766320       5.80523969      -0.00390899      -0.00276284      -0.00000043
F        4.99542018       3.53229470       5.80523971       0.00391391       0.00276639      -0.00000009
F        4.17353927       1.20766278       4.38169961       0.00195175      -0.00276075      -0.00338045
F        2.52977527       3.53229580       7.22878062      -0.00195327       0.00276059       0.00338171
F        2.52977558       3.53229489       4.38169867      -0.00195438       0.00276265      -0.00338586
F        4.17353891       1.20766281       7.22878025       0.00195296      -0.00276232       0.00338356
