9
Lattice="5.939952073599458 4.1867276975482736e-08 3.4294328828759113 1.9799839896760918 5.600240437318253 3.4294330116190843 -1.0046251992849805e-08 1.505737808794736e-07 6.858865783152437" Properties=species:S:1:pos:R:3:forces:R:3 energy=-23.679603576660156 free_energy=-23.679603576660156 stress="0.0003089755482506007 -4.505630535334149e-09 -3.6926992574848327e-09 -4.505630535334149e-09 0.00030892068753018975 1.505253344191715e-08 -3.6926992574848327e-09 1.505253344191715e-08 0.00030898189288564026" pbc="T T T"
Cu       1.97998416       1.40006059       3.42943262       0.00000143       0.00000037      -0.00000142
Cu       5.93995177       4.20018035      10.28829889      -0.00000155       0.00000057      -0.00000043
Bi      -0.00000006      -0.00000015       0.00000071      -0.00000109       0.00000237      -0.00001484
Cl       2.06911056       1.46308202       6.85886608      -0.00194049      -0.00137065       0.00000098
Cl       5.85082543       4.13715843       6.85886604       0.00194108       0.00136986       0.00000055
Cl       4.90539668       1.46308242       5.22133497       0.00096853      -0.00136940      -0.00167890
Cl       3.01453993       4.13715825       8.49639627      -0.00097269       0.00137731       0.00168483
Cl       3.01453952       4.13715848       5.22133469      -0.00096735       0.00136577      -0.00167535
Cl       4.90539621       1.46308215       8.49639645       0.00097208      -0.00137620       0.00168451
