9
Lattice="6.353388880547304 5.5024544841181324e-08 3.668130789382262 2.1177963235335344 5.990032498034213 3.6681308272446076 -7.504515250087946e-09 4.1065215744402276e-08 7.336261591762763" Properties=species:S:1:pos:R:3:forces:R:3 energy=-20.51466178894043 free_energy=-20.51466178894043 stress="0.0002132747322320938 -1.7819756781278784e-09 6.325476586965806e-09 -1.7819756781278784e-09 0.00021326050045900047 1.3510139673655885e-08 6.325476586965806e-09 1.3510139673655885e-08 0.0002132993540726602" pbc="T T T"
Cu       2.11779636       1.49750847       3.66813063       0.00000025       0.00000136      -0.00000092
Cu       6.35338885       4.49252463      11.00439192      -0.00000044       0.00000008      -0.00000312
Bi       0.00000026       0.00000012       0.00000057      -0.00000283      -0.00000104      -0.00000225
Br       2.25075824       1.59152652       7.33626162      -0.00452818      -0.00320216      -0.00000003
Br       6.22042659       4.39850554       7.33626176       0.00453310       0.00320429       0.00000021
Br       5.22800967       1.59152644       5.61734493       0.00226329      -0.00320312      -0.00392188
Br       3.24317598       4.39850574       9.05517830      -0.00226583       0.00320382       0.00392497
Br       3.24317540       4.39850611       5.61734480      -0.00226516       0.00320154      -0.00392123
Br       5.22800942       1.59152677       9.05517832       0.00226583      -0.00320478       0.00392437
