9
Lattice="6.353584957887413 -1.6657338245564205e-07 3.668244172910589 2.117861560944933 5.990217241616592 3.6682440596991044 8.083658940326727e-08 -8.149508405808658e-08 7.336488205808047" Properties=species:S:1:pos:R:3:forces:R:3 energy=-20.514652252197266 free_energy=-20.514652252197266 stress="0.00023261744354385883 -5.0831083342472994e-08 1.3262940967706527e-08 -5.0831083342472994e-08 0.0002326688845641911 -2.09246877602709e-08 1.3262940967706527e-08 -2.09246877602709e-08 0.00023274176055565476" pbc="T T T"
Cu       2.11786186       1.49755480       3.66824415      -0.00000041       0.00000165      -0.00000029
Cu       6.35358488       4.49266236      11.00473233      -0.00000001      -0.00000101      -0.00000058
Bi      -0.00000027      -0.00000026       0.00000057       0.00000326       0.00000208      -0.00000531
Br       2.25089108       1.59162044       7.33648828      -0.00510161      -0.00360731      -0.00000048
Br       6.22055568       4.39859689       7.33648811       0.00509828       0.00360410      -0.00000015
Br       5.22813922       1.59162051       5.61757317       0.00255145      -0.00360797      -0.00441958
Br       3.24330768       4.39859607       9.05540272      -0.00255343       0.00361098       0.00442392
Br       3.24330746       4.39859624       5.61757373      -0.00255256       0.00360930      -0.00442208
Br       5.22813884       1.59162096       9.05540274       0.00255505      -0.00361188       0.00442457
