9
Lattice="6.952480370205509 -3.042276094512929e-08 4.014016464017264 2.317493409244359 6.554861461967802 4.014016496593701 -6.735770594560994e-08 -7.731362353545925e-09 8.028033044701521" Properties=species:S:1:pos:R:3:forces:R:3 energy=-17.79840087890625 free_energy=-17.79840087890625 stress="0.00016661146946717054 1.502841584510861e-08 -7.003603030852901e-09 1.502841584510861e-08 0.00016660091932862997 9.9208898873826e-09 -7.003603030852901e-09 9.9208898873826e-09 0.00016658756067045033" pbc="T T T"
Cu       2.31749334       1.63871562       4.01401642      -0.00000034       0.00000091       0.00000065
Cu       6.95248012       4.91614618      12.04204934       0.00000003       0.00000068      -0.00000111
Bi      -0.00000020      -0.00000031      -0.00000052       0.00000093       0.00000259       0.00000407
I        2.48334230       1.75598798       8.02803296      -0.00544590      -0.00385118      -0.00000009
I        6.78663215       4.79887327       8.02803310       0.00544375       0.00384957      -0.00000021
I        5.71080923       1.75598817       6.16465431       0.00272253      -0.00385050      -0.00471608
I        3.55916423       4.79887346       9.89141238      -0.00272089       0.00384799       0.00471306
I        3.55916414       4.79887340       6.16465393      -0.00272162       0.00384913      -0.00471476
I        5.71080954       1.75598793       9.89141209       0.00272149      -0.00384921       0.00471434
