9
Lattice="6.352710455254017 -5.201655675827394e-07 3.6677392605801384 2.1175695516394435 5.989394458197328 3.667739450577693 -1.1466332061075417e-07 1.5161929687834735e-07 7.335478719763012" Properties=species:S:1:pos:R:3:forces:R:3 energy=-17.715030670166016 free_energy=-17.715030670166016 stress="-0.00018479647405911237 1.639361535410444e-08 2.6632086758127116e-08 1.639361535410444e-08 -0.00018492425442673266 -7.159436377079942e-10 2.6632086758127116e-08 -7.159436377079942e-10 -0.00018478979473002255" pbc="T T T"
Cu       2.11756900       1.49734878       3.66773936      -0.00000408      -0.00000089      -0.00000007
Cu       6.35270997       4.49204731      11.00321816       0.00000022       0.00000670      -0.00000029
B        0.00000018      -0.00000049      -0.00000015      -0.00000330      -0.00000180      -0.00000192
I        2.00953942       1.42095780       7.33547863       0.00513616       0.00362708       0.00000100
I        6.46074067       4.56843557       7.33547843      -0.00513212      -0.00362775      -0.00000085
I        5.34794127       1.42095790       5.40805213      -0.00256562       0.00362788       0.00444652
I        3.12233880       4.56843551       9.26290600       0.00256731      -0.00363027      -0.00444531
I        3.12233901       4.56843572       5.40805177       0.00256686      -0.00362927       0.00444594
I        5.34794130       1.42095824       9.26290541      -0.00256559       0.00362834      -0.00444518
