9
Lattice="5.588981000253539 -1.6682651389494928e-07 3.2267995221744856 1.8629935467023773 5.269341634575297 3.2267994576785637 3.9342307206219843e-08 -5.117183914395648e-08 6.453598976206136" Properties=species:S:1:pos:R:3:forces:R:3 energy=-25.010297775268555 free_energy=-25.010297775268555 stress="2.4036869945120998e-05 -3.236402257300597e-09 1.618486678012232e-08 -3.236402257300597e-09 2.3988555767573416e-05 -8.29893131992776e-09 1.618486678012232e-08 -8.29893131992776e-09 2.3930027964524925e-05" pbc="T T T"
Cu       1.86299327       1.31733422       3.22679964       0.00000161      -0.00000293       0.00000120
Cu       5.58898064       3.95200654       9.68039851      -0.00000156       0.00000104       0.00000063
B        0.00000153       0.00000009       0.00000024       0.00001446      -0.00000023       0.00000737
Cl       1.68299291       1.19005629       6.45359914       0.00653321       0.00462045      -0.00000081
Cl       5.76898115       4.07928550       6.45359922      -0.00654674      -0.00462896      -0.00000114
Cl       4.74748378       1.19005637       4.68431402      -0.00326927       0.00462559       0.00566757
Cl       2.70449072       4.07928517       8.22288360       0.00326928      -0.00462113      -0.00566591
Cl       2.70449042       4.07928533       4.68431389       0.00326984      -0.00462002       0.00566235
Cl       4.74748383       1.19005604       8.22288329      -0.00327058       0.00462584      -0.00567162
