9
Lattice="6.0077340046414855 2.2351626084208733e-07 3.468566659457443 2.0025782261939336 5.664146073016333 3.468566635358398 3.226867489588784e-08 -6.697811545423179e-09 6.937133263023994" Properties=species:S:1:pos:R:3:forces:R:3 energy=-21.461681365966797 free_energy=-21.461681365966797 stress="3.4141030482714996e-05 7.437022109257896e-09 2.144848387786169e-08 7.437022109257896e-09 3.4173230233136564e-05 7.055286133095251e-09 2.144848387786169e-08 7.055286133095251e-09 3.4130836866097525e-05" pbc="T T T"
Cu       2.00257885       1.41603649       3.46856708       0.00000360       0.00000133       0.00000237
Cu       6.00773415       4.24810969      10.40570262       0.00000080      -0.00000023       0.00000840
B        0.00000045      -0.00000050       0.00000132       0.00000296      -0.00000193       0.00000523
Br       1.84180681       1.30235517       6.93713301       0.00043345       0.00030861      -0.00000133
Br       6.16850482       4.36179161       6.93713263      -0.00043435      -0.00030754      -0.00000332
Br       5.08682983       1.30235516       5.06361798      -0.00021884       0.00030661       0.00037406
Br       2.92348202       4.36179140       8.81064700       0.00021595      -0.00030714      -0.00037810
Br       2.92348229       4.36179141       5.06361779       0.00021675      -0.00030511       0.00037235
Br       5.08682979       1.30235478       8.81064703      -0.00022053       0.00030539      -0.00037961
