9
Lattice="4.270185575492465 -8.663154304100966e-08 2.4653929558985754 1.4233951768333315 4.025969241189806 2.4653928404062566 3.1384783380675684e-08 -1.192562040834859e-07 4.930785857437197" Properties=species:S:1:pos:R:3:forces:R:3 energy=-39.66569137573242 free_energy=-39.66569137573242 stress="-5.288621309773589e-07 6.429369392435547e-08 4.516835971912769e-08 6.429369392435547e-08 -6.394074603122135e-07 -2.2686894141088487e-08 4.516835971912769e-08 -2.2686894141088487e-08 -2.3872701149230124e-07" pbc="T T T"
Cu       1.42339563       1.00649232       2.46539295      -0.00000003      -0.00000058       0.00000082
Cu       4.27018560       3.01947652       7.39617897      -0.00000009       0.00000057      -0.00000068
B       -0.00000046      -0.00000103      -0.00000002       0.00000175       0.00000750       0.00000260
F        1.27995041       0.90506228       4.93078556       0.00011373       0.00007272      -0.00000044
F        4.41363048       3.12090764       4.93078557      -0.00010902      -0.00008023       0.00000129
F        3.63021039       0.90506114       3.57386270      -0.00006118       0.00008172       0.00009608
F        2.06337031       3.12090771       6.28770883       0.00005683      -0.00007904      -0.00008869
F        2.06337024       3.12090792       3.57386299       0.00005722      -0.00008333       0.00008547
F        3.63021038       0.90506159       6.28770906      -0.00005907       0.00008130      -0.00009692
