9
Lattice="6.952551237908868 2.3445067066253433e-07 4.014057165651349 2.3175172047175483 6.55492828190393 4.014057331283102 -1.1665615950062815e-07 1.2036831138197843e-07 8.028114533357035" Properties=species:S:1:pos:R:3:forces:R:3 energy=-17.798398971557617 free_energy=-17.798398971557617 stress="0.00017396971816197038 2.0710462678152908e-08 -1.4921122115651997e-08 2.0710462678152908e-08 0.00017394882161170244 1.0267655170537182e-08 -1.4921122115651997e-08 1.0267655170537182e-08 0.0001739376748446375" pbc="T T T"
Cu       2.31751715       1.63873263       4.01405715       0.00000004       0.00000129      -0.00000010
Cu       6.95255103       4.91619686      12.04217156      -0.00000130       0.00000008      -0.00000034
Bi       0.00000023       0.00000065      -0.00000047      -0.00000169      -0.00000399       0.00000250
I        2.48341919       1.75604279       8.02811443      -0.00586173      -0.00414483      -0.00000014
I        6.78664890       4.79888536       8.02811469       0.00586429       0.00414652      -0.00000027
I        5.71084163       1.75604279       6.16476135       0.00293125      -0.00414541      -0.00507659
I        3.55922664       4.79888550       9.89146797      -0.00293037       0.00414495       0.00507663
I        3.55922658       4.79888578       6.16476106      -0.00293060       0.00414497      -0.00507635
I        5.71084199       1.75604222       9.89146839       0.00293006      -0.00414352       0.00507471
