9
Lattice="5.939804329891883 -2.7259233515634732e-08 3.4293477127734047 1.9799347722168865 5.6001012123589495 3.4293476759040256 8.633790594687038e-08 1.5894546715034084e-08 6.858695276005162" Properties=species:S:1:pos:R:3:forces:R:3 energy=-23.679607391357422 free_energy=-23.679607391357422 stress="0.00029347353847697377 -3.592822039877319e-08 -6.091379844974654e-09 -3.592822039877319e-08 0.00029353328864090145 9.806046641358535e-09 -6.091379844974654e-09 9.806046641358535e-09 0.00029354877187870443" pbc="T T T"
Cu       1.97993440       1.40002527       3.42934728      -0.00000161      -0.00000072      -0.00000158
Cu       5.93980472       4.20007537      10.28804351       0.00000189      -0.00000161       0.00000288
Bi      -0.00000014      -0.00000007       0.00000061       0.00000364       0.00000455      -0.00001237
Cl       2.06910032       1.46307509       6.85869550      -0.00207849      -0.00146864       0.00000008
Cl       5.85063919       4.13702657       6.85869483       0.00207295       0.00146484      -0.00000152
Cl       4.90525430       1.46307476       5.22124104       0.00103820      -0.00146629      -0.00179795
Cl       3.01448494       4.13702606       8.49614939      -0.00104286       0.00147217       0.00180452
Cl       3.01448481       4.13702665       5.22124126      -0.00103574       0.00146746      -0.00179698
Cl       4.90525422       1.46307509       8.49614922       0.00104202      -0.00147176       0.00180288
