9
Lattice="4.575038301017801 1.052645384658464e-07 2.641399731523986 1.5250128417146689 4.313387590821204 2.6413997740209223 -3.8836979988930926e-08 2.4586046292477308e-08 5.28279953031558" Properties=species:S:1:pos:R:3:forces:R:3 energy=-35.987266540527344 free_energy=-35.987266540527344 stress="0.0003265535633545369 -3.287957994757562e-08 -2.4514978491652073e-08 -3.287957994757562e-08 0.000326507753925398 6.320156131778276e-08 -2.4514978491652073e-08 6.320156131778276e-08 0.0003266138955950737" pbc="T T T"
Cu       1.52501307       1.07834724       2.64139984      -0.00000036      -0.00000019      -0.00000036
Cu       4.57503823       3.23504080       7.92419907       0.00000193       0.00000039      -0.00000069
Ga       0.00000013      -0.00000011      -0.00000023      -0.00000210       0.00000063       0.00000297
F        1.52602281       1.07906116       5.28279965      -0.00279635      -0.00197819      -0.00000077
F        4.57402827       3.23432645       5.28279956       0.00279653       0.00197697       0.00000139
F        3.81202694       1.07906115       3.96297446       0.00140062      -0.00198036      -0.00242677
F        2.28802399       3.23432647       6.60262460      -0.00139901       0.00197905       0.00242564
F        2.28802417       3.23432652       3.96297450      -0.00139824       0.00197721      -0.00242427
F        3.81202687       1.07906116       6.60262471       0.00139719      -0.00197545       0.00242260
