9
Lattice="6.030494726269757 1.857065688496384e-08 3.481707765317785 2.0101648557405634 5.6856050127985975 3.4817078874699936 1.5340723096289762e-08 1.6045279031477988e-07 6.963415504064699" Properties=species:S:1:pos:R:3:forces:R:3 energy=-20.271137237548828 free_energy=-20.271137237548828 stress="8.630862430436537e-05 9.204967454934376e-09 1.3259277009680659e-09 9.204967454934376e-09 8.634764526505023e-05 -1.2673041283051134e-08 1.3259277009680659e-09 -1.2673041283051134e-08 8.63431632751599e-05" pbc="T T T"
Cu       2.01016405       1.42140204       3.48170723      -0.00000354       0.00000316      -0.00000183
Cu       6.03049427       4.26420421      10.44512285      -0.00000154       0.00000190      -0.00000207
Ga      -0.00000025      -0.00000027       0.00000010       0.00000307       0.00000401      -0.00000012
Br       2.04565041       1.44649325       6.96341588      -0.00235555      -0.00166476       0.00000125
Br       5.99501006       4.23911164       6.96341584       0.00235024       0.00165832       0.00000118
Br       5.00766962       1.44649281       5.25329292       0.00117725      -0.00166494      -0.00203693
Br       3.03299003       4.23911223       8.67353849      -0.00117466       0.00166309       0.00203645
Br       3.03299032       4.23911172       5.25329266      -0.00117429       0.00166205      -0.00203627
Br       5.00766983       1.44649315       8.67353861       0.00117883      -0.00166288       0.00203830
