9
Lattice="4.575051743070079 3.496273709347534e-08 2.6414075617122887 1.5250172392716785 4.313400394063314 2.6414076333871757 -4.6701515265931166e-08 5.4760545479988505e-08 5.282815204313916" Properties=species:S:1:pos:R:3:forces:R:3 energy=-35.98726272583008 free_energy=-35.98726272583008 stress="0.0003345792938489467 -8.661464079295911e-08 -1.382008374406496e-08 -8.661464079295911e-08 0.00033453479409217834 -3.3434641721896696e-08 -1.382008374406496e-08 -3.3434641721896696e-08 0.000334515527356416" pbc="T T T"
Cu       1.52501694       1.07834992       2.64140761       0.00000044      -0.00000185      -0.00000066
Cu       4.57505148       3.23505023       7.92422323      -0.00000213      -0.00000034       0.00000199
Ga      -0.00000003      -0.00000014      -0.00000000      -0.00000261       0.00000008      -0.00000051
F        1.52603142       1.07906713       5.28281507      -0.00299156      -0.00211471       0.00000004
F        4.57403727       3.23433334       5.28281518       0.00299764       0.00211769      -0.00000113
F        3.81203605       1.07906738       3.96298953       0.00149763      -0.00211680      -0.00259173
F        2.28803327       3.23433312       6.60264064      -0.00149995       0.00211787       0.00259337
F        2.28803332       3.23433336       3.96298969      -0.00149697       0.00211650      -0.00259236
F        3.81203575       1.07906758       6.60264077       0.00149772      -0.00211853       0.00259152
