9
Lattice="5.662269351102545 3.583405977617236e-08 3.2691125700499137 1.8874231305071532 5.338438832777741 3.269112605230839 -2.1799614605106242e-08 2.767299175355193e-08 6.538225177857879" Properties=species:S:1:pos:R:3:forces:R:3 energy=-23.828813552856445 free_energy=-23.828813552856445 stress="0.00010142853716388345 1.607087085631065e-08 1.1411436240393869e-08 1.607087085631065e-08 0.00010143192776013166 2.873352222820813e-09 1.1411436240393869e-08 2.873352222820813e-09 0.00010134153126273304" pbc="T T T"
Cu       1.88742301       1.33460946       3.26911289      -0.00000057      -0.00000051       0.00000074
Cu       5.66226936       4.00382934       9.80733784       0.00000043       0.00000128      -0.00000017
Ga       0.00000002      -0.00000005       0.00000024      -0.00000064       0.00000031      -0.00000112
Cl       1.90346366       1.34595233       6.53822519      -0.00253028      -0.00179049      -0.00000044
Cl       5.64622882       3.99248655       6.53822536       0.00253019       0.00179043      -0.00000047
Cl       4.71053753       1.34595198       4.91756041       0.00126542      -0.00179058      -0.00219283
Cl       2.83915515       3.99248704       8.15888964      -0.00126731       0.00179142       0.00219107
Cl       2.83915486       3.99248685       4.91756019      -0.00126359       0.00178936      -0.00218907
Cl       4.71053747       1.34595205       8.15888959       0.00126636      -0.00179103       0.00219226
