9
Lattice="6.106792441993842 -2.8506991599722662e-08 3.525758249459073 2.0355974799792937 5.757538997698774 3.5257582040943234 4.032227742117093e-08 -2.7048064731279654e-08 7.051516429077911" Properties=species:S:1:pos:R:3:forces:R:3 energy=-24.950498580932617 free_energy=-24.950498580932617 stress="0.00010666781599866226 2.4815451027393465e-08 7.284561842624271e-09 2.4815451027393465e-08 0.00010664184810593724 -2.1292533958217064e-08 7.284561842624271e-09 -2.1292533958217064e-08 0.00010664414003258571" pbc="T T T"
Cu       2.03559733       1.43938397       3.52575810      -0.00000021      -0.00000311      -0.00000113
Cu       6.10679266       4.31815398      10.57727457       0.00000028      -0.00000021      -0.00000152
Ir       0.00000013      -0.00000008       0.00000074      -0.00000073       0.00000562      -0.00001730
Br       2.01705159       1.42627094       7.05151651      -0.00084474      -0.00059721       0.00000029
Br       6.12533846       4.33126856       7.05151649       0.00084148       0.00059589       0.00000083
Br       5.09826685       1.42627034       5.27257597       0.00041857      -0.00059076      -0.00072435
Br       3.04412328       4.33126822       8.83045663      -0.00042141       0.00059723       0.00073122
Br       3.04412298       4.33126881       5.27257598      -0.00041751       0.00059116      -0.00072335
Br       5.09826660       1.42627099       8.83045652       0.00042427      -0.00059853       0.00073524
