9
Lattice="4.802305357333296 3.46546623638272e-08 2.7726124591255825 1.600768482624507 4.527656844193937 2.772612463442978 7.01616805507321e-08 5.4899479218658145e-08 5.545224796727585" Properties=species:S:1:pos:R:3:forces:R:3 energy=-37.13722229003906 free_energy=-37.13722229003906 stress="0.0001963237300515175 3.745244470110265e-08 -1.7281672981539486e-08 3.745244470110265e-08 0.00019621883984655142 -7.776215227295324e-09 -1.7281672981539486e-08 -7.776215227295324e-09 0.000196227862033993" pbc="T T T"
Cu       1.60076799       1.13191496       2.77261308      -0.00000107       0.00000146       0.00000213
Cu       4.80230600       3.39574253       8.31783900       0.00000138      -0.00000114       0.00000412
Ir      -0.00000007      -0.00000011       0.00000005       0.00000190      -0.00000292       0.00000152
F        1.59160452       1.12543446       5.54522417      -0.00392474      -0.00277380      -0.00000101
F        4.81146919       3.40222232       5.54522422       0.00392635       0.00277458      -0.00000171
F        4.00650305       1.12543432       4.15098238       0.00196101      -0.00277210      -0.00339687
F        2.39657081       3.40222234       6.93946702      -0.00196328       0.00277394       0.00339622
F        2.39657084       3.40222262       4.15098227      -0.00196215       0.00277300      -0.00339827
F        4.00650324       1.12543429       6.93946684       0.00196065      -0.00277308       0.00339390
