9
Lattice="6.478705269999223 -8.451588054635159e-08 3.7404823393925115 2.1595683466695568 6.108182056583505 3.740482334163762 -3.989247295719657e-08 -3.461207846604636e-08 7.480964747880841" Properties=species:S:1:pos:R:3:forces:R:3 energy=-22.345806121826172 free_energy=-22.345806121826172 stress="-2.6783134671859443e-05 -2.330913950743252e-08 1.7943059260616678e-09 -2.330913950743252e-08 -2.6768719180836342e-05 -4.2785677223378116e-09 1.7943059260616678e-09 -4.2785677223378116e-09 -2.6760131731862202e-05" pbc="T T T"
Cu       2.15956815       1.52704550       3.74048218      -0.00000198       0.00000019      -0.00000068
Cu       6.47870504       4.58113638      11.22144684      -0.00000120      -0.00000053      -0.00000075
Ir       0.00000005      -0.00000017       0.00000028      -0.00000045       0.00000294      -0.00000467
I        2.17946078       1.54111171       7.48096488      -0.00021990      -0.00015546       0.00000017
I        6.45881273       4.56707021       7.48096491       0.00022017       0.00015525       0.00000057
I        5.38897494       1.54111178       5.62795123       0.00011066      -0.00015540      -0.00019167
I        3.24929921       4.56707003       9.33397822      -0.00011032       0.00015702       0.00019224
I        3.24929886       4.56707039       5.62795107      -0.00010930       0.00015529      -0.00018962
I        5.38897454       1.54111191       9.33397806       0.00011232      -0.00015933       0.00019435
