9
Lattice="5.841044532066239 1.1670617810744646e-08 3.372328681922366 1.947014859204363 5.506989527875858 3.3723286746839167 2.793385048896157e-08 1.0886993143305272e-08 6.7446573154618985" Properties=species:S:1:pos:R:3:forces:R:3 energy=-31.48839569091797 free_energy=-31.48839569091797 stress="0.0002230926911579445 -6.296292820451299e-09 -1.3911298779589742e-08 -6.296292820451299e-09 0.0002231011021649465 -1.1823855672332684e-08 -1.3911298779589742e-08 -1.1823855672332684e-08 0.00022305619495455176" pbc="T T T"
Cu       1.94701539       1.37674742       3.37232873       0.00000137       0.00000084       0.00000103
Cu       5.84104430       4.13024248      10.11698612      -0.00000010       0.00000067       0.00000045
Mo      -0.00000058      -0.00000050       0.00000019       0.00000907       0.00000778      -0.00000253
Cl       1.92918150       1.36413724       6.74465729      -0.00346959      -0.00245398      -0.00000027
Cl       5.85887861       4.14285267       6.74465728       0.00345835       0.00244521      -0.00000063
Cl       4.87645397       1.36413677       5.04304845       0.00173154      -0.00244826      -0.00299986
Cl       2.91160545       4.14285250       8.44626618      -0.00173287       0.00244999       0.00299980
Cl       2.91160529       4.14285260       5.04304838      -0.00173019       0.00244787      -0.00299832
Cl       4.87645373       1.36413700       8.44626611       0.00173242      -0.00245009       0.00300027
