9
Lattice="6.21398202943881 7.519025682160595e-08 3.5876441536904773 2.0713274193805713 5.858598438605806 3.5876441444339764 8.60291229880227e-09 -5.253664930559958e-09 7.175288292480278" Properties=species:S:1:pos:R:3:forces:R:3 energy=-27.819866180419922 free_energy=-27.819866180419922 stress="7.003046630416065e-05 2.902437401530733e-08 6.921750728139386e-09 2.902437401530733e-08 7.003234350122511e-05 -7.157078929509453e-09 6.921750728139386e-09 -7.157078929509453e-09 6.999732431722805e-05" pbc="T T T"
Cu       2.07132700       1.46464962       3.58764416      -0.00000140       0.00000027      -0.00000078
Cu       6.21398189       4.39394830      10.76293297      -0.00000048      -0.00000217       0.00000100
Mo       0.00000016      -0.00000012       0.00000003      -0.00000275       0.00000258       0.00000194
Br       2.04897434       1.44884382       7.17528852      -0.00043604      -0.00030746       0.00000005
Br       6.23633515       4.40975486       7.17528813       0.00043668       0.00030892      -0.00000045
Br       5.18949520       1.44884380       5.36210766       0.00021743      -0.00030629      -0.00037718
Br       3.09581449       4.40975477       8.98846872      -0.00021523       0.00030445       0.00037288
Br       3.09581453       4.40975504       5.36210769      -0.00021639       0.00030697      -0.00037475
Br       5.18949508       1.44884390       8.98846846       0.00021821      -0.00030734       0.00037731
