9
Lattice="6.666877861089104 -1.2332811444373014e-07 3.849123817117861 2.222292529316081 6.285592686762005 3.849123773421799 5.3995501152731024e-08 -1.5335950014097632e-08 7.6982475407127495" Properties=species:S:1:pos:R:3:forces:R:3 energy=-24.404071807861328 free_energy=-24.404071807861328 stress="0.00018053638632409275 -1.178530517620402e-08 6.4735306004592985e-09 -1.178530517620402e-08 0.00018054951215162873 -1.045156317047713e-08 6.4735306004592985e-09 -1.045156317047713e-08 0.0001805540669010952" pbc="T T T"
Cu       2.22229232       1.57139838       3.84912359      -0.00000083       0.00000081      -0.00000048
Cu       6.66687760       4.71419462      11.54737144      -0.00000024       0.00000076       0.00000079
Mo      -0.00000048      -0.00000022      -0.00000003       0.00000523       0.00000186       0.00000149
I        2.24671154       1.58866469       7.69824759      -0.00538749      -0.00381036       0.00000053
I        6.64245957       4.69692793       7.69824759       0.00538313       0.00380647      -0.00000069
I        5.54352227       1.58866466       5.79483292       0.00269350      -0.00380836      -0.00466457
I        3.34564829       4.69692775       9.60166230      -0.00269331       0.00380805       0.00466463
I        3.34564843       4.69692756       5.79483295      -0.00269391       0.00381069      -0.00466640
I        5.54352225       1.58866480       9.60166214       0.00269389      -0.00380991       0.00466490
