9
Lattice="4.2983398919883165 -6.566617069300574e-08 2.481647733543631 1.4327798789385757 4.052513988107653 2.4816477736351428 -1.1682732360370378e-07 -3.3507545342967196e-08 4.963295669438119" Properties=species:S:1:pos:R:3:forces:R:3 energy=-29.034473419189453 free_energy=-29.034473419189453 stress="9.079187293536961e-05 -6.681351294446358e-08 9.344302220881673e-09 -6.681351294446358e-08 9.097051952267066e-05 -5.56099806203747e-08 9.344302220881673e-09 -5.56099806203747e-08 9.10281523829326e-05" pbc="T T T"
Cu       1.43277968       1.01312871       2.48164796      -0.00000074      -0.00000015       0.00000146
Cu       4.29833979       3.03938525       7.44494343       0.00000007      -0.00000002       0.00000005
N        0.00000010      -0.00000031       0.00000064       0.00000111      -0.00000139       0.00000146
F        1.38080973       0.97638000       4.96329567      -0.00626764      -0.00443220       0.00000120
F        4.35030978       3.07613379       4.96329549       0.00626937       0.00443619       0.00000025
F        3.60793520       0.97637964       3.67746416       0.00313514      -0.00443554      -0.00543088
F        2.12318503       3.07613365       6.24912668      -0.00313391       0.00443238       0.00542739
F        2.12318442       3.07613432       3.67746382      -0.00313666       0.00443527      -0.00543243
F        3.60793481       0.97638035       6.24912665       0.00313348      -0.00443363       0.00542983
