9
Lattice="4.298331798584762 -7.081794241415753e-08 2.481643129412658 1.4327771925631223 4.052506157707128 2.4816431413013498 -5.495900552892402e-09 1.0674406231724076e-08 4.963286268344507" Properties=species:S:1:pos:R:3:forces:R:3 energy=-29.034469604492188 free_energy=-29.034469604492188 stress="7.653697684872895e-05 8.309434917919134e-09 2.8220483727636747e-08 8.309434917919134e-09 7.6746815466322e-05 -8.73648442478725e-09 2.8220483727636747e-08 -8.73648442478725e-09 7.647216989425942e-05" pbc="T T T"
Cu       1.43277718       1.01312622       2.48164327       0.00000204       0.00000027      -0.00000074
Cu       4.29833209       3.03937975       7.44492934      -0.00000116      -0.00000162      -0.00000128
N       -0.00000032      -0.00000003      -0.00000023      -0.00000028       0.00000142       0.00000066
F        1.38078758       0.97636477       4.96328625      -0.00565633      -0.00399855       0.00000000
F        4.35032142       3.07614169       4.96328620       0.00565854       0.00400114      -0.00000060
F        3.60793790       0.97636418       3.67743991       0.00282690      -0.00400051      -0.00489095
F        2.12317139       3.07614178       6.24913248      -0.00282937       0.00400022       0.00489384
F        2.12317079       3.07614194       3.67744000      -0.00282820       0.00399923      -0.00489306
F        3.60793768       0.97636409       6.24913301       0.00282769      -0.00400117       0.00489256
