9
Lattice="5.5856511737355925 -8.422426507836206e-09 3.2248772828828005 1.861883693527981 5.2662024034982124 3.2248773229101655 -3.4021511886416305e-08 2.4966460393454852e-08 6.449754624692563" Properties=species:S:1:pos:R:3:forces:R:3 energy=-21.37027359008789 free_energy=-21.37027359008789 stress="-8.371899639314506e-06 -9.69958069418908e-09 4.4745314120575586e-09 -9.69958069418908e-09 -8.326463103003334e-06 -4.379294260559163e-09 4.4745314120575586e-09 -4.379294260559163e-09 -8.333953701367136e-06" pbc="T T T"
Cu       1.86188359       1.31655096       3.22487728       0.00000042       0.00000132      -0.00000027
Cu       5.58565138       3.94965146       9.67463163       0.00000113      -0.00000151      -0.00000028
N       -0.00000013      -0.00000031       0.00000005       0.00000073      -0.00000080       0.00000098
Cl       1.78366240       1.26123988       6.44975474      -0.00226982      -0.00160483       0.00000079
Cl       5.66387206       4.00496246       6.44975428       0.00227126       0.00160529      -0.00000118
Cl       4.69382018       1.26123959       4.76957445       0.00113352      -0.00160570      -0.00196591
Cl       2.75371509       4.00496230       8.12993504      -0.00113625       0.00160539       0.00196711
Cl       2.75371468       4.00496307       4.76957447      -0.00113749       0.00160603      -0.00196693
Cl       4.69382010       1.26124029       8.12993495       0.00113645      -0.00160524       0.00196572
