9
Lattice="6.075957179413645 1.9516750810098854e-07 3.507954981944072 2.025319221885952 5.728467543530856 3.507955019918039 5.470967728468332e-09 5.037699673494349e-08 7.0159099544121535" Properties=species:S:1:pos:R:3:forces:R:3 energy=-20.81718635559082 free_energy=-20.81718635559082 stress="0.00020837072224821895 -1.6936931857003401e-09 4.373904849419574e-10 -1.6936931857003401e-09 0.00020837406918872148 8.489732805649908e-10 4.373904849419574e-10 8.489732805649908e-10 0.00020836778276134282" pbc="T T T"
Cu       2.02531852       1.43211741       3.50795528      -0.00000203       0.00000085       0.00000138
Cu       6.07595796       4.29635201      10.52386467       0.00000140       0.00000348      -0.00000104
P        0.00000038      -0.00000009      -0.00000015       0.00000039       0.00000029      -0.00000007
Br       1.98215555       1.40159507       7.01590998      -0.00109237      -0.00077362      -0.00000025
Br       6.11912016       4.32687157       7.01590998       0.00109509       0.00077410       0.00000016
Br       5.08487986       1.40159552       5.22455168       0.00054602      -0.00077452      -0.00094576
Br       3.01639674       4.32687233       8.80726847      -0.00054772       0.00077240       0.00094630
Br       3.01639663       4.32687192       5.22455155      -0.00054763       0.00077152      -0.00094643
Br       5.08487984       1.40159547       8.80726839       0.00054695      -0.00077455       0.00094599
