9
Lattice="4.547943909822032 1.7716976205827932e-08 2.6257565596860952 1.5159812731577105 4.287842683577971 2.625756640780749 -8.820712817972136e-08 3.694840092923561e-08 5.251513272151355" Properties=species:S:1:pos:R:3:forces:R:3 energy=-39.2531852722168 free_energy=-39.2531852722168 stress="-0.00011400543007766828 -4.851997914556705e-08 -6.407648633910412e-09 -4.851997914556705e-08 -0.00011419076327001676 2.0894429297868555e-08 -6.407648633910412e-09 2.0894429297868555e-08 -0.00011404758697608486" pbc="T T T"
Cu       1.51598121       1.07196040       2.62575664      -0.00000018      -0.00000016      -0.00000021
Cu       4.54794370       3.21588197       7.87726994      -0.00000016       0.00000066       0.00000024
P        0.00000009       0.00000014       0.00000006      -0.00000506      -0.00001079      -0.00000603
F        1.33489955       0.94391615       5.25151320       0.00715919       0.00506721       0.00000107
F        4.72902548       3.34392648       5.25151321      -0.00715208      -0.00506034       0.00000249
F        3.88049413       0.94391637       3.78181339      -0.00357723       0.00506181       0.00619811
F        2.18343102       3.34392642       6.72121284       0.00357557      -0.00505996      -0.00619394
F        2.18343116       3.34392653       3.78181354       0.00357624      -0.00506131       0.00619605
F        3.88049398       0.94391646       6.72121288      -0.00357624       0.00506281      -0.00619781
