9
Lattice="6.555071429655544 -1.7968654427587416e-08 3.7845722939400375 2.1850237973625712 6.180180617017999 3.784572286287181 -3.962902236947985e-09 -1.2175026410306692e-08 7.569144594744054" Properties=species:S:1:pos:R:3:forces:R:3 energy=-17.910202026367188 free_energy=-17.910202026367188 stress="-0.0002636793360579759 -3.897182132561738e-09 1.022995732569143e-08 -3.897182132561738e-09 -0.00026366006932221353 -6.367119276262656e-09 1.022995732569143e-08 -6.367119276262656e-09 -0.0002636706631164998" pbc="T T T"
Cu       2.18502386       1.54504545       3.78457218      -0.00000021       0.00000199      -0.00000014
Cu       6.55507141       4.63513538      11.35371705      -0.00000034      -0.00000108      -0.00000045
P        0.00000004       0.00000006       0.00000005       0.00000025      -0.00000032      -0.00000005
I        2.24395793       1.58671791       7.56914457      -0.00126930      -0.00089748       0.00000023
I        6.49613729       4.59346264       7.56914453       0.00126956       0.00089800       0.00000025
I        5.43309248       1.58671782       5.72789687       0.00063477      -0.00089766      -0.00109898
I        3.30700270       4.59346261       9.41039233      -0.00063487       0.00089733       0.00110011
I        3.30700274       4.59346265       5.72789683      -0.00063496       0.00089726      -0.00110032
I        5.43309246       1.58671782       9.41039227       0.00063516      -0.00089803       0.00109950
