9
Lattice="6.499276789562165 8.508782089658145e-09 3.7523592411448123 2.166425570561855 6.127576736668522 3.75235930000171 -7.200485054294059e-08 2.1169578416198296e-08 7.504718607005621" Properties=species:S:1:pos:R:3:forces:R:3 energy=-22.270816802978516 free_energy=-22.270816802978516 stress="-6.745891005266458e-05 -3.1201128791735755e-08 -1.2883747402270274e-08 -3.1201128791735755e-08 -6.745119753759354e-05 1.474052790939595e-08 -1.2883747402270274e-08 1.474052790939595e-08 -6.743965059285983e-05" pbc="T T T"
Cu       2.16642568       1.53189413       3.75235934      -0.00000005       0.00000037      -0.00000006
Cu       6.49927650       4.59568291      11.25707776       0.00000040       0.00000097       0.00000039
Ru       0.00000016       0.00000004       0.00000018       0.00000230      -0.00000078      -0.00000207
I        2.18970767       1.54835691       7.50471866      -0.00157721      -0.00111585      -0.00000051
I        6.47599493       4.57921983       7.50471865       0.00157432       0.00111217       0.00000009
I        5.40442282       1.54835699       5.64870177       0.00078905      -0.00111595      -0.00136637
I        3.26127935       4.57921945       9.36073523      -0.00079007       0.00111952       0.00136910
I        3.26127924       4.57921967       5.64870149      -0.00078722       0.00111507      -0.00136629
I        5.40442281       1.54835711       9.36073551       0.00078838      -0.00111544       0.00136563
