9
Lattice="4.802935200174688 3.727508783991888e-08 2.7729761007441294 1.6009784452152884 4.52825042736859 2.772976083399874 9.911105952751566e-08 4.883983166817308e-08 5.54595202982287" Properties=species:S:1:pos:R:3:forces:R:3 energy=-38.593379974365234 free_energy=-38.593379974365234 stress="-0.00012268075079191476 -9.649698995417566e-08 5.373784084383715e-09 -9.649698995417566e-08 -0.0001226272725034505 -8.894326164465838e-09 5.373784084383715e-09 -8.894326164465838e-09 -0.00012256296759005636" pbc="T T T"
Cu       1.60097870       1.13206178       2.77297606       0.00000151      -0.00000307       0.00000138
Cu       4.80293583       3.39618753       8.31892829       0.00000071      -0.00000174       0.00000279
Ru      -0.00000012      -0.00000002       0.00000040       0.00000290       0.00000111      -0.00000070
F        1.57907784       1.11657711       5.54595198      -0.00252872      -0.00178762       0.00000132
F        4.82483533       3.41167408       5.54595177       0.00252676       0.00178667       0.00000024
F        4.01339555       1.11657783       4.14049785       0.00126684      -0.00179210      -0.00219488
F        2.39051773       3.41167379       6.95140595      -0.00126610       0.00179113       0.00219390
F        2.39051792       3.41167336       4.14049859      -0.00126919       0.00179553      -0.00219543
F        4.01339628       1.11657666       6.95140595       0.00126532      -0.00179000       0.00219152
