9
Lattice="5.740543957024079 -8.306674569606453e-08 3.3143045127183917 1.9135146399514478 5.412236450537934 3.3143043985309775 4.3986587433441026e-08 -1.0874729749617314e-07 6.628608949249834" Properties=species:S:1:pos:R:3:forces:R:3 energy=-28.507068634033203 free_energy=-28.507068634033203 stress="9.627594408812001e-05 9.562131531026807e-09 2.6331642644095155e-08 9.562131531026807e-09 9.623986989026889e-05 -2.335981186263325e-08 2.6331642644095155e-08 -2.335981186263325e-08 9.628212137613446e-05" pbc="T T T"
Cu       1.91351435       1.35305941       3.31430469      -0.00000244       0.00000104       0.00000042
Cu       5.74054370       4.05917707       9.94291334      -0.00000139      -0.00000023      -0.00000212
Ru       0.00000011       0.00000016      -0.00000017      -0.00000254      -0.00000096      -0.00000096
Cl       1.89440243       1.33954437       6.62860901      -0.00062394      -0.00044104      -0.00000048
Cl       5.75965594       4.07269118       6.62860918       0.00062904       0.00044432       0.00000040
Cl       4.79334304       1.33954458       4.95490507       0.00031185      -0.00044128      -0.00054058
Cl       2.86071602       4.07269209       8.30231272      -0.00031255       0.00044072       0.00054035
Cl       2.86071593       4.07269151       4.95490471      -0.00031193       0.00044009      -0.00054079
Cl       4.79334311       1.33954465       8.30231295       0.00031386      -0.00044250       0.00054350
