9
Lattice="6.464662887789845 4.362825262687066e-08 3.7323747794556383 2.1548876857375614 6.094942435927303 3.73237475288389 2.1631974662476313e-08 -1.724746273022916e-08 7.464749521443654" Properties=species:S:1:pos:R:3:forces:R:3 energy=-21.522550582885742 free_energy=-21.522550582885742 stress="-0.00014047909644432366 4.000436870654767e-09 3.931599490414328e-09 4.000436870654767e-09 -0.00014048627053853124 -3.185778529868344e-09 3.931599490414328e-09 -3.185778529868344e-09 -0.00014049028686713427" pbc="T T T"
Cu       2.15488750       1.52373550       3.73237507      -0.00000006      -0.00000010       0.00000080
Cu       6.46466302       4.57120668      11.19712382      -0.00000012      -0.00000090      -0.00000196
Rh       0.00000072      -0.00000009      -0.00000011      -0.00001189       0.00000067      -0.00000217
I        2.17133552       1.53536626       7.46474964      -0.00689066      -0.00487206      -0.00000076
I        6.44821433       4.55957610       7.46474988       0.00689824       0.00487673       0.00000037
I        5.37899497       1.53536612       5.61280651       0.00344650      -0.00487470      -0.00596975
I        3.24055563       4.55957655       9.31669274      -0.00344555       0.00487414       0.00596883
I        3.24055557       4.55957634       5.61280634      -0.00344522       0.00487185      -0.00596755
I        5.37899513       1.53536637       9.31669231       0.00344883      -0.00487568       0.00597216
