9
Lattice="5.7163239225229106 1.0637152129984203e-07 3.300321218159892 1.9054413722539356 5.389401580341067 3.30032127972001 -3.7103041575312985e-08 4.9159610007212326e-08 6.6006425005841605" Properties=species:S:1:pos:R:3:forces:R:3 energy=-26.996360778808594 free_energy=-26.996360778808594 stress="0.0003333096392452717 -1.87793087746968e-08 -4.831935029869783e-08 -1.87793087746968e-08 0.0003333156928420067 2.2547752109858266e-08 -4.831935029869783e-08 2.2547752109858266e-08 0.00033333184546791017" pbc="T T T"
Cu       1.90544167       1.34735016       3.30032116       0.00000147      -0.00000260      -0.00000113
Cu       5.71632370       4.04205089       9.90096331       0.00000014      -0.00000093      -0.00000084
Rh      -0.00000016       0.00000027      -0.00000011       0.00000382      -0.00000592       0.00000105
Cl       1.88330433       1.33169743       6.60064257      -0.00647837      -0.00458138       0.00000060
Cl       5.73846045       4.05770483       6.60064259       0.00647929       0.00458145      -0.00000001
Cl       4.77467139       1.33169727       4.93131098       0.00324039      -0.00458147      -0.00561222
Cl       2.84709353       4.05770420       8.26997404      -0.00324272       0.00458559       0.00561786
Cl       2.84709389       4.05770437       4.93131092      -0.00324014       0.00458317      -0.00561363
Cl       4.77467223       1.33169744       8.26997451       0.00323629      -0.00457811       0.00560859
