9
Lattice="6.107178142360068 -2.3307999636310713e-08 3.525980967759549 2.035726037096622 5.75790286252939 3.525980947636184 3.1911678177856615e-08 -2.0809995770605805e-09 7.051961880246456" Properties=species:S:1:pos:R:3:forces:R:3 energy=-25.38678741455078 free_energy=-25.38678741455078 stress="0.00018018549599219114 2.0045831661263946e-09 5.0529060935389225e-09 2.0045831661263946e-09 0.00018018504488281906 2.3233601709193863e-09 5.0529060935389225e-09 2.3233601709193863e-09 0.00018016369722317904" pbc="T T T"
Cu       2.03572607       1.43947589       3.52598087       0.00000038       0.00000235      -0.00000003
Cu       6.10717845       4.31842689      10.57794333       0.00000001      -0.00000161       0.00000285
Ru      -0.00000014      -0.00000043      -0.00000022       0.00000095       0.00000214       0.00000071
Br       2.02435024       1.43143195       7.05196201      -0.00255954      -0.00181040      -0.00000009
Br       6.11855414       4.32647105       7.05196180       0.00255823       0.00180854      -0.00000061
Br       5.09500294       1.43143223       5.27911961       0.00127999      -0.00180970      -0.00221677
Br       3.04790103       4.32647092       8.82480438      -0.00127923       0.00180835       0.00221527
Br       3.04790123       4.32647095       5.27911947      -0.00127927       0.00180966      -0.00221626
Br       5.09500290       1.43143191       8.82480395       0.00127854      -0.00180934       0.00221497
