9
Lattice="4.762401614167385 1.3929832148930527e-08 2.7495736984721066 1.5874672202414222 4.490035122032912 2.749573694339874 4.2319879807745e-08 2.486374768313056e-08 5.499147323644112" Properties=species:S:1:pos:R:3:forces:R:3 energy=-35.943668365478516 free_energy=-35.943668365478516 stress="0.0003123325586784631 -6.365045379652656e-08 1.4516784219154033e-08 -6.365045379652656e-08 0.00031237828079611063 -1.9816853935594736e-08 1.4516784219154033e-08 -1.9816853935594736e-08 0.000312443618895486" pbc="T T T"
Cu       1.58746708       1.12250933       2.74957334       0.00000051       0.00000333      -0.00000194
Cu       4.76240195       3.36752621       8.24872101       0.00000165       0.00000052       0.00000043
Rh       0.00000020       0.00000014       0.00000005      -0.00000270      -0.00000028      -0.00000256
F        1.58683028       1.12205832       5.49914736      -0.00507141      -0.00358552       0.00000058
F        4.76303914       3.36797669       5.49914741       0.00507105       0.00358462       0.00000006
F        3.96898645       1.12205844       4.12380900       0.00253762      -0.00358771      -0.00439326
F        2.38088211       3.36797663       6.87448583      -0.00253772       0.00358712       0.00439408
F        2.38088230       3.36797659       4.12380896      -0.00253693       0.00358821      -0.00439409
F        3.96898615       1.12205838       6.87448583       0.00253797      -0.00359016       0.00439673
