9
Lattice="5.910205277312124 -2.9098832095620293e-08 3.412258484891585 1.9700683788740463 5.572194960037378 3.412258518600811 1.599107308861889e-08 5.259256427656488e-08 6.824516942085813" Properties=species:S:1:pos:R:3:forces:R:3 energy=-24.52188491821289 free_energy=-24.52188491821289 stress="0.0002311627467861399 -2.8619629333093144e-08 9.453787974678107e-09 -2.8619629333093144e-08 0.0002311530988663435 4.4883217142910325e-09 9.453787974678107e-09 4.4883217142910325e-09 0.00023117201635614038" pbc="T T T"
Cu       1.97006877       1.39304944       3.41225827       0.00000227       0.00000239      -0.00000116
Cu       5.91020555       4.17914624      10.23677559      -0.00000051      -0.00000050       0.00000016
Sb      -0.00000003      -0.00000009       0.00000015      -0.00000055       0.00000111      -0.00000116
Cl       1.97120253       1.39385067       6.82451684       0.00112802       0.00079694      -0.00000019
Cl       5.90907080       4.17834455       6.82451678      -0.00112811      -0.00079756       0.00000007
Cl       4.92460443       1.39385068       5.11937023      -0.00056335       0.00079605       0.00097436
Cl       2.95566998       4.17834379       8.52966398       0.00056202      -0.00079661      -0.00097386
Cl       2.95566924       4.17834374       5.11936991       0.00056341      -0.00079778       0.00097590
Cl       4.92460345       1.39385092       8.52966404      -0.00056320       0.00079598      -0.00097416
