9
Lattice="6.854114170322292 2.3134528957201956e-07 3.9572245545180524 2.2847049039479996 6.462120771620738 3.957224619655517 -6.710800577357052e-09 7.503149901921068e-08 7.914449120659638" Properties=species:S:1:pos:R:3:forces:R:3 energy=-17.881099700927734 free_energy=-17.881099700927734 stress="3.580592601792887e-05 2.68117403834367e-08 3.981063034785848e-09 2.68117403834367e-08 3.578825999284163e-05 -5.105644795833086e-09 3.981063034785848e-09 -5.105644795833086e-09 3.5764827771345153e-05" pbc="T T T"
Cu       2.28470483       1.61553002       3.95722487       0.00000095      -0.00000091       0.00000048
Cu       6.85411438       4.84659128      11.87167348      -0.00000004       0.00000112      -0.00000073
Sb       0.00000065       0.00000002       0.00000084      -0.00000490      -0.00000043      -0.00000621
I        2.40987724       1.70404041       7.91444908      -0.00041997      -0.00029801       0.00000054
I        6.72894155       4.75808054       7.91444927       0.00042349       0.00029999       0.00000013
I        5.64917572       1.70403989       6.04423888       0.00020910      -0.00029711      -0.00036262
I        3.48964327       4.75808074       9.78465901      -0.00020949       0.00029778       0.00036386
I        3.48964275       4.75808096       6.04423875      -0.00020973       0.00029506      -0.00036085
I        5.64917587       1.70404046       9.78465905       0.00021052      -0.00029752       0.00036524
