9
Lattice="5.045029047332587 -1.4855707494580014e-07 2.912748868369587 1.6816763276353446 4.756498226444264 2.9127486629735664 1.182074814336609e-07 -1.6797241968367635e-07 5.825497531997792" Properties=species:S:1:pos:R:3:forces:R:3 energy=-36.52433395385742 free_energy=-36.52433395385742 stress="2.1840138288098387e-05 -1.1375342268138411e-07 9.102702591690104e-08 -1.1375342268138411e-07 2.1883059162064455e-05 -1.2025411422200705e-07 9.102702591690104e-08 -1.2025411422200705e-07 2.1947684217593633e-05" pbc="T T T"
Cu       1.68167625       1.18912419       2.91274871       0.00000061      -0.00000109      -0.00000032
Cu       5.04502927       3.56737330       8.73824651      -0.00000022      -0.00000013       0.00000146
Sb       0.00000006      -0.00000023       0.00000008      -0.00000050       0.00000060       0.00001080
F        1.59225820       1.12589638       5.82549742       0.00010380       0.00007430       0.00000031
F        5.13444720       3.63060198       5.82549733      -0.00010368      -0.00007430      -0.00000014
F        4.24889958       1.12589685       4.29168480      -0.00004902       0.00007047       0.00008518
F        2.47780564       3.63060155       7.35930993       0.00005245      -0.00007510      -0.00009108
F        2.47780582       3.63060147       4.29168539       0.00004411      -0.00006287       0.00007719
F        4.24890000       1.12589612       7.35930998      -0.00004761       0.00006822      -0.00008357
