9
Lattice="5.044192615398072 -1.732716762675405e-08 2.9122660097645783 1.6813975479174645 4.755710460818927 2.9122659650990697 -5.4856392836943194e-08 -9.349316683555215e-08 5.824532114543188" Properties=species:S:1:pos:R:3:forces:R:3 energy=-36.524330139160156 free_energy=-36.524330139160156 stress="-7.979057409102097e-05 -7.434304905018507e-08 -1.0833502983587096e-08 -7.434304905018507e-08 -7.9740522778593e-05 1.1447874648240486e-08 -1.0833502983587096e-08 1.1447874648240486e-08 -7.969134458107874e-05" pbc="T T T"
Cu       1.68139741       1.18892740       2.91226612       0.00000042      -0.00000023       0.00000009
Cu       5.04419324       3.56678292       8.73679835       0.00000099       0.00000042       0.00000102
Sb      -0.00000004      -0.00000002      -0.00000013       0.00000619       0.00000213      -0.00001251
F        1.59219334       1.12585089       5.82453196       0.00134584       0.00095236       0.00000001
F        5.13339704       3.62985981       5.82453206      -0.00135213      -0.00095665      -0.00000039
F        4.24809560       1.12585071       4.29114599      -0.00067352       0.00095297       0.00116709
F        2.47749413       3.62985934       7.35791786       0.00066951      -0.00094716      -0.00116056
F        2.47749417       3.62985959       4.29114586       0.00067359      -0.00095236       0.00116715
F        4.24809558       1.12585043       7.35791801      -0.00067082       0.00094847      -0.00116202
