9
Lattice="6.264901576163689 4.360274668682656e-08 3.6170424896767854 2.0883005727757653 5.906605697700778 3.617042478801484 7.907486751068242e-09 -7.728007154362247e-09 7.234084965657374" Properties=species:S:1:pos:R:3:forces:R:3 energy=-21.088834762573242 free_energy=-21.088834762573242 stress="0.00016747582412790507 4.613571302769515e-09 1.1986037717903741e-09 4.613571302769515e-09 0.00016747412155382335 3.5981111423666334e-09 1.1986037717903741e-09 3.5981111423666334e-09 0.0001674697414273396" pbc="T T T"
Cu       2.08830044       1.47665130       3.61704240      -0.00000050      -0.00000028      -0.00000023
Cu       6.26490164       4.42995429      10.85112784       0.00000003      -0.00000124       0.00000061
Sb       0.00000028       0.00000009      -0.00000083      -0.00000392      -0.00000013       0.00001054
Br       2.11340287       1.49440134       7.23408502       0.00044300       0.00031341      -0.00000025
Br       6.23979911       4.41220438       7.23408481      -0.00044014      -0.00031079       0.00000009
Br       5.20820040       1.49440150       5.44730276      -0.00021909       0.00031017       0.00037958
Br       3.14500150       4.41220449       9.02086735       0.00022282      -0.00031493      -0.00038617
Br       3.14500199       4.41220424       5.44730280       0.00021958      -0.00031102       0.00038095
Br       5.20820040       1.49440129       9.02086756      -0.00022180       0.00031481      -0.00038511
