9
Lattice="6.854889252798826 -9.135470402925333e-08 3.957672312029681 2.2849629890106153 6.462851701428245 3.9576723278357684 2.7142174610177592e-08 3.8550857597193786e-08 7.915344577047819" Properties=species:S:1:pos:R:3:forces:R:3 energy=-17.881059646606445 free_energy=-17.881059646606445 stress="0.00013236714585218579 -1.6329929630742868e-09 -2.1521566750948296e-09 -1.6329929630742868e-09 0.0001323711039731279 2.424057177208283e-09 -2.1521566750948296e-09 2.424057177208283e-09 0.00013236860104370862" pbc="T T T"
Cu       2.28496290       1.61571253       3.95767234       0.00000016      -0.00000022      -0.00000008
Cu       6.85488949       4.84713862      11.87301681       0.00000001      -0.00000019      -0.00000109
Sb       0.00000025      -0.00000021       0.00000072      -0.00000253       0.00000168      -0.00000760
I        2.41107553       1.70488795       7.91534466      -0.00650714      -0.00460079       0.00000051
I        6.72877669       4.75796389       7.91534466       0.00650744       0.00460143       0.00000082
I        5.64935131       1.70488783       6.04572530       0.00325365      -0.00460136      -0.00563492
I        3.49050109       4.75796373       9.78496366      -0.00325438       0.00460242       0.00563723
I        3.49050072       4.75796378       6.04572506      -0.00325286       0.00459969      -0.00563312
I        5.64935109       1.70488849       9.78496362       0.00325564      -0.00460270       0.00563835
