9
Lattice="6.264961268778252 4.706307136159441e-08 3.617077138840877 2.088320432133758 5.906662244929447 3.6170771997464573 -6.27045356660601e-08 3.025500162567741e-08 7.234154386289132" Properties=species:S:1:pos:R:3:forces:R:3 energy=-21.08883285522461 free_energy=-21.08883285522461 stress="0.0001654415827943012 -1.6515407930128845e-09 -1.218211642672884e-10 -1.6515407930128845e-09 0.0001654287480050698 -7.997227768896664e-09 -1.218211642672884e-10 -7.997227768896664e-09 0.0001654424995649606" pbc="T T T"
Cu       2.08832006       1.47666500       3.61707732      -0.00000151      -0.00000114       0.00000057
Cu       6.26496101       4.42999707      10.85123151       0.00000026       0.00000048       0.00000041
Sb       0.00000007       0.00000022       0.00000022       0.00000168      -0.00000086       0.00000071
Br       2.11332947       1.49434944       7.23415431       0.00079416       0.00056120      -0.00000016
Br       6.23995234       4.41231300       7.23415429      -0.00079461      -0.00056134      -0.00000029
Br       5.20829657       1.49434966       5.44727424      -0.00039703       0.00056166       0.00068827
Br       3.14498499       4.41231285       9.02103425       0.00039717      -0.00056102      -0.00068770
Br       3.14498519       4.41231250       5.44727414       0.00039681      -0.00056083       0.00068666
Br       5.20829684       1.49434958       9.02103460      -0.00039700       0.00056184      -0.00068849
