9
Lattice="5.910278750754168 5.458491808184505e-08 3.4123010184953024 1.9700929594727006 5.572264122356704 3.4123010339253277 2.6218888835817178e-08 3.743740802795477e-08 6.824601991578135" Properties=species:S:1:pos:R:3:forces:R:3 energy=-24.521881103515625 free_energy=-24.521881103515625 stress="0.00021687128173653036 1.8655011757573448e-08 5.695094618118901e-09 1.8655011757573448e-08 0.0002168746868846938 -5.423366755685777e-10 5.695094618118901e-09 -5.423366755685777e-10 0.00021683740487787873" pbc="T T T"
Cu       1.97009319       1.39306599       3.41230103       0.00000093       0.00000032      -0.00000000
Cu       5.91027853       4.17919792      10.23690368      -0.00000129      -0.00000128       0.00000343
Sb       0.00000013       0.00000019      -0.00000021      -0.00000219      -0.00000196      -0.00000022
Cl       1.97111648       1.39379011       6.82460194       0.00211100       0.00149226      -0.00000012
Cl       5.90925489       4.17847430       6.82460201      -0.00210997      -0.00149100      -0.00000071
Cl       4.92472082       1.39379016       5.11933793      -0.00105505       0.00149320       0.00182756
Cl       2.95565110       4.17847425       8.52986597       0.00105620      -0.00149313      -0.00182914
Cl       2.95565127       4.17847415       5.11933773       0.00105688      -0.00149224       0.00182830
Cl       4.92472051       1.39378979       8.52986610      -0.00105660       0.00149379      -0.00182918
