9
Lattice="5.891818262250306 -8.854523785239038e-08 3.4016426989045216 1.9639393707862074 5.554859180607921 3.4016426408507265 1.0111653382841477e-07 3.991295054939644e-10 6.803285222670043" Properties=species:S:1:pos:R:3:forces:R:3 energy=-35.697898864746094 free_energy=-35.697898864746094 stress="0.0001388557575410232 3.869232756414931e-08 5.346185272259163e-09 3.869232756414931e-08 0.00013884289364796132 -8.782180316302401e-09 5.346185272259163e-09 -8.782180316302401e-09 0.00013879749167244881" pbc="T T T"
Cu       1.96393925       1.38871546       3.40164283      -0.00000082       0.00000321       0.00000044
Cu       5.89181888       4.16614422      10.20492804       0.00000185      -0.00000048       0.00000034
Ta      -0.00000017       0.00000026       0.00000040      -0.00000345      -0.00000494      -0.00000640
Cl       1.93460512       1.36797208       6.80328514      -0.00159788      -0.00112945      -0.00000015
Cl       5.92115245       4.18688642       6.80328549       0.00160335       0.00113147      -0.00000084
Cl       4.92451585       1.36797215       5.07705930       0.00079625      -0.00112499      -0.00137913
Cl       2.93124227       4.18688673       8.52951084      -0.00080034       0.00113013       0.00138330
Cl       2.93124176       4.18688667       5.07705932      -0.00079748       0.00112627      -0.00138074
Cl       4.92451541       1.36797246       8.52951094       0.00079848      -0.00113119       0.00138327
