9
Lattice="5.1655868287496505 2.1009796627013926e-07 2.9823535816603597 1.721862278669195 4.870163691667152 2.9823539205585856 -3.448721221345262e-07 1.7120250058036237e-07 5.964707760656837" Properties=species:S:1:pos:R:3:forces:R:3 energy=-49.0531005859375 free_energy=-49.0531005859375 stress="0.00016742439765948802 5.704436034648097e-08 3.0432978803673905e-08 5.704436034648097e-08 0.0001673458464210853 -9.638461051508784e-08 3.0432978803673905e-08 -9.638461051508784e-08 0.00016724583110772073" pbc="T T T"
Cu       1.72186186       1.21754038       2.98235359      -0.00000043      -0.00000094      -0.00000005
Cu       5.16558665       3.65262319       8.94706174      -0.00000039       0.00000048       0.00000073
Ta      -0.00000027       0.00000007       0.00000058       0.00000153      -0.00000151      -0.00000372
F        1.58483893       1.12065069       5.96470771      -0.00121361      -0.00085795       0.00000071
F        5.30260958       3.74951287       5.96470775       0.00121528       0.00085950       0.00000043
F        4.37316717       1.12065116       4.35486483       0.00060222      -0.00085235      -0.00104260
F        2.51428145       3.74951418       7.57455045      -0.00060374       0.00085253       0.00104398
F        2.51428272       3.74951293       4.35486453      -0.00060669       0.00085771      -0.00104922
F        4.37316722       1.12065061       7.57455036       0.00060549      -0.00085688       0.00105000
