9
Lattice="6.314110395689589 1.1686458311284928e-07 3.645453231063221 2.104703585663237 5.953000353652351 3.6454532133055597 -3.0360521064601e-08 -4.321671770718567e-08 7.290906514712427" Properties=species:S:1:pos:R:3:forces:R:3 energy=-31.519367218017578 free_energy=-31.519367218017578 stress="9.241633233614266e-05 4.2167282998661904e-08 5.726569440867024e-09 4.2167282998661904e-08 9.237287304131314e-05 3.737909093359804e-09 5.726569440867024e-09 3.737909093359804e-09 9.237693302566186e-05" pbc="T T T"
Cu       2.10470393       1.48824972       3.64545316       0.00000088      -0.00000107       0.00000002
Cu       6.31411065       4.46475002      10.93636020       0.00000099      -0.00000120       0.00000148
Ta       0.00000041      -0.00000007      -0.00000013      -0.00000096      -0.00000043       0.00000212
Br       2.06414734       1.45957272       7.29090649      -0.00132081      -0.00093261       0.00000046
Br       6.35466636       4.49342800       7.29090623       0.00132088       0.00093563      -0.00000064
Br       5.28203695       1.45957240       5.43305681       0.00065832      -0.00093103      -0.00114122
Br       3.13677652       4.49342842       9.14875612      -0.00065825       0.00092956       0.00113764
Br       3.13677682       4.49342840       5.43305679      -0.00065837       0.00093180      -0.00113983
Br       5.28203685       1.45957212       9.14875618       0.00065742      -0.00093061       0.00113995
