9
Lattice="7.046891345747923 -3.283080015210503e-08 4.068524660377221 2.3489638631397067 6.643872821606757 4.068524466081119 1.522140179264953e-07 -1.3033161625383551e-07 8.137049057111991" Properties=species:S:1:pos:R:3:forces:R:3 energy=-24.736705780029297 free_energy=-24.736705780029297 stress="-8.5643601778429e-05 5.682823100983114e-10 8.879262658467724e-09 5.682823100983114e-10 -8.565220196032897e-05 -1.8348146113567054e-08 8.879262658467724e-09 -1.8348146113567054e-08 -8.565765165258199e-05" pbc="T T T"
Cu       2.34896352       1.66096837       4.06852467      -0.00000074       0.00000074       0.00000094
Cu       7.04689146       4.98290452      12.20557336       0.00000056      -0.00000010       0.00000036
Y       -0.00000020       0.00000018      -0.00000016       0.00000084      -0.00000066      -0.00000069
I        2.44863836       1.73144846       8.13704909       0.00117429       0.00083003      -0.00000029
I        6.94721719       4.91242422       8.13704918      -0.00117451      -0.00083024       0.00000007
I        5.82257262       1.73144856       6.18910721      -0.00058810       0.00082985       0.00101840
I        3.57328270       4.91242417      10.08499097       0.00058836      -0.00082961      -0.00101817
I        3.57328337       4.91242366       6.18910754       0.00058522      -0.00082867       0.00101483
I        5.82257243       1.73144850      10.08499088      -0.00058591       0.00082868      -0.00101548
