9
Lattice="4.934162411211392 2.3948356610856598e-08 2.848739999613027 1.6447208057626028 4.651973017257697 2.8487400352123107 1.4784958604626947e-08 5.4054568657713915e-08 5.697479973617767" Properties=species:S:1:pos:R:3:forces:R:3 energy=-42.878692626953125 free_energy=-42.878692626953125 stress="7.074930908856913e-05 3.504101897533474e-08 1.7680489960980594e-08 3.504101897533474e-08 7.073803863022476e-05 6.448606648667976e-10 1.7680489960980594e-08 6.448606648667976e-10 7.079217175487429e-05" pbc="T T T"
Cu       1.64472086       1.16299304       2.84873932       0.00000175      -0.00000084      -0.00000214
Cu       4.93416171       3.48897927       8.54621976      -0.00000319      -0.00000226       0.00000003
Y       -0.00000021      -0.00000032       0.00000017      -0.00000228       0.00000461      -0.00000528
F        1.72926740       1.22277620       5.69748045       0.00032660       0.00022984       0.00000145
F        4.84961574       3.42919651       5.69747994      -0.00032552      -0.00022838       0.00000000
F        4.06952921       1.22277701       4.34632935      -0.00016250       0.00022935       0.00028096
F        2.50935447       3.42919665       7.04863078       0.00016251      -0.00022965      -0.00028092
F        2.50935464       3.42919665       4.34632918       0.00016419      -0.00023355       0.00028459
F        4.06952913       1.22277736       7.04863115      -0.00016189       0.00023084      -0.00027882
