9
Lattice="5.9606328500559265 1.13279134833876e-07 3.441372969028577 1.9868777102241268 5.619738910522332 3.4413729919986085 2.9160129571450274e-08 4.875176453857441e-08 6.8827458875503" Properties=species:S:1:pos:R:3:forces:R:3 energy=-31.119182586669922 free_energy=-31.119182586669922 stress="0.00022718003310728818 -9.138029000155257e-09 -6.9782886136238176e-09 -9.138029000155257e-09 0.00022718550462741405 -2.937223975152392e-08 -6.9782886136238176e-09 -2.937223975152392e-08 0.00022716553939972073" pbc="T T T"
Cu       1.98687821       1.40493527       3.44137295       0.00000117       0.00000243      -0.00000037
Cu       5.96063314       4.21480433      10.32411930       0.00000163       0.00000012       0.00000287
Y       -0.00000008      -0.00000026       0.00000017      -0.00000558       0.00000181       0.00000057
Cl       2.08372212       1.47341441       6.88274595      -0.00212886      -0.00150445      -0.00000031
Cl       5.86378765       4.14632477       6.88274579       0.00213195       0.00150820      -0.00000046
Cl       4.91877189       1.47341408       5.24592948       0.00106428      -0.00150494      -0.00184517
Cl       3.02873858       4.14632481       8.51956226      -0.00106526       0.00150240       0.00183981
Cl       3.02873892       4.14632458       5.24592935      -0.00106367       0.00150252      -0.00184355
Cl       4.91877197       1.47341427       8.51956219       0.00106447      -0.00150802       0.00184667
