9
Lattice="6.447579959029907 2.062934372585066e-08 3.7225120066904607 2.1491934094931713 6.078836400159732 3.722511884811118 6.065618058008763e-08 -1.0638069312736104e-07 7.445023908321337" Properties=species:S:1:pos:R:3:forces:R:3 energy=-27.873193740844727 free_energy=-27.873193740844727 stress="4.9696471251081675e-05 2.9738496110098822e-09 -1.241004277119373e-08 2.9738496110098822e-09 4.966084816260263e-05 -1.965941853754316e-09 -1.241004277119373e-08 -1.965941853754316e-09 4.963488754583523e-05" pbc="T T T"
Cu       2.14919363       1.51970887       3.72251175       0.00000048      -0.00000096      -0.00000010
Cu       6.44758006       4.55912767      11.16753683      -0.00000094       0.00000196       0.00000419
Y        0.00000004       0.00000001      -0.00000071       0.00000125      -0.00000036       0.00000905
Br       2.24493920       1.58741134       7.44502380      -0.00109354      -0.00077532       0.00000031
Br       6.35183389       4.49142493       7.44502322       0.00109479       0.00077554      -0.00000072
Br       5.32511034       1.58741170       5.66668604       0.00054714      -0.00077471      -0.00094821
Br       3.27166242       4.49142532       9.22336204      -0.00054442       0.00076850       0.00094291
Br       3.27166343       4.49142454       5.66668595      -0.00054791       0.00077502      -0.00095000
Br       5.32511068       1.58741081       9.22336223       0.00054329      -0.00076968       0.00094236
