9
Lattice="5.660666951867747 1.9055436113044002e-08 3.2681876021750105 1.8868890046453846 5.336928024304887 3.268187597457212 7.146127990088442e-08 4.475263314503829e-08 6.536375080575466" Properties=species:S:1:pos:R:3:forces:R:3 energy=-31.44756317138672 free_energy=-31.44756317138672 stress="8.604171853221487e-06 2.9556042946410344e-08 -4.157501720669643e-08 2.9556042946410344e-08 8.613783393229824e-06 -2.787651709468264e-08 -4.157501720669643e-08 -2.787651709468264e-08 8.58601379150059e-06" pbc="T T T"
Fe       1.88688957       1.33423281       3.26818768       0.00000240       0.00000219       0.00000141
Fe       5.66066771       4.00269704       9.80456292       0.00000561       0.00000617      -0.00000054
As       0.00000004      -0.00000041       0.00000030      -0.00000219       0.00000510      -0.00000187
Cl       1.92199183       1.35905315       6.53637505      -0.00339887      -0.00240327      -0.00000101
Cl       5.62556418       3.97787442       6.53637506       0.00339628       0.00239938      -0.00000036
Cl       4.69967098       1.35905333       4.93268134       0.00169816      -0.00240434      -0.00294284
Cl       2.84788458       3.97787420       8.14006893      -0.00170054       0.00240083       0.00294097
Cl       2.84788459       3.97787468       4.93268113      -0.00169856       0.00239766      -0.00293814
Cl       4.69967065       1.35905314       8.14006872       0.00169774      -0.00240375       0.00294237
