9
Lattice="4.862989726212839 -1.2262177535125324e-07 2.8076482739411928 1.62099644398665 4.584870405515668 2.8076483013226436 -1.4474097505736465e-07 -6.881200738448598e-08 5.615296798581111" Properties=species:S:1:pos:R:3:forces:R:3 energy=-41.57478332519531 free_energy=-41.57478332519531 stress="1.3096921975375153e-05 -8.11115263843476e-09 2.139810817425314e-08 -8.11115263843476e-09 1.3209048120188527e-05 1.1872359095832508e-08 2.139810817425314e-08 1.1872359095832508e-08 1.3167265933589078e-05" pbc="T T T"
Fe       1.62099259       1.14621735       2.80764669      -0.00001960      -0.00000099      -0.00001095
Fe       4.86298637       3.43865360       8.42293917      -0.00001831       0.00000542      -0.00003097
As       0.00000049      -0.00000017       0.00000060       0.00000087       0.00000626       0.00000238
F        1.62046047       1.14583706       5.61529762       0.00044531       0.00030491       0.00000551
F        4.86352661       3.43903220       5.61529955      -0.00043973      -0.00031684       0.00001500
F        4.05276125       1.14583690       4.21100958      -0.00020954       0.00030302       0.00038886
F        2.43122818       3.43903241       7.01958662       0.00023092      -0.00031036      -0.00037414
F        2.43122704       3.43903231       4.21100755       0.00022219      -0.00030842       0.00038353
F        4.05276127       1.14583909       7.01958614      -0.00021230       0.00031696      -0.00037929
