9
Lattice="3.97530730820673 -0.0003354262958261718 2.2933607844075334 1.3245699449290311 3.747289027284752 2.2937352700944693 -0.0008606661093034943 -0.00014979660851296558 4.588212145314721" Properties=species:S:1:pos:R:3:forces:R:3 energy=-49.440826416015625 free_energy=-49.440826416015625 stress="0.0007651059422641993 -0.00032861874205991626 -0.0006024534231983125 -0.00032861874205991626 4.309528094381676e-07 -0.00019278464606031775 -0.0006024534231983125 -0.00019278464606031775 -0.0010812218533828855" pbc="T T T"
Fe       1.32575784       0.93664353       2.29454019      -0.00180793      -0.00011198      -0.00105023
Fe       3.97430245       2.80998698       6.88159455       0.00156439      -0.00005682       0.00123792
As       0.00050103      -0.00010093       0.00042949       0.00198269       0.00134485      -0.00157800
O        1.41033536       0.99924653       4.58559500       0.00284600       0.00172782      -0.00011311
O        3.88973975       2.74739536       4.59054647      -0.00527138      -0.00346899      -0.00018578
O        3.27126198       0.99650594       3.51787943      -0.00239325       0.00322390       0.00349736
O        2.02879557       2.75011034       5.65825183       0.00208449      -0.00202358      -0.00261366
O        2.03470930       2.74920119       3.51432962       0.00206164      -0.00288653       0.00339627
O        3.26533692       0.99743057       5.66180167      -0.00106680       0.00225228      -0.00259113
