9
Lattice="5.660804404716644 4.7025974508820346e-08 3.2682671175589952 1.8869348323582855 5.337057354605963 3.2682671410290616 -2.396204067571121e-09 2.7050480894991067e-08 6.536534239268354" Properties=species:S:1:pos:R:3:forces:R:3 energy=-31.447566986083984 free_energy=-31.447566986083984 stress="-2.1282916350173764e-05 -6.40314634647865e-10 -4.214191662299527e-08 -6.40314634647865e-10 -2.133549060090445e-05 2.9810307555777626e-09 -4.214191662299527e-08 2.9810307555777626e-09 -2.127330662915483e-05" pbc="T T T"
Fe       1.88693286       1.33426213       3.26826510      -0.00000988      -0.00001088      -0.00001014
Fe       5.66080151       4.00279286       9.80479781      -0.00001577      -0.00000141      -0.00001532
As       0.00000031       0.00000019       0.00000046       0.00000298       0.00000047       0.00000058
Cl       1.92171305       1.35885646       6.53653551       0.00064078       0.00045305       0.00000668
Cl       5.62602752       3.97820081       6.53653501      -0.00063876      -0.00045580       0.00000432
Cl       4.69994789       1.35885514       4.93252027      -0.00031588       0.00044938       0.00055953
Cl       2.84779327       3.97820276       8.14054975       0.00032921      -0.00044664      -0.00055094
Cl       2.84779241       3.97820242       4.93251990       0.00032668      -0.00044763       0.00055719
Cl       4.69994817       1.35885696       8.14055037      -0.00031930       0.00045943      -0.00055174
