9
Lattice="5.577086261152554 -5.087745757523475e-08 3.2199321987173826 1.8590287318198773 5.258127146508775 3.2199321535626857 5.873354108829596e-08 -1.3772096316516663e-08 6.439864295705284" Properties=species:S:1:pos:R:3:forces:R:3 energy=-37.645145416259766 free_energy=-37.645145416259766 stress="0.0001009509724099189 2.488901174046987e-08 3.361823175396239e-08 2.488901174046987e-08 0.00010093992750626057 -2.3977873908620495e-08 3.361823175396239e-08 -2.3977873908620495e-08 0.00010091767035191879" pbc="T T T"
Fe       1.85902870       1.31453235       3.21993223       0.00000066       0.00000143       0.00000013
Fe       5.57708663       3.94359519       9.65979625       0.00000063      -0.00000023       0.00000002
As      -0.00000014       0.00000010      -0.00000020      -0.00000069      -0.00000029       0.00000059
Se       2.17640879       1.53895344       6.43986432      -0.00166965      -0.00118092       0.00000082
Se       5.25970623       3.71917396       6.43986443       0.00166935       0.00117961      -0.00000049
Se       4.48888186       1.53895308       5.10475751       0.00083509      -0.00117877      -0.00144345
Se       2.94723298       3.71917359       7.77497139      -0.00083396       0.00117788       0.00144422
Se       2.94723289       3.71917351       5.10475741      -0.00083536       0.00118122      -0.00144660
Se       4.48888224       1.53895314       7.77497131       0.00083381      -0.00117975       0.00144449
