9
Lattice="3.7723447805047856 -0.00011449611276090636 2.177829133643811 1.2573578485329047 3.556576208591624 2.177806835846153 3.142821730488256e-05 -1.5656895514635593e-06 4.355592391557453" Properties=species:S:1:pos:R:3:forces:R:3 energy=-34.61980056762695 free_energy=-34.61980056762695 stress="-0.00039417759398929775 -0.00014559185365214944 8.616764534963295e-05 -0.00014559185365214944 -0.00038813651190139353 -1.7386802937835455e-05 8.616764534963295e-05 -1.7386802937835455e-05 -0.0006919346051290631" pbc="T T T"
Fe       1.25741850       0.88908658       2.17779423      -0.00074798       0.00085531       0.00022397
Fe       3.77229930       2.66738413       6.53346614      -0.00042329      -0.00048226      -0.00101237
As       0.00002631      -0.00005973      -0.00007490       0.00395410       0.00328305       0.00436767
F        1.37655003       0.97351074       4.35567317      -0.00569093      -0.00671345       0.00079186
F        3.65317405       2.58303506       4.35562074      -0.00087571      -0.00072277      -0.00058518
F        3.08395883       0.97321410       3.36994458       0.00442049      -0.00272644      -0.00340474
F        1.94578883       2.58322219       5.34123988      -0.00012392       0.00079733       0.00209624
F        1.94579002       2.58302383       3.36979584      -0.00161251       0.00630486      -0.00303441
F        3.08393356       0.97342402       5.34145495       0.00109941      -0.00059611       0.00055683
