9
Lattice="6.620294344812121 -3.1511137369820456e-09 3.8222287115679934 2.2067647986373924 6.241673436599583 3.822228676919799 1.803674523169448e-08 -2.9681374112140865e-08 7.644457391895475" Properties=species:S:1:pos:R:3:forces:R:3 energy=-24.455968856811523 free_energy=-24.455968856811523 stress="7.467870455002412e-05 -8.246322735772083e-09 4.041469381377283e-09 -8.246322735772083e-09 7.46792065910995e-05 -8.52601722556301e-09 4.041469381377283e-09 -8.52601722556301e-09 7.469535921700299e-05" pbc="T T T"
Fe       2.20676438       1.56041923       3.82222874      -0.00000090       0.00000184       0.00000016
Fe       6.62029458       4.68125408      11.46668763       0.00000066      -0.00000214       0.00000358
As       0.00000032       0.00000052      -0.00000026      -0.00000109      -0.00000174       0.00000047
I        2.28887835       1.61848124       7.64445741      -0.00434011      -0.00306884      -0.00000013
I        6.53818040       4.62319185       7.64445698       0.00434168       0.00306986      -0.00000083
I        5.47585517       1.61848204       5.80445548       0.00217199      -0.00306908      -0.00376122
I        3.35120390       4.62319179       9.48445874      -0.00217152       0.00306987       0.00375984
I        3.35120419       4.62319158       5.80445524      -0.00217155       0.00306965      -0.00376121
I        5.47585533       1.61848126       9.48445915       0.00217089      -0.00306939       0.00375934
