9
Lattice="5.967859482048543 9.60850495466896e-08 3.445545190983209 1.989286544838424 5.62655172033601 3.445545259862724 1.2308911537715036e-07 1.7139702139150012e-07 6.891090168769799" Properties=species:S:1:pos:R:3:forces:R:3 energy=-28.61147117614746 free_energy=-28.61147117614746 stress="0.0001464217493776232 -9.631546227240051e-09 8.501200299271261e-10 -9.631546227240051e-09 0.00014641314919572324 -7.71805819255178e-09 8.501200299271261e-10 -7.71805819255178e-09 0.00014641541929449886" pbc="T T T"
Fe       1.98928481       1.40663750       3.44554473      -0.00000527      -0.00000258      -0.00000292
Fe       5.96786085       4.21991215      10.33663367       0.00000359      -0.00000506      -0.00000490
As       0.00000013       0.00000015      -0.00000005       0.00000051       0.00000033      -0.00000016
Br       2.08359031       1.47332165       6.89109068      -0.00105099      -0.00074124       0.00000118
Br       5.87355579       4.15323137       6.89109070       0.00105117       0.00074401       0.00000132
Br       4.92606436       1.47332123       5.24998777       0.00052546      -0.00074152      -0.00090957
Br       3.03108206       4.15323115       8.53219345      -0.00052568       0.00074475       0.00091255
Br       3.03108139       4.15323139       5.24998801      -0.00052562       0.00074399      -0.00090904
Br       4.92606491       1.47332145       8.53219352       0.00052683      -0.00074265       0.00091161
