9
Lattice="5.470127451750921 -1.153486441845535e-08 3.158179539929822 1.8233757578148733 5.157285809562837 3.1581796240386533 -6.961344268813898e-08 5.378772331232841e-08 6.3163592004336655" Properties=species:S:1:pos:R:3:forces:R:3 energy=-37.41220474243164 free_energy=-37.41220474243164 stress="0.00022493870346806943 1.9541612772400185e-09 -2.5267332670608766e-09 1.9541612772400185e-09 0.00022489439288619906 -3.454493580079543e-08 -2.5267332670608766e-09 -3.454493580079543e-08 0.00022490028641186655" pbc="T T T"
Fe       1.82337536       1.28932101       3.15817913      -0.00000356      -0.00000318      -0.00000573
Fe       5.47012676       3.86796380       9.47453876      -0.00000699      -0.00000543      -0.00000177
As       0.00000007       0.00000007      -0.00000014      -0.00000021      -0.00000219      -0.00000052
S        1.91491725       1.35405107       6.31635916      -0.00613153      -0.00433385      -0.00000007
S        5.37858500       3.80323617       6.31635899       0.00612473       0.00434625      -0.00000278
S        4.51266984       1.35405068       4.81654719       0.00307548      -0.00433797      -0.00530005
S        2.78083443       3.80323435       7.81617198      -0.00306481       0.00433099       0.00531495
S        2.78083439       3.80323442       4.81654623      -0.00306338       0.00433457      -0.00531393
S        4.51266944       1.35405192       7.81617199       0.00307018      -0.00432909       0.00531095
