9
Lattice="5.820521960386152 1.313606842817156e-07 3.360479895138246 1.940174078044994 5.487641021322841 3.360479951600339 -4.121739530855249e-08 4.000657670123483e-08 6.720959861667132" Properties=species:S:1:pos:R:3:forces:R:3 energy=-31.017684936523438 free_energy=-31.017684936523438 stress="5.7677043514559045e-05 3.429347827932361e-08 -4.536124809106923e-09 3.429347827932361e-08 5.7676130381878465e-05 3.6626726096500306e-09 -4.536124809106923e-09 3.6626726096500306e-09 5.7618264690972865e-05" pbc="T T T"
Fe       1.94017400       1.37190914       3.36047943       0.00000056      -0.00000629      -0.00000319
Fe       5.82052174       4.11573027      10.08144039      -0.00000142      -0.00000447       0.00000055
Bi      -0.00000001       0.00000032      -0.00000009      -0.00000250      -0.00000132      -0.00000043
Cl       2.05737885       1.45478686       6.72095989      -0.00093777      -0.00066170      -0.00000036
Cl       5.70331721       4.03285462       6.72095975       0.00094020       0.00066783       0.00000037
Cl       4.79183288       1.45478697       5.14222226       0.00046862      -0.00066056      -0.00080891
Cl       2.96886336       4.03285472       8.29969756      -0.00046761       0.00066274       0.00080920
Cl       2.96886347       4.03285489       5.14222207      -0.00046650       0.00066333      -0.00080872
Cl       4.79183252       1.45478698       8.29969758       0.00046640      -0.00065954       0.00081142
