9
Lattice="5.563126140559967 4.881449971492312e-08 3.211872468266053 1.8543754536689339 5.244965457925566 3.211872420704779 8.829897953366315e-08 4.1863566889104765e-09 6.423744783593835" Properties=species:S:1:pos:R:3:forces:R:3 energy=-32.53845977783203 free_energy=-32.53845977783203 stress="4.1873689042404294e-05 3.077818533370191e-08 2.9687514668808035e-09 3.077818533370191e-08 4.1759307350730523e-05 2.3162030515777587e-08 2.9687514668808035e-09 2.3162030515777587e-08 4.199541581328958e-05" pbc="T T T"
Fe       1.85437550       1.31124209       3.21187249      -0.00000288       0.00000405      -0.00000009
Fe       5.56312599       3.93372425       9.63561584       0.00000038       0.00000171      -0.00000380
B       -0.00000073      -0.00000052       0.00000000      -0.00000319       0.00000030      -0.00000088
Cl       1.66068582       1.17428186       6.42374498       0.00244904       0.00173049      -0.00000084
Cl       5.75681643       4.07068370       6.42374515      -0.00244497      -0.00173019       0.00000177
Cl       4.73278359       1.17428173       4.65006875      -0.00122482       0.00172927       0.00211436
Cl       2.68471832       4.07068376       8.19742135       0.00122557      -0.00173198      -0.00211504
Cl       2.68471811       4.07068335       4.65006883       0.00122347      -0.00173418       0.00211830
Cl       4.73278369       1.17428176       8.19742130      -0.00122321       0.00173068      -0.00211369
