9
Lattice="6.131973036584928 -3.3405284133915365e-08 3.5402963346452476 2.043990988633913 5.781279532061591 3.540296320903551 3.7148106901322985e-08 9.437646400404276e-09 7.080592604948054" Properties=species:S:1:pos:R:3:forces:R:3 energy=-28.377422332763672 free_energy=-28.377422332763672 stress="-7.132941391319036e-05 -2.1776278558149897e-08 -4.591083513361127e-09 -2.1776278558149897e-08 -7.130485028028488e-05 7.62224328099137e-09 -4.591083513361127e-09 7.62224328099137e-09 -7.130367157515138e-05" pbc="T T T"
Fe       2.04399118       1.44531955       3.54029634      -0.00000086      -0.00000129       0.00000096
Fe       6.13197304       4.33595989      10.62088913       0.00000111       0.00000093      -0.00000112
Bi      -0.00000015       0.00000002      -0.00000026      -0.00000091      -0.00000025       0.00000283
Br       2.22421730       1.57275911       7.08059260      -0.00375752      -0.00265691       0.00000058
Br       5.95174678       4.20852048       7.08059251       0.00375714       0.00265717       0.00000069
Br       5.01986428       1.57275930       5.46652517       0.00188024      -0.00265890      -0.00325638
Br       3.15609964       4.20852031       8.69466013      -0.00187847       0.00265704       0.00325349
Br       3.15609982       4.20852030       5.46652527      -0.00187986       0.00265874      -0.00325483
Br       5.01986435       1.57275909       8.69466014       0.00187905      -0.00265649       0.00325380
