9
Lattice="6.002213656508019 -7.51704934212711e-09 3.465379837355284 2.000737875652563 5.658941393456726 3.4653798421408215 2.1009884643950715e-09 7.346683962338404e-09 6.930759671071565" Properties=species:S:1:pos:R:3:forces:R:3 energy=-29.18526840209961 free_energy=-29.18526840209961 stress="2.040449544438161e-05 -2.0344479878531274e-08 -3.20675681564353e-08 -2.0344479878531274e-08 2.034723001997918e-05 -1.0278316864287262e-08 -3.20675681564353e-08 -1.0278316864287262e-08 2.031914482358843e-05" pbc="T T T"
Fe       2.00073825       1.41473522       3.46537993       0.00000342      -0.00000024       0.00000084
Fe       6.00221329       4.24420595      10.39613929      -0.00000223      -0.00000158      -0.00000491
B        0.00000017      -0.00000004      -0.00000106      -0.00000139       0.00000240      -0.00000220
Br       1.80553418       1.27670581       6.93075999       0.00128964       0.00091109       0.00000137
Br       6.19741730       4.38223614       6.93076002      -0.00129008      -0.00091365       0.00000030
Br       5.09944624       1.27670536       5.02901855      -0.00064535       0.00091326       0.00111914
Br       2.90350512       4.38223578       8.83250084       0.00064436      -0.00091180      -0.00111389
Br       2.90350514       4.38223569       5.02901883       0.00064635      -0.00091296       0.00111571
Br       5.09944648       1.27670561       8.83250105      -0.00064476       0.00091329      -0.00111639
