9
Lattice="5.058765092581286 -1.2365600721603806e-07 2.920679251304328 1.6862549634412365 4.769448765383723 2.9206791661484215 -2.7698380820052066e-08 -1.2388001163596804e-07 5.841358550583663" Properties=species:S:1:pos:R:3:forces:R:3 energy=-40.922698974609375 free_energy=-40.922698974609375 stress="0.00023751890694256872 -1.2663560866599255e-08 7.071682972537019e-08 -1.2663560866599255e-08 0.00023754934954922646 -1.132509375167956e-08 7.071682972537019e-08 -1.132509375167956e-08 0.0002376529446337372" pbc="T T T"
Fe       1.68625611       1.19236113       2.92067993       0.00000623      -0.00000478       0.00000569
Fe       5.05876488       3.57708829       8.76203793      -0.00000027       0.00001156       0.00000178
Bi       0.00000010      -0.00000001      -0.00000007       0.00000612       0.00000233       0.00000271
F        1.76613090       1.24884204       5.84135812      -0.00297993      -0.00211224      -0.00000166
F        4.97888926       3.52060658       5.84135884       0.00297546       0.00210744      -0.00000061
F        4.17569856       1.24884205       4.45019314       0.00148553      -0.00211063      -0.00258052
F        2.56932034       3.52060663       7.23252353      -0.00148958       0.00210935       0.00257850
F        2.56932059       3.52060562       4.45019303      -0.00149265       0.00211206      -0.00258851
F        4.17569944       1.24884140       7.23252334       0.00148892      -0.00211519       0.00258243
