9
Lattice="5.634081173322974 -3.514786725700739e-08 3.252838365520925 1.8780270360222433 5.3118625602152925 3.2528383458004213 2.6707348048775986e-08 -5.2676317610416085e-09 6.505676684783398" Properties=species:S:1:pos:R:3:forces:R:3 energy=-31.807453155517578 free_energy=-31.807453155517578 stress="-5.359678470995277e-05 -2.5936600422937772e-08 1.1741860816982808e-08 -2.5936600422937772e-08 -5.3619984100805596e-05 -1.981850461518775e-09 1.1741860816982808e-08 -1.981850461518775e-09 -5.3555224440060556e-05" pbc="T T T"
Fe       1.87802623       1.32796532       3.25283831      -0.00000208      -0.00000078      -0.00000014
Fe       5.63408066       3.98389697       9.75851543      -0.00000181      -0.00000014       0.00000191
Ga       0.00000023       0.00000002      -0.00000028      -0.00000125       0.00000144       0.00000426
Cl       1.90508794       1.34710024       6.50567654      -0.00645578      -0.00456539      -0.00000010
Cl       5.60702068       3.96476211       6.50567646       0.00645548       0.00456494       0.00000083
Cl       4.68153754       1.34710073       4.90269284       0.00323208      -0.00456913      -0.00559483
Cl       2.83057076       3.96476230       8.10866102      -0.00322641       0.00456470       0.00559047
Cl       2.83057135       3.96476217       4.90269262      -0.00323005       0.00456890      -0.00559404
Cl       4.68153755       1.34710022       8.10866062       0.00322992      -0.00456469       0.00559154
