9
Lattice="6.496148405105477 3.861975812040561e-08 3.7505529994964784 2.165382857426793 6.124627310864561 3.7505529660438253 -2.3345751310471932e-08 -5.747896705802433e-08 7.501106039429001" Properties=species:S:1:pos:R:3:forces:R:3 energy=-23.838701248168945 free_energy=-23.838701248168945 stress="-0.00016083403897937387 -1.3901959583506596e-09 -1.2916032687826373e-09 -1.3901959583506596e-09 -0.00016083245282061398 4.091001704065178e-10 -1.2916032687826373e-09 4.091001704065178e-10 -0.00016083242371678352" pbc="T T T"
Fe       2.16538322       1.53115634       3.75055313       0.00000228      -0.00000215       0.00000039
Fe       6.49614831       4.59347017      11.25165905      -0.00000110      -0.00000038       0.00000144
Ga       0.00000012      -0.00000011      -0.00000033      -0.00000083       0.00000160       0.00000080
I        2.22161122       1.57091642       7.50110605      -0.00376501      -0.00266162       0.00000004
I        6.43992002       4.55371125       7.50110602       0.00376363       0.00266314      -0.00000054
I        5.38534259       1.57091646       5.67452471       0.00188207      -0.00266276      -0.00326265
I        3.27618834       4.55371140       9.32768747      -0.00188119       0.00266144       0.00325961
I        3.27618821       4.55371118       5.67452453      -0.00188177       0.00266182      -0.00325987
I        5.38534290       1.57091607       9.32768736       0.00188191      -0.00266111       0.00326104
