9
Lattice="5.985545006247172 -3.2500558203635474e-09 3.455756025098702 1.9951816558756452 5.64322598035927 3.4557560420887747 4.051872857439065e-09 2.3673583834921753e-08 6.911512043179365" Properties=species:S:1:pos:R:3:forces:R:3 energy=-28.60456085205078 free_energy=-28.60456085205078 stress="-8.17738618934527e-05 -4.654129526215911e-09 8.728291978066238e-10 -4.654129526215911e-09 -8.180319127859548e-05 -2.8915962957398733e-09 8.728291978066238e-10 -2.8915962957398733e-09 -8.18178232293576e-05" pbc="T T T"
Fe       1.99518147       1.41080654       3.45575569      -0.00000020      -0.00000028      -0.00000106
Fe       5.98554499       4.23241917      10.36726825       0.00000057      -0.00000101       0.00000124
Ga       0.00000011      -0.00000001      -0.00000009      -0.00000222       0.00000235       0.00000463
Br       2.03970289       1.44228785       6.91151210      -0.00348783      -0.00246432       0.00000122
Br       5.94102377       4.20093815       6.91151209       0.00348766       0.00246589       0.00000063
Br       4.96569356       1.44228770       5.22219072       0.00174555      -0.00246739      -0.00302209
Br       3.01503311       4.20093849       8.60083364      -0.00174186       0.00246276       0.00301582
Br       3.01503313       4.20093849       5.22219057      -0.00174392       0.00246607      -0.00301912
Br       4.96569363       1.44228765       8.60083351       0.00174228      -0.00246398       0.00301851
