9
Lattice="4.671950672596368 1.8347522027348526e-07 2.6973517942392142 1.5573170674691026 4.404757070699453 2.697351787966427 2.8375321907194787e-08 1.238186934564972e-08 5.394703539330905" Properties=species:S:1:pos:R:3:forces:R:3 energy=-43.273860931396484 free_energy=-43.273860931396484 stress="4.924734093947336e-05 2.7852740558387268e-08 -2.915377450563028e-08 2.7852740558387268e-08 4.913455995847471e-05 -1.9874914158890533e-08 -2.915377450563028e-08 -1.9874914158890533e-08 4.913224984193221e-05" pbc="T T T"
Fe       1.55731718       1.10118943       2.69735188       0.00000233      -0.00000158       0.00000291
Fe       4.67195075       3.30356892       8.09205415      -0.00000029       0.00000770      -0.00000696
Ga      -0.00000008      -0.00000010       0.00000003      -0.00000124       0.00000207       0.00000149
F        1.53330994       1.08421296       5.39470353       0.00072595       0.00051219       0.00000161
F        4.69595819       3.32054379       5.39470376      -0.00072565      -0.00051425       0.00000083
F        3.90529547       1.08421312       4.02523672      -0.00036585       0.00051337       0.00063032
F        2.32397228       3.32054410       6.76417080       0.00036571      -0.00051738      -0.00063097
F        2.32397131       3.32054349       4.02523712       0.00036220      -0.00051539       0.00063167
F        3.90529598       1.08421342       6.76417028      -0.00036298       0.00051327      -0.00063100
