9
Lattice="4.8484318223737715 1.7311576128304705e-07 2.7992434819460996 1.6161440436265244 4.57114606425195 2.7992435865270617 -4.844270952019281e-09 1.2465958176606138e-07 5.598486972282777" Properties=species:S:1:pos:R:3:forces:R:3 energy=-43.37297439575195 free_energy=-43.37297439575195 stress="0.0004785892379004508 1.1643525255067289e-08 -1.3617809102584033e-08 1.1643525255067289e-08 0.0004785529163200408 2.997873949084351e-08 -1.3617809102584033e-08 2.997873949084351e-08 0.0004785486380569637" pbc="T T T"
Fe       1.61614409       1.14278703       2.79924351       0.00000045       0.00000253      -0.00000009
Fe       4.84843177       3.42836015       8.39773028      -0.00000092       0.00000082      -0.00000209
Ir      -0.00000007      -0.00000001       0.00000011       0.00000280      -0.00000420       0.00000502
F        1.62874848       1.15169908       5.59848688      -0.00579440      -0.00409846       0.00000022
F        4.83582746       3.41944676       5.59848714       0.00579587       0.00409846       0.00000075
F        4.03405768       1.15169933       4.20978107       0.00289737      -0.00409959      -0.00501837
F        2.43051818       3.41944690       6.98719309      -0.00289704       0.00409707       0.00501936
F        2.43051804       3.41944659       4.20978128      -0.00289874       0.00409716      -0.00501983
F        4.03405771       1.15169963       6.98719292       0.00289457      -0.00409380       0.00501509
