9
Lattice="5.661226418181687 1.8735557265250185e-09 3.268510584842988 1.8870754737682593 5.3374554844645505 3.268510586099322 1.4312062759608052e-08 1.1658853841866048e-08 6.53702114489677" Properties=species:S:1:pos:R:3:forces:R:3 energy=-35.874755859375 free_energy=-35.874755859375 stress="-2.866808426915668e-05 1.3319704450509562e-08 1.4751673660384768e-08 1.3319704450509562e-08 -2.8597742129932158e-05 -2.5247704371622604e-08 1.4751673660384768e-08 -2.5247704371622604e-08 -2.86296199192293e-05" pbc="T T T"
Fe       1.88707581       1.33436367       3.26851056      -0.00000010      -0.00000092       0.00000095
Fe       5.66122591       4.00309154       9.80553128      -0.00000322      -0.00000126      -0.00000077
Ir       0.00000016       0.00000013       0.00000022       0.00000136      -0.00000143       0.00000159
Cl       1.88886847       1.33563193       6.53702116      -0.00247863      -0.00175458       0.00000032
Cl       5.65943324       4.00182366       6.53702132       0.00248086       0.00175506       0.00000017
Cl       4.71679192       1.33563209       4.90431842       0.00123963      -0.00175384      -0.00214830
Cl       2.83150991       4.00182345       8.16972369      -0.00123924       0.00175466       0.00214913
Cl       2.83150984       4.00182345       4.90431878      -0.00124113       0.00175688      -0.00215065
Cl       4.71679235       1.33563204       8.16972383       0.00124051      -0.00175448       0.00214769
