9
Lattice="6.39243827606896 -9.672459236618157e-08 3.690675878608001 2.1308127300928343 6.026848347903454 3.690675770188551 6.144537515389948e-08 -8.933768013516332e-08 7.381351650789431" Properties=species:S:1:pos:R:3:forces:R:3 energy=-29.264387130737305 free_energy=-29.264387130737305 stress="-5.63558660360286e-06 -2.1472737476990744e-10 1.8053709638365945e-09 -2.1472737476990744e-10 -5.600773420155747e-06 -2.5853521545826652e-09 1.8053709638365945e-09 -2.5853521545826652e-09 -5.591135504801059e-06" pbc="T T T"
Fe       2.13081287       1.50671199       3.69067636      -0.00000069      -0.00000056       0.00000205
Fe       6.39243808       4.52013612      11.07202788      -0.00000081       0.00000010       0.00000448
Ir      -0.00000029       0.00000007       0.00000018       0.00000449      -0.00000136      -0.00000187
I        2.16256659       1.52916555       7.38135165       0.00134944       0.00095466      -0.00000077
I        6.36068438       4.49768267       7.38135132      -0.00135295      -0.00095800      -0.00000116
I        5.31115502       1.52916562       5.56351341      -0.00067637       0.00095778       0.00117015
I        3.21209612       4.49768266       9.19918943       0.00067505      -0.00095296      -0.00116902
I        3.21209646       4.49768263       5.56351339       0.00067610      -0.00095425       0.00116750
I        5.31115506       1.52916536       9.19918958      -0.00067424       0.00095452      -0.00117143
