9
Lattice="5.983873784909468 -5.077046679761461e-08 3.454791193481684 1.9946245775985314 5.641650370276342 3.4547911406618668 1.522647702656071e-08 -5.3924071133648643e-08 6.909582360590347" Properties=species:S:1:pos:R:3:forces:R:3 energy=-32.85055160522461 free_energy=-32.85055160522461 stress="-7.764527981635183e-05 -3.272856829994453e-08 3.0048919796854534e-08 -3.272856829994453e-08 -7.761242886772379e-05 -1.665061510891519e-08 3.0048919796854534e-08 -1.665061510891519e-08 -7.760638982290402e-05" pbc="T T T"
Fe       1.99462477       1.41041305       3.45479101      -0.00000056       0.00000410      -0.00000055
Fe       5.98387363       4.23123774      10.36437374      -0.00000047       0.00000131       0.00000373
Ir      -0.00000043       0.00000008       0.00000017       0.00000918      -0.00000024       0.00000274
Br       2.00479146       1.41760167       6.90958242      -0.00362373      -0.00256165      -0.00000049
Br       5.97370703       4.22404853       6.90958227       0.00361886       0.00255717      -0.00000129
Br       4.98147786       1.41760162       5.19099169       0.00181073      -0.00256249      -0.00313716
Br       2.99702068       4.22404840       8.62817269      -0.00181189       0.00255996       0.00313756
Br       2.99702057       4.22404826       5.19099199      -0.00181384       0.00256470      -0.00314225
Br       4.98147794       1.41760171       8.62817282       0.00181179      -0.00256284       0.00313768
