9
Lattice="6.543843467198546 -1.4399769031115623e-07 3.778089894603222 2.1812809710983077 6.169595056090828 3.7780899792524205 -1.0789714076195407e-07 2.7378936366898332e-08 7.5561799760897355" Properties=species:S:1:pos:R:3:forces:R:3 energy=-30.79279327392578 free_energy=-30.79279327392578 stress="-3.1899518944555894e-05 -2.1927137439092803e-08 -5.671707992149777e-09 -2.1927137439092803e-08 -3.188804839737713e-05 2.273278898456965e-09 -5.671707992149777e-09 2.273278898456965e-09 -3.1845265766605735e-05" pbc="T T T"
Fe       2.18128067       1.54239917       3.77808886      -0.00000134       0.00000237      -0.00000323
Fe       6.54384350       4.62719621      11.33426952       0.00000058      -0.00000001      -0.00000216
Mo      -0.00000023      -0.00000039      -0.00000109      -0.00000003       0.00000261       0.00000843
I        2.25342282       1.59341064       7.55618005      -0.00447294      -0.00316323       0.00000194
I        6.47170206       4.57618438       7.55618019       0.00447112       0.00316097       0.00000085
I        5.41713182       1.59341071       5.72961228       0.00224090      -0.00316675      -0.00387692
I        3.30799225       4.57618446       9.38274884      -0.00223573       0.00316045       0.00387394
I        3.30799238       4.57618403       5.72961195      -0.00223763       0.00316553      -0.00387654
I        5.41713197       1.59341048       9.38274880       0.00223516      -0.00316186       0.00387353
