9
Lattice="4.909354234764239 2.2970375744123404e-07 2.83441711232181 1.636451618530329 4.628583936434593 2.834417128991983 9.52777493830381e-08 8.778827888578072e-08 5.668834059617673" Properties=species:S:1:pos:R:3:forces:R:3 energy=-46.155364990234375 free_energy=-46.155364990234375 stress="0.00016998976934701204 -3.94063910391651e-08 3.061183306840576e-08 -3.94063910391651e-08 0.00017000931256916374 -2.404301824299182e-08 3.061183306840576e-08 -2.404301824299182e-08 0.0001700215507298708" pbc="T T T"
Fe       1.63645117       1.15714631       2.83441688      -0.00000116       0.00000092      -0.00000070
Fe       4.90935448       3.47143805       8.50325057      -0.00000002      -0.00000083      -0.00000393
Mo      -0.00000014       0.00000002       0.00000028       0.00000588      -0.00000001      -0.00000891
F        1.65111573       1.16751514       5.66883400      -0.00345675      -0.00244348      -0.00000015
F        4.89469034       3.46106887       5.66883464       0.00345314       0.00244095       0.00000353
F        4.08379680       1.16751556       4.26432556       0.00172824      -0.00244323      -0.00298857
F        2.46200931       3.46106913       7.07334303      -0.00172974       0.00244591       0.00299521
F        2.46201002       3.46106827       4.26432517      -0.00172948       0.00244448      -0.00299378
F        4.08379614       1.16751566       7.07334330       0.00172991      -0.00244481       0.00299732
