9
Lattice="5.687208736624074 -1.5926103338501e-08 3.283511236148936 1.895736186907873 5.36195181522883 3.283511311697857 -1.4212812359183628e-07 -7.9715722112674e-09 6.567022718470945" Properties=species:S:1:pos:R:3:forces:R:3 energy=-38.58413314819336 free_energy=-38.58413314819336 stress="3.365894599482999e-06 -2.823682798691607e-08 1.2534061788471718e-08 -2.823682798691607e-08 3.428473064559512e-06 4.264459363412243e-08 1.2534061788471718e-08 4.264459363412243e-08 3.377753728273092e-06" pbc="T T T"
Fe       1.89573528       1.34048787       3.28351188      -0.00000620      -0.00000047       0.00000148
Fe       5.68720850       4.02146296       9.85053420      -0.00000057      -0.00000377       0.00000498
Mo      -0.00000009      -0.00000008      -0.00000008       0.00000267       0.00000378      -0.00000522
Cl       1.93473471       1.36806433       6.56702273      -0.00162864      -0.00114980      -0.00000265
Cl       5.64821030       3.99388774       6.56702254       0.00162667       0.00114937      -0.00000147
Cl       4.71984128       1.36806433       4.95904062       0.00081567      -0.00115101      -0.00141145
Cl       2.86310393       3.99388791       8.17500443      -0.00081550       0.00115564       0.00141130
Cl       2.86310380       3.99388788       4.95904041      -0.00081237       0.00114916      -0.00140922
Cl       4.71984140       1.36806424       8.17500436       0.00081821      -0.00115292       0.00141199
