9
Lattice="6.016422031642765 8.243224420894978e-08 3.4735828173527468 2.0054741268345286 5.672336942397403 3.4735827505490833 3.1875734539021766e-08 -5.9277856595413615e-08 6.947165579495109" Properties=species:S:1:pos:R:3:forces:R:3 energy=-35.38398742675781 free_energy=-35.38398742675781 stress="-9.542965017317329e-06 8.437853438181264e-08 7.203589724724679e-09 8.437853438181264e-08 -9.585876796336379e-06 -1.9015439889358277e-08 7.203589724724679e-09 -1.9015439889358277e-08 -9.646653779782355e-06" pbc="T T T"
Fe       2.00547447       1.41808414       3.47358289       0.00000096       0.00000023       0.00000013
Fe       6.01642217       4.25425287      10.42074837       0.00000071       0.00000011       0.00000062
Mo       0.00000018       0.00000014      -0.00000057      -0.00000200      -0.00000274       0.00001719
Br       2.06530732       1.46039282       6.94716541      -0.00594211      -0.00420243       0.00000078
Br       5.95658867       4.21194409       6.94716551       0.00594439       0.00420433      -0.00000023
Br       4.98376842       1.46039263       5.26219109       0.00296999      -0.00420173      -0.00514553
Br       3.03812726       4.21194486       8.63214042      -0.00296544       0.00419360       0.00513656
Br       3.03812745       4.21194410       5.26219117      -0.00297112       0.00420235      -0.00514692
Br       4.98376881       1.46039220       8.63214029       0.00296475      -0.00419376       0.00513737
