9
Lattice="4.071991205976086 -9.541817999309945e-09 2.3509652914348247 1.3573303713520009 3.8391101708931004 2.350965328923169 -2.8452637400497288e-08 2.5794606762115304e-08 4.701930632151059" Properties=species:S:1:pos:R:3:forces:R:3 energy=-36.8918342590332 free_energy=-36.8918342590332 stress="-4.4047803385183215e-05 -3.0499972325515046e-08 -8.236347071033379e-08 -3.0499972325515046e-08 -4.381859616842121e-05 -4.5726835651294095e-08 -8.236347071033379e-08 -4.5726835651294095e-08 -4.403819912113249e-05" pbc="T T T"
Fe       1.35733044       0.95977671       2.35096529       0.00000139      -0.00000374       0.00000287
Fe       4.07199196       2.87933254       7.05289878       0.00000406      -0.00000072       0.00001490
N       -0.00000032       0.00000017      -0.00000150      -0.00000328       0.00000468      -0.00001219
F        1.31124500       0.92719047       4.70193026      -0.00607347      -0.00429451      -0.00000252
F        4.11807639       2.91192030       4.70192956       0.00607228       0.00429487      -0.00000125
F        3.41636860       0.92719114       3.48653713       0.00303519      -0.00429296      -0.00526333
F        2.01295212       2.91192005       5.91732428      -0.00303924       0.00429726       0.00526071
F        2.01295328       2.91191976       3.48653740      -0.00303614       0.00429440      -0.00526261
F        3.41636864       0.92718963       5.91732385       0.00303972      -0.00429857       0.00526309
