9
Lattice="3.8648656348832593 5.739472057020048e-09 2.2313811804855033 1.2882885531474315 3.643830257991157 2.231381175678857 1.4485450405258275e-08 4.355846419565586e-09 4.462762335881475" Properties=species:S:1:pos:R:3:forces:R:3 energy=-50.25714111328125 free_energy=-50.25714111328125 stress="1.910633363877423e-05 5.2801411243308394e-08 -1.996487242195144e-07 5.2801411243308394e-08 1.90766149898991e-05 1.751110119130317e-07 -1.996487242195144e-07 1.751110119130317e-07 1.9142573364661075e-05" pbc="T T T"
Fe       1.28828855       0.91095755       2.23138138       0.00000128      -0.00000220      -0.00000214
Fe       3.86486612       2.73287321       6.69414308      -0.00000147      -0.00000119      -0.00000035
N       -0.00000000      -0.00000018       0.00000017      -0.00000446       0.00000192       0.00001296
O        1.30565626       0.92323844       4.46276238       0.00191273       0.00134796      -0.00000595
O        3.84749796       2.72059191       4.46276247      -0.00191456      -0.00135748      -0.00000054
O        3.21203745       0.92323821       3.36211260      -0.00095566       0.00135545       0.00165878
O        1.94111659       2.72059178       5.56341206       0.00095640      -0.00134507      -0.00165410
O        1.94111641       2.72059191       3.36211257       0.00095844      -0.00135385       0.00165668
O        3.21203744       0.92323827       5.56341211      -0.00095246       0.00135446      -0.00166555
