9
Lattice="5.527213821318583 5.763363394174222e-08 3.1911384859335286 1.8424046680008386 5.211107335996201 3.19113847457627 5.138954038245159e-09 -1.027598506665985e-08 6.382276962966169" Properties=species:S:1:pos:R:3:forces:R:3 energy=-28.908288955688477 free_energy=-28.908288955688477 stress="0.0001505939435446635 1.3271040266715772e-08 8.296667353135945e-09 1.3271040266715772e-08 0.00015057572454679757 5.409490633212499e-09 8.296667353135945e-09 5.409490633212499e-09 0.00015060108853504062" pbc="T T T"
Fe       1.84240495       1.30277696       3.19113877       0.00000081      -0.00000009       0.00000044
Fe       5.52721367       3.90833029       9.57341562      -0.00000104      -0.00000048       0.00000110
N        0.00000017      -0.00000011      -0.00000084       0.00000316      -0.00000164      -0.00000523
Cl       1.79048273       1.26606264       6.38227688      -0.00310893      -0.00219822       0.00000080
Cl       5.57913554       3.94504487       6.38227681       0.00310846       0.00219776      -0.00000002
Cl       4.63197235       1.26606291       4.74174267       0.00155343      -0.00219569      -0.00269200
Cl       2.73764602       3.94504477       8.02281173      -0.00155655       0.00219832       0.00269565
Cl       2.73764612       3.94504457       4.74174254      -0.00155416       0.00219795      -0.00269364
Cl       4.63197246       1.26606263       8.02281150       0.00155463      -0.00219800       0.00269313
