9
Lattice="5.526886607959994 -1.268067794989351e-07 3.19094936947371 1.8422954641876035 5.210798540743478 3.1909492867586575 5.7951717610827805e-08 -6.032674278730237e-08 6.381898638572048" Properties=species:S:1:pos:R:3:forces:R:3 energy=-28.908287048339844 free_energy=-28.908287048339844 stress="-3.284820922999643e-05 -4.906494766032665e-09 5.157327365168385e-08 -4.906494766032665e-09 -3.276731149526313e-05 4.790306107338438e-08 5.157327365168385e-08 4.790306107338438e-08 -3.284363992861472e-05" pbc="T T T"
Fe       1.84229421       1.30270031       3.19095311      -0.00000649       0.00000011       0.00001886
Fe       5.52688504       3.90809812       9.57285492      -0.00000781      -0.00000393       0.00003235
N       -0.00000243      -0.00000839      -0.00000223      -0.00002265      -0.00006688      -0.00001257
Cl       1.79037585       1.26598705       6.38189770      -0.00067653      -0.00047819      -0.00000806
Cl       5.57881118       3.94481516       6.38189687       0.00071830       0.00050822      -0.00001152
Cl       4.63169987       1.26598709       4.74145798       0.00034505      -0.00047834      -0.00059827
Cl       2.73748111       3.94481550       8.02233886      -0.00035410       0.00050782       0.00060622
Cl       2.73748350       3.94481306       4.74145504      -0.00034485       0.00049859      -0.00061956
Cl       4.63170001       1.26598560       8.02233695       0.00034899      -0.00048743       0.00059253
