9
Lattice="3.7435870020433333 9.491651596533643e-08 2.161360845823115 1.2478623709194923 3.529487918770879 2.1613609368997158 -4.8143589160665205e-08 7.75029354346788e-08 4.3227217750333775" Properties=species:S:1:pos:R:3:forces:R:3 energy=-39.741363525390625 free_energy=-39.741363525390625 stress="0.0009362054406665266 9.72280190580932e-07 -6.412300308511476e-07 9.72280190580932e-07 0.0009348256862722337 4.5517731450672727e-07 -6.412300308511476e-07 4.5517731450672727e-07 0.000935371033847332" pbc="T T T"
Fe       1.24786215       0.88237206       2.16136094       0.00000670       0.00000435      -0.00000861
Fe       3.74358681       2.64711636       6.48408278       0.00001181      -0.00002468       0.00000035
N        0.00000021       0.00000032       0.00000011      -0.00000301       0.00001858       0.00000675
F        1.17287921       0.82935044       4.32272173       0.00028324       0.00021935       0.00000367
F        3.81856974       2.70013716       4.32272167      -0.00028372      -0.00020635       0.00000045
F        3.15714717       0.82935076       3.17710410      -0.00014699       0.00021517       0.00025058
F        1.83430233       2.70013743       5.46833918       0.00014436      -0.00022483      -0.00026083
F        1.83430233       2.70013722       3.17710452       0.00014293      -0.00022113       0.00026250
F        3.15714722       0.82935086       5.46833916      -0.00015354       0.00021946      -0.00025177
