9
Lattice="5.330475364003219 4.766910482213457e-07 3.0775502649344824 1.7768258372513213 5.025616556746942 3.0775498033627486 2.7518545592915884e-06 1.3805474305471778e-06 6.155095763518349" Properties=species:S:1:pos:R:3:forces:R:3 energy=-44.29441833496094 free_energy=-44.29441833496094 stress="3.3462692954344675e-05 1.930191899646161e-07 -4.843825962552728e-08 1.930191899646161e-07 3.324459248688072e-05 4.500634975812545e-09 -4.843825962552728e-08 4.500634975812545e-09 3.332335109007545e-05" pbc="T T T"
Fe       1.77682836       1.25637256       3.07758542       0.00000517      -0.00004415       0.00005067
Fe       5.33048928       3.76918785       9.23267717       0.00001398      -0.00003812       0.00004379
P       -0.00000183       0.00000675      -0.00000773       0.00001687      -0.00000518      -0.00000382
F        1.32806847       0.93910073       6.15508618      -0.00105953      -0.00072572      -0.00001936
F        5.77923172       4.08653401       6.15508958       0.00104526       0.00074494      -0.00001228
F        4.66643430       0.93909693       4.22767813       0.00050418      -0.00071245      -0.00090227
F        2.44086685       4.08653988       8.08249677      -0.00052299       0.00074977       0.00089118
F        2.44085866       4.08654328       4.22768669      -0.00052120       0.00074568      -0.00091350
F        4.66644012       0.93909107       8.08249243       0.00051859      -0.00071487       0.00086588
