9
Lattice="6.494484914033926 -2.5502783116035286e-07 3.749592840994353 2.164828088369096 6.123059111315012 3.7495927991936786 1.351758854992987e-08 -4.163679368620798e-08 7.499185658575558" Properties=species:S:1:pos:R:3:forces:R:3 energy=-24.63042449951172 free_energy=-24.63042449951172 stress="-1.9889032046194188e-05 1.0838759223474881e-08 -6.434038191116542e-09 1.0838759223474881e-08 -1.991118369915057e-05 -2.8464601786737376e-09 -6.434038191116542e-09 -2.8464601786737376e-09 -1.9912857169401832e-05" pbc="T T T"
Fe       2.16482872       1.53076433       3.74959174       0.00000370      -0.00000237      -0.00000378
Fe       6.49448475       4.59229531      11.24877667      -0.00000150       0.00000570      -0.00000713
P       -0.00000017      -0.00000003       0.00000019       0.00000039      -0.00000090       0.00000090
I        2.22520608       1.57345741       7.49918596      -0.00062575      -0.00044376       0.00000200
I        6.43410721       4.54960121       7.49918621       0.00062547       0.00044274       0.00000194
I        5.38188171       1.57345693       5.67667799       0.00031263      -0.00044452      -0.00054010
I        3.27743122       4.54960088       9.32169425      -0.00031245       0.00044199       0.00054300
I        3.27743083       4.54960126       5.67667798      -0.00031453       0.00044292      -0.00054023
I        5.38188171       1.57345799       9.32169420       0.00031199      -0.00044185       0.00054345
