9
Lattice="5.982603911139969 -2.6009512962143913e-08 3.4540580293953655 1.9942012370753361 5.640453147884879 3.4540581023423393 -3.15969591208003e-08 6.699902242461442e-08 6.908116113518284" Properties=species:S:1:pos:R:3:forces:R:3 energy=-32.81121063232422 free_energy=-32.81121063232422 stress="-4.135719427722506e-05 -1.440383012862867e-08 -1.8305792437445234e-08 -1.440383012862867e-08 -4.135438575758599e-05 3.661489245132543e-08 -1.8305792437445234e-08 3.661489245132543e-08 -4.1357339796377346e-05" pbc="T T T"
Fe       1.99420082       1.41011309       3.45405812      -0.00000016       0.00000070       0.00000051
Fe       5.98260370       4.23033990      10.36217414      -0.00000150      -0.00000060      -0.00000009
Ru      -0.00000029       0.00000021       0.00000034       0.00000568      -0.00000423      -0.00000613
Br       2.01137135       1.42225445       6.90811615      -0.00049276      -0.00034828       0.00000060
Br       5.96543414       4.21819895       6.90811617       0.00048987       0.00034588       0.00000061
Br       4.97691816       1.42225430       5.19595685       0.00024504      -0.00034633      -0.00042428
Br       2.99988720       4.21819869       8.62027516      -0.00024756       0.00035243       0.00043022
Br       2.99988700       4.21819872       5.19595690      -0.00024449       0.00034759      -0.00042545
Br       4.97691838       1.42225447       8.62027515       0.00024584      -0.00034721       0.00042401
