9
Lattice="5.613873475629083 -2.9598983801058305e-08 3.241171262967539 1.871291124152354 5.292810737089806 3.2411712741989955 -3.908684561695171e-08 -1.3882894154740012e-08 6.482342593635464" Properties=species:S:1:pos:R:3:forces:R:3 energy=-34.83642578125 free_energy=-34.83642578125 stress="-9.88307292573154e-05 2.342992466708438e-08 -1.0023043506279805e-09 2.342992466708438e-08 -9.882774611469358e-05 -2.652109465373087e-08 -1.0023043506279805e-09 -2.652109465373087e-08 -9.877485717879608e-05" pbc="T T T"
Fe       1.87129083       1.32320296       3.24117191      -0.00000280       0.00000125       0.00000334
Fe       5.61387348       3.96960790       9.72351511       0.00000144      -0.00000006       0.00000660
Rh       0.00000019      -0.00000028       0.00000035      -0.00000289       0.00000151      -0.00001339
Cl       1.87841130       1.32823755       6.48234235      -0.00451657      -0.00319378      -0.00000179
Cl       5.60675332       3.96457316       6.48234197       0.00451812       0.00319387      -0.00000266
Cl       4.67466795       1.32823740       4.86792277       0.00225583      -0.00318937      -0.00390932
Cl       2.81049663       3.96457341       8.09676181      -0.00225975       0.00319535       0.00391234
Cl       2.81049676       3.96457337       4.86792273      -0.00225441       0.00318888      -0.00390865
Cl       4.67466775       1.32823725       8.09676149       0.00226100      -0.00319761       0.00391355
