9
Lattice="4.732370983513084 -6.532420396100452e-08 2.73223573986896 1.5774569503284008 4.461722110537853 2.7322357097100394 1.072842091909633e-07 3.892438273182346e-08 5.464471293916233" Properties=species:S:1:pos:R:3:forces:R:3 energy=-43.04648971557617 free_energy=-43.04648971557617 stress="0.0006587097304873168 -1.1639761510195967e-07 -3.3251339459638984e-08 -1.1639761510195967e-07 0.0006587342941202223 3.018860539327761e-08 -3.3251339459638984e-08 3.018860539327761e-08 0.0006588943651877344" pbc="T T T"
Fe       1.57745777       1.11543068       2.73223540       0.00000361       0.00000073      -0.00000234
Fe       4.73237099       3.34629195       8.19670652       0.00000069       0.00000417      -0.00000215
Rh       0.00000003       0.00000004      -0.00000017      -0.00000112       0.00000446       0.00000432
F        1.61173844       1.13967079       5.46447178      -0.00387773      -0.00274453       0.00000123
F        4.69808958       3.32205141       5.46447157       0.00387514       0.00274201      -0.00000035
F        3.92650159       1.13967088       4.12804269       0.00194233      -0.00274962      -0.00336657
F        2.38332634       3.32205053       6.80090057      -0.00194253       0.00274587       0.00336468
F        2.38332589       3.32205061       4.12804224      -0.00194212       0.00274396      -0.00336352
F        3.92650159       1.13967142       6.80090052       0.00194160      -0.00274701       0.00336480
