9
Lattice="6.39421505231408 -4.7279405546039084e-08 3.6917018317814474 2.1314049984064716 6.028523773954437 3.6917017875380465 7.066534876259956e-08 -4.218907030479187e-09 7.383403541167031" Properties=species:S:1:pos:R:3:forces:R:3 energy=-27.970787048339844 free_energy=-27.970787048339844 stress="2.302907159901224e-05 6.129763807649624e-09 -1.159281559637293e-08 6.129763807649624e-09 2.301381027791649e-05 5.872003772111611e-09 -1.159281559637293e-08 5.872003772111611e-09 2.301010135852266e-05" pbc="T T T"
Fe       2.13140580       1.50713105       3.69170299       0.00000325       0.00000147       0.00000481
Fe       6.39421441       4.52139251      11.07510420      -0.00000201      -0.00000215      -0.00000675
Rh      -0.00000002       0.00000011       0.00000048      -0.00000203      -0.00000268      -0.00000505
I        2.15010557       1.52035448       7.38340358      -0.00114898      -0.00081041      -0.00000179
I        6.37551435       4.50816922       7.38340386       0.00115196       0.00081346       0.00000163
I        5.31916198       1.52035400       5.55374751       0.00057081      -0.00081147      -0.00099386
I        3.20645849       4.50816967       9.21305916      -0.00057305       0.00081409       0.00099734
I        3.20645784       4.50816945       5.55374762      -0.00057421       0.00080937      -0.00099325
I        5.31916208       1.52035443       9.21305925       0.00057427      -0.00081171       0.00099684
