9
Lattice="6.465601537397183 -7.995245577540643e-08 3.7329167696548584 2.155200468415501 6.095827455483821 3.7329167153903744 2.7090629565667768e-08 -4.7304267043702725e-08 7.465833492387409" Properties=species:S:1:pos:R:3:forces:R:3 energy=-28.46111297607422 free_energy=-28.46111297607422 stress="-0.00012834090739488602 -1.8684103153532305e-08 -8.071593171621316e-09 -1.8684103153532305e-08 -0.00012833123037125915 4.353768012776982e-09 -8.071593171621316e-09 4.353768012776982e-09 -0.00012833841901738197" pbc="T T T"
Fe       2.15520011       1.52395645       3.73291677      -0.00000354       0.00000005       0.00000000
Fe       6.46560111       4.57187116      11.19875033      -0.00000104       0.00000151       0.00000068
Ru       0.00000010      -0.00000034       0.00000016       0.00000120       0.00000296      -0.00000187
I        2.17829312       1.54028560       7.46583351      -0.00090471      -0.00064231      -0.00000024
I        6.44250906       4.55554163       7.46583336       0.00090522       0.00064007       0.00000060
I        5.37645518       1.54028572       5.61937412       0.00045415      -0.00064200      -0.00078597
I        3.24434715       4.55554166       9.31229300      -0.00045274       0.00064079       0.00078470
I        3.24434718       4.55554174       5.61937371      -0.00045289       0.00064033      -0.00078379
I        5.37645511       1.54028569       9.31229294       0.00045436      -0.00064143       0.00078584
