9
Lattice="5.930697755067747 7.472725571556416e-09 3.42408995894769 1.9768992687461506 5.591515445570556 3.424089941607198 1.0168350358912881e-08 -1.4047549083843467e-08 6.848179900283289" Properties=species:S:1:pos:R:3:forces:R:3 energy=-31.95453643798828 free_energy=-31.95453643798828 stress="-4.692993752541952e-05 2.5401190484330982e-08 9.031248526802926e-10 2.5401190484330982e-08 -4.6935969294281676e-05 -9.132669731570786e-09 9.031248526802926e-10 -9.132669731570786e-09 -4.695754614658654e-05" pbc="T T T"
Fe       1.97689945       1.39787918       3.42408969       0.00000174       0.00000123      -0.00000093
Fe       5.93069796       4.19363639      10.27227021      -0.00000015      -0.00000154       0.00000062
Rh       0.00000023      -0.00000008       0.00000023      -0.00000509      -0.00000160      -0.00000523
Br       1.98473697       1.40342120       6.84817995      -0.00010134      -0.00007089      -0.00000040
Br       5.92285982       4.18809431       6.84817986       0.00010517       0.00007427      -0.00000080
Br       4.93832916       1.40342090       5.14292260       0.00004967      -0.00007016      -0.00008679
Br       2.96926783       4.18809432       8.55343702      -0.00005133       0.00007226       0.00008974
Br       2.96926771       4.18809454       5.14292261      -0.00004932       0.00006979      -0.00008467
Br       4.93832900       1.40342098       8.55343701       0.00005069      -0.00007336       0.00008865
