9
Lattice="4.7364633410605075 -9.75311905742496e-08 2.73459850820288 1.5788210574289328 4.465580570165886 2.734598446376681 5.29720878989141e-09 -7.197563566881231e-08 5.469197007230756" Properties=species:S:1:pos:R:3:forces:R:3 energy=-44.607845306396484 free_energy=-44.607845306396484 stress="-0.00034977239556610584 6.670366303751507e-08 -2.235913454384786e-09 6.670366303751507e-08 -0.0003498105797916651 3.4289548977994855e-08 -2.235913454384786e-09 3.4289548977994855e-08 -0.0003498693404253572" pbc="T T T"
Fe       1.57882173       1.11639545       2.73459889       0.00000247       0.00000037       0.00000137
Fe       4.73646375       3.34918580       8.20379439       0.00000240       0.00000401      -0.00000399
Ru      -0.00000013      -0.00000023       0.00000023      -0.00000117       0.00000216       0.00000029
F        1.59972526       1.13117652       5.46919682       0.00483194       0.00341612      -0.00000179
F        4.71555882       3.33440396       5.46919746      -0.00483289      -0.00341776       0.00000235
F        3.93660063       1.13117601       4.12000116      -0.00241990       0.00341831       0.00418763
F        2.37868335       3.33440397       6.81839298       0.00241882      -0.00342098      -0.00418702
F        2.37868336       3.33440444       4.12000122       0.00241749      -0.00342228       0.00418973
F        3.93660073       1.13117570       6.81839280      -0.00241925       0.00341997      -0.00418851
