9
Lattice="6.720153756461875 -1.7172557558922495e-07 3.879882717039881 2.240051142704469 6.3358217510957795 3.8798826261852093 5.5425662430929065e-08 -7.20819635095537e-08 7.759765338079711" Properties=species:S:1:pos:R:3:forces:R:3 energy=-24.379589080810547 free_energy=-24.379589080810547 stress="3.208339694538154e-05 -1.568869656409788e-08 4.150468413399722e-09 -1.568869656409788e-08 3.209105852874927e-05 -1.8666032275405087e-08 4.150468413399722e-09 -1.8666032275405087e-08 3.2099385862238705e-05" pbc="T T T"
Fe       2.24005139       1.58395508       3.87988234       0.00000115      -0.00000172      -0.00000010
Fe       6.72015372       4.75186715      11.63964784      -0.00000056       0.00000537      -0.00000099
Sb      -0.00000084       0.00000122       0.00000004       0.00000663      -0.00001051      -0.00000047
I        2.36381991       1.67147248       7.75976534      -0.00433543      -0.00306620       0.00000030
I        6.59638542       4.66434870       7.75976533       0.00433503       0.00306582       0.00000026
I        5.53824382       1.67147218       5.92701064       0.00216631      -0.00306484      -0.00375253
I        3.42196130       4.66434831       9.59252004      -0.00216939       0.00306775       0.00375759
I        3.42196143       4.66434818       5.92701111      -0.00217058       0.00306962      -0.00375837
I        5.53824368       1.67147271       9.59252004       0.00216683      -0.00306530       0.00375423
