9
Lattice="5.832718699669414 -5.0013974732969544e-08 3.3675216495623066 1.944239553430873 5.4991398353130325 3.3675215906240137 3.7252698420385455e-08 -4.5842703546045166e-08 6.735043234601025" Properties=species:S:1:pos:R:3:forces:R:3 energy=-31.36665916442871 free_energy=-31.36665916442871 stress="0.00022493689903058112 4.6894630401084214e-08 8.48792502949891e-09 4.6894630401084214e-08 0.00022495798475574702 -5.018296000969258e-09 8.48792502949891e-09 -5.018296000969258e-09 0.0002248362870886922" pbc="T T T"
Fe       1.94423964       1.37478427       3.36752099       0.00000054      -0.00000049      -0.00000141
Fe       5.83271956       4.12435417      10.10256492      -0.00000029      -0.00000213       0.00000107
Sb      -0.00000023       0.00000025       0.00000036       0.00000214      -0.00000626      -0.00000212
Cl       1.97440306       1.39611401       6.73504353      -0.00114861      -0.00081113       0.00000136
Cl       5.80255521       4.10302621       6.73504320       0.00114915       0.00081393      -0.00000021
Cl       4.84551713       1.39611390       5.07740457       0.00057098      -0.00080693      -0.00098762
Cl       2.93144092       4.10302590       8.39268163      -0.00057258       0.00081053       0.00098968
Cl       2.93144091       4.10302641       5.07740491      -0.00057407       0.00081179      -0.00099099
Cl       4.84551696       1.39611388       8.39268177       0.00057282      -0.00080937       0.00099024
