9
Lattice="5.101458103549745 -2.5275375299134046e-08 2.9453282580335545 1.7004859660518954 4.809700980699089 2.9453283353432766 -1.1255282534069594e-08 8.672608381784853e-08 5.890656535561803" Properties=species:S:1:pos:R:3:forces:R:3 energy=-41.810550689697266 free_energy=-41.810550689697266 stress="-1.76251614902867e-05 7.625664544264055e-09 -2.9102377396839074e-08 7.625664544264055e-09 -1.7606107576284558e-05 5.448163875598766e-08 -2.9102377396839074e-08 5.448163875598766e-08 -1.759849146765191e-05" pbc="T T T"
Fe       1.70048673       1.20242379       2.94532951       0.00000056      -0.00000511       0.00000507
Fe       5.10145782       3.60727563       8.83598412      -0.00000055      -0.00000028      -0.00000085
Sb      -0.00000017      -0.00000001       0.00000082       0.00000243       0.00000268      -0.00002356
F        1.69124838       1.19589325       5.89065531      -0.00196019      -0.00138602      -0.00000113
F        5.11069522       3.61380788       5.89065632       0.00195685       0.00138590       0.00000132
F        4.25583297       1.19589362       4.40999223       0.00097641      -0.00138316      -0.00169507
F        2.54611054       3.61380868       7.37132074      -0.00098108       0.00139195       0.00170317
F        2.54611016       3.61380829       4.40999288      -0.00097570       0.00138116      -0.00168923
F        4.25583438       1.19589310       7.37132077       0.00098129      -0.00138718       0.00170037
