9
Lattice="6.112011153565667 7.10920259295614e-08 3.5287711239742956 2.0373371004686907 5.762459143738537 3.528771154711434 -3.069978442738989e-08 1.5937135393141312e-08 7.057542301122184" Properties=species:S:1:pos:R:3:forces:R:3 energy=-28.816312789916992 free_energy=-28.816312789916992 stress="1.0382991604274139e-05 -2.954126943066626e-09 -1.515382308525659e-08 -2.954126943066626e-09 1.0368581570219249e-05 2.7020570669833432e-08 -1.515382308525659e-08 2.7020570669833432e-08 1.0387262591393664e-05" pbc="T T T"
Fe       2.03733672       1.44061492       3.52877110      -0.00000037       0.00000059       0.00000032
Fe       6.11201162       4.32184426      10.58631298       0.00000091      -0.00000161       0.00000059
Sb       0.00000015       0.00000011       0.00000092       0.00000064      -0.00000314      -0.00001417
Br       2.13894542       1.51246261       7.05754244      -0.00200322      -0.00141592      -0.00000011
Br       6.01040265       4.24999661       7.05754251       0.00200430       0.00141672       0.00000081
Br       5.04253851       1.51246288       5.38115233       0.00100055      -0.00141419      -0.00173282
Br       3.10681000       4.24999611       8.73393180      -0.00100524       0.00142132       0.00174063
Br       3.10680961       4.24999671       5.38115204      -0.00100062       0.00141376      -0.00173250
Br       5.04253819       1.51246272       8.73393221       0.00100305      -0.00141752       0.00173718
