9
Lattice="5.823092565973753 -2.7256812958463426e-07 3.3619605497070775 1.9410303754617528 5.4900628444250765 3.361960935751839 -1.2812361551033635e-06 -4.33164257485666e-07 6.723923318580124" Properties=species:S:1:pos:R:3:forces:R:3 energy=-53.449466705322266 free_energy=-53.449466705322266 stress="3.5885474062524736e-05 8.357660163937908e-08 -6.1502646531153e-08 8.357660163937908e-08 3.577146344468929e-05 5.4045877107000706e-08 -6.1502646531153e-08 5.4045877107000706e-08 3.5664917959365994e-05" pbc="T T T"
Fe       1.94103536       1.37250815       3.36196301       0.00000102       0.00000074      -0.00000001
Fe       5.82309653       4.11755415      10.08587969      -0.00000134      -0.00000116      -0.00000099
Ta      -0.00000103       0.00000006      -0.00000054       0.00000855      -0.00001098       0.00001637
F        1.56026306       1.10327568       6.72392424       0.00413102       0.00292355       0.00000122
F        6.20385150       4.38679208       6.72392387      -0.00412756      -0.00292468      -0.00000400
F        5.04295673       1.10327204       4.71319128      -0.00206771       0.00293076       0.00358588
F        2.72116214       4.38678733       8.73465377       0.00206411      -0.00292760      -0.00358105
F        2.72116231       4.38678731       4.71319054       0.00206861      -0.00292814       0.00358123
F        5.04295806       1.10327273       8.73465292      -0.00207648       0.00293756      -0.00359863
