9
Lattice="5.837759450402111 -1.2345800683007518e-07 3.370431855978915 1.9459196969705026 5.503892503731681 3.3704318619248235 -7.971209151206285e-08 -4.908277230108048e-08 6.740863850023249" Properties=species:S:1:pos:R:3:forces:R:3 energy=-41.58063888549805 free_energy=-41.58063888549805 stress="0.0002965867752209306 4.970704381435098e-08 -3.929569114546894e-09 4.970704381435098e-08 0.0002964283630717546 4.53059953997581e-08 -3.929569114546894e-09 4.53059953997581e-08 0.0002965090097859502" pbc="T T T"
Fe       1.94591806       1.37597258       3.37043106      -0.00000536      -0.00000173      -0.00000111
Fe       5.83775941       4.12791993      10.11129545      -0.00000079      -0.00000079       0.00000180
Ta       0.00000029       0.00000000       0.00000029       0.00000017      -0.00000060       0.00000110
Cl       1.96323921       1.38821970       6.74086400      -0.00381029      -0.00269622       0.00000122
Cl       5.82044011       4.11567259       6.74086372       0.00381303       0.00269556       0.00000139
Cl       4.85614018       1.38821987       5.07064716       0.00190908      -0.00269759      -0.00330085
Cl       2.92753948       4.11567275       8.41108069      -0.00190690       0.00269771       0.00330132
Cl       2.92753955       4.11567250       5.07064679      -0.00190189       0.00269431      -0.00329822
Cl       4.85613999       1.38821932       8.41108109       0.00190297      -0.00269049       0.00329351
