9
Lattice="6.254726475465475 -4.340137121924015e-08 3.6111681035031062 2.084908801055819 5.897012642629751 3.6111680743702688 3.0403336932501826e-08 -1.4181877300594804e-08 7.222336154346082" Properties=species:S:1:pos:R:3:forces:R:3 energy=-38.17842483520508 free_energy=-38.17842483520508 stress="0.00023737121955491602 -6.056551882238637e-08 5.540798486691756e-09 -6.056551882238637e-08 0.0002374047617195174 -8.819507790747139e-09 5.540798486691756e-09 -8.819507790747139e-09 0.00023745121143292636" pbc="T T T"
Fe       2.08490884       1.47425317       3.61116807      -0.00000000      -0.00000085       0.00000017
Fe       6.25472628       4.42275927      10.83350453      -0.00000069      -0.00000036       0.00000049
Ta      -0.00000008      -0.00000030       0.00000006       0.00000199       0.00000654      -0.00000309
Br       2.07157022       1.46482118       7.22233611      -0.00223351      -0.00157908       0.00000026
Br       6.26806511       4.43219130       7.22233613       0.00223014       0.00157747       0.00000033
Br       5.21894122       1.46482169       5.40520088       0.00111888      -0.00158247      -0.00193781
Br       3.12069417       4.43219116       9.03947154      -0.00111814       0.00158110       0.00193644
Br       3.12069430       4.43219103       5.40520083      -0.00111872       0.00158191      -0.00193718
Br       5.21894119       1.46482183       9.03947115       0.00111991      -0.00158429       0.00194052
