9
Lattice="6.740134648667738 -6.251677126870955e-09 3.8914187459945953 2.2467115436205254 6.354659843334481 3.8914187460660767 7.393229627348098e-08 5.236565508328366e-08 7.782837363934662" Properties=species:S:1:pos:R:3:forces:R:3 energy=-33.39230728149414 free_energy=-33.39230728149414 stress="0.00018231247668154538 9.485006557952147e-09 1.856354536755589e-08 9.485006557952147e-09 0.00018231559079140425 -1.8426447923047817e-08 1.856354536755589e-08 -1.8426447923047817e-08 0.0001823234633775428" pbc="T T T"
Fe       2.24671139       1.58866563       3.89141963      -0.00000208       0.00000145       0.00000191
Fe       6.74013453       4.76599505      11.67425459       0.00000185      -0.00000026      -0.00000297
Ta       0.00000023       0.00000021       0.00000046       0.00000054      -0.00000102      -0.00000389
I        2.24599077       1.58815510       7.78283741      -0.00490122      -0.00346602      -0.00000073
I        6.74085559       4.76650439       7.78283761       0.00490216       0.00346561       0.00000078
I        5.61713962       1.58815474       5.83650386       0.00244899      -0.00346467      -0.00424297
I        3.36970680       4.76650466       9.72917092      -0.00245048       0.00346677       0.00424629
I        3.36970666       4.76650458       5.83650417      -0.00245146       0.00346508      -0.00424532
I        5.61713944       1.58815522       9.72917080       0.00245167      -0.00346697       0.00424680
