9
Lattice="5.6374374030272065 5.334477773168429e-08 3.2547759233673323 1.8791458360169937 5.315026989308186 3.254775949843481 3.5659537625443455e-08 5.7641630638249975e-08 6.509551784970505" Properties=species:S:1:pos:R:3:forces:R:3 energy=-31.25456428527832 free_energy=-31.25456428527832 stress="2.305611087649595e-05 2.521860054116587e-08 -1.7804995255943368e-09 2.521860054116587e-08 2.304330701008439e-05 3.138912907374447e-09 -1.7804995255943368e-09 3.138912907374447e-09 2.300461164850276e-05" pbc="T T T"
Ga       1.87914574       1.32875676       3.25477592       0.00000004      -0.00000001      -0.00000001
Ga       5.63743747       3.98627039       9.76432767       0.00000047      -0.00000029      -0.00000042
As       0.00000011      -0.00000010       0.00000036      -0.00000042       0.00000073      -0.00000208
Se       2.20039536       1.55591450       6.50955185       0.00062385       0.00044158       0.00000050
Se       5.31618790       3.75911260       6.50955196      -0.00062335      -0.00044113      -0.00000003
Se       4.53724003       1.55591412       5.16037383      -0.00031266       0.00044155       0.00054148
Se       2.97934348       3.75911273       7.85872961       0.00031202      -0.00044167      -0.00054088
Se       2.97934325       3.75911286       5.16037382       0.00031197      -0.00044256       0.00054181
Se       4.53723979       1.55591456       7.85872961      -0.00031206       0.00044188      -0.00054020
