9
Lattice="6.336393170887929 -3.6054546842680814e-08 3.658318194218723 2.112131033347079 5.974008580260955 3.65831817624522 2.1072165860792206e-09 -2.0522905352439574e-08 7.3166363847876505" Properties=species:S:1:pos:R:3:forces:R:3 energy=-24.46639060974121 free_energy=-24.46639060974121 stress="-3.653622479760088e-05 5.286300286400092e-09 -7.767681609038846e-09 5.286300286400092e-09 -3.655472391983494e-05 1.9474344359338147e-09 -7.767681609038846e-09 1.9474344359338147e-09 -3.656790795503184e-05" pbc="T T T"
Ga       2.11213107       1.49350218       3.65831813       0.00000012       0.00000004      -0.00000013
Ga       6.33639318       4.48050644      10.97495439      -0.00000014       0.00000002       0.00000006
As      -0.00000000      -0.00000020       0.00000000      -0.00000060       0.00000136      -0.00000057
Br       2.12282367       1.50106289       7.31663650       0.00108200       0.00076520      -0.00000031
Br       6.32570060       4.47294570       7.31663656      -0.00108236      -0.00076561      -0.00000006
Br       5.27498140       1.50106280       5.49673714      -0.00054148       0.00076575       0.00093801
Br       3.17354295       4.47294569       9.13653553       0.00054112      -0.00076558      -0.00093807
Br       3.17354281       4.47294569       5.49673716       0.00054201      -0.00076640       0.00093879
Br       5.27498123       1.50106296       9.13653556      -0.00054067       0.00076531      -0.00093769
