9
Lattice="6.772043256201843 -1.199178842986619e-08 3.9098409684703523 2.257347747866996 6.384743518312339 3.9098409561629044 2.4568755199940633e-08 2.2992779924652037e-09 7.819681894386355" Properties=species:S:1:pos:R:3:forces:R:3 energy=-21.457279205322266 free_energy=-21.457279205322266 stress="-0.00021063408348709345 -1.3381176167115427e-09 1.3823437949866957e-09 -1.3381176167115427e-09 -0.0002106339525198564 -2.661033615680708e-10 1.3823437949866957e-09 -2.661033615680708e-10 -0.00021063623717054725" pbc="T T T"
Ga       2.25734773       1.59618580       3.90984097      -0.00000007       0.00000007      -0.00000017
Ga       6.77204330       4.78855771      11.72952286      -0.00000005      -0.00000007      -0.00000025
As      -0.00000011      -0.00000006      -0.00000006      -0.00000014      -0.00000066       0.00000045
I        2.30917011       1.63282984       7.81968193       0.00006142       0.00004314      -0.00000000
I        6.72022094       4.75191366       7.81968197      -0.00006075      -0.00004276      -0.00000023
I        5.61745823       1.63282989       5.90964089      -0.00003068       0.00004334       0.00005306
I        3.41193293       4.75191360       9.72972283       0.00003054      -0.00004332      -0.00005247
I        3.41193281       4.75191361       5.90964105       0.00003055      -0.00004301       0.00005271
I        5.61745818       1.63282996       9.72972290      -0.00003083       0.00004326      -0.00005312
