9
Lattice="5.033278862981253 1.4312905614713267e-07 2.905965153378153 1.6777598189075489 4.745419138783823 2.9059650443102236 3.1376230384426274e-07 8.82830953292726e-08 5.811929763304013" Properties=species:S:1:pos:R:3:forces:R:3 energy=-38.464378356933594 free_energy=-38.464378356933594 stress="9.873688395600766e-05 -3.3919711484031723e-09 -8.439482002131626e-08 -3.3919711484031723e-09 9.867085464065894e-05 4.869750713787369e-10 -8.439482002131626e-08 4.869750713787369e-10 9.876170224742964e-05" pbc="T T T"
Ga       1.67776102       1.18635462       2.90596437      -0.00000217      -0.00000047       0.00000136
Ga       5.03327913       3.55906461       8.71789604       0.00000050      -0.00000015      -0.00000267
As      -0.00000030      -0.00000019      -0.00000032       0.00000118       0.00000402       0.00001377
F        1.57142794       1.11116706       5.81192991      -0.00018269      -0.00012888      -0.00000079
F        5.13961035       3.63425106       5.81192998       0.00018355       0.00013039      -0.00000139
F        4.24756482       1.11116769       4.26686165       0.00009277      -0.00013228      -0.00016147
F        2.46347440       3.63425208       7.35699800      -0.00009222       0.00012793       0.00015637
F        2.46347397       3.63425180       4.26686123      -0.00009158       0.00012887      -0.00015992
F        4.24756477       1.11116802       7.35699870       0.00009066      -0.00012949       0.00015488
