9
Lattice="4.362033405055242 -8.793069052230032e-08 2.518421046736862 1.4540110719869557 4.112564336855679 2.518421012320345 -1.0750645168690459e-08 -4.975331357845624e-08 5.0368421120944" Properties=species:S:1:pos:R:3:forces:R:3 energy=-44.06079864501953 free_energy=-44.06079864501953 stress="0.0003821137943305075 6.512933481417349e-08 -2.414653188509419e-08 6.512933481417349e-08 0.0003826134779956192 9.243044729601024e-08 -2.414653188509419e-08 9.243044729601024e-08 0.000382295431336388" pbc="T T T"
Ga       1.45400987       1.02813990       2.51842106      -0.00002268      -0.00001808       0.00000371
Ga       4.36203150       3.08442183       7.55526369      -0.00003067      -0.00002420       0.00000754
As      -0.00000010      -0.00000000      -0.00000008       0.00000287      -0.00000189      -0.00000345
O        1.47473803       1.04279744       5.03684204      -0.00146127      -0.00103456      -0.00000216
O        4.34130647       3.06976739       5.03684150       0.00146210       0.00103861      -0.00000528
O        3.62466519       1.04279755       3.79558167       0.00074476      -0.00102675      -0.00126803
O        2.19138078       3.06976739       6.27810249      -0.00072193       0.00104666       0.00127184
O        2.19138095       3.06976731       3.79558134      -0.00071722       0.00104356      -0.00127435
O        3.62466513       1.04279784       6.27810282       0.00074375      -0.00102383       0.00127029
