9
Lattice="5.76800389503117 -1.5678923984424018e-07 3.330158589146674 1.9226678017042362 5.43812610478246 3.330158615965418 6.058567018989142e-08 7.568663724069638e-08 6.660317073355811" Properties=species:S:1:pos:R:3:forces:R:3 energy=-31.40470314025879 free_energy=-31.40470314025879 stress="-8.199446165235713e-05 -8.903541015570227e-08 1.076396194399365e-09 -8.903541015570227e-08 -8.191842789528891e-05 -8.741854351512757e-09 1.076396194399365e-09 -8.741854351512757e-09 -8.180400618584827e-05" pbc="T T T"
Ga       1.92266829       1.35953200       3.33015800       0.00000111       0.00000193      -0.00000174
Ga       5.76800340       4.07859447       9.99047396      -0.00000103      -0.00000094      -0.00000651
As       0.00000005      -0.00000001       0.00000021       0.00000489       0.00000288       0.00000056
S        1.93086531       1.36532781       6.66031602      -0.00121951      -0.00086451      -0.00000388
S        5.75980741       4.07279817       6.66031804       0.00121474       0.00085747       0.00000167
S        4.80257068       1.36532794       5.00233772       0.00061226      -0.00086713      -0.00105822
S        2.88810088       4.07279678       8.31829751      -0.00061077       0.00086451       0.00106323
S        2.88810051       4.07279843       5.00233858      -0.00061321       0.00086808      -0.00105792
S        4.80257070       1.36532910       8.31829724       0.00061178      -0.00086224       0.00106287
