9
Lattice="5.9079737079376295 -3.783188759926241e-08 3.410970227670975 1.9693244956482112 5.570091284491072 3.4109702934820767 -6.548679016177758e-08 3.429567704068707e-08 6.821940568768384" Properties=species:S:1:pos:R:3:forces:R:3 energy=-27.370044708251953 free_energy=-27.370044708251953 stress="0.0002157748385798186 -2.1121804305579417e-09 4.037665202183405e-10 -2.1121804305579417e-09 0.00021577157895080745 -4.121113672539423e-09 4.037665202183405e-10 -4.121113672539423e-09 0.0002157951967092231" pbc="T T T"
Ga       1.96932455       1.39252298       3.41097029      -0.00000017      -0.00000007       0.00000003
Ga       5.90797376       4.17756840      10.23291079       0.00000031       0.00000019       0.00000041
As      -0.00000010      -0.00000004       0.00000014      -0.00000039       0.00000007       0.00000002
Cl       1.95457973       1.38209696       6.82194060       0.00342280       0.00242025      -0.00000013
Cl       5.92271832       4.18799461       6.82194037      -0.00342363      -0.00242114      -0.00000027
Cl       4.93068383       1.38209676       5.10368627      -0.00171140       0.00242054       0.00296411
Cl       2.94661443       4.18799451       8.54019474       0.00171176      -0.00242037      -0.00296429
Cl       2.94661439       4.18799425       5.10368619       0.00171183      -0.00242016       0.00296396
Cl       4.93068368       1.38209678       8.54019487      -0.00171098       0.00242051      -0.00296405
