9
Lattice="5.835973417384859 1.1508275953612286e-07 3.369400594593583 1.9453245701238036 5.502208377029592 3.3694006133670147 -7.984975300186009e-08 -3.3469616720412346e-08 6.7388013274909895" Properties=species:S:1:pos:R:3:forces:R:3 energy=-27.905582427978516 free_energy=-27.905582427978516 stress="-8.225117085203237e-07 2.0950000845232353e-08 -2.7676968272771774e-08 2.0950000845232353e-08 -7.708246698712173e-07 -1.841050867312788e-08 -2.7676968272771774e-08 -1.841050867312788e-08 -7.782115289955982e-07" pbc="T T T"
Ga       1.94532495       1.37555195       3.36940057       0.00000004       0.00000003      -0.00000035
Ga       5.83597322       4.12665668      10.10820207       0.00000012      -0.00000034       0.00000006
B        0.00000014       0.00000037      -0.00000119      -0.00000067       0.00000345      -0.00000819
Cl       1.68477111       1.19131319       6.73880116       0.00003755       0.00002483       0.00000234
Cl       6.09652682       4.31089514       6.73880135      -0.00003704      -0.00002593       0.00000023
Cl       4.99358788       1.19131315       4.82845516      -0.00001799       0.00002602       0.00003418
Cl       2.78770961       4.31089528       8.64914772       0.00001891      -0.00002801      -0.00003117
Cl       2.78771018       4.31089522       4.82845524       0.00002009      -0.00002548       0.00003445
Cl       4.99358781       1.19131276       8.64914787      -0.00002079       0.00002494      -0.00003126
