9
Lattice="5.9033987428431605 -8.540579221785939e-08 3.408329217991269 1.9677997291518092 5.565778156247201 3.40832882182712 -2.2723478975522318e-08 -5.012680762365138e-07 6.816658475340618" Properties=species:S:1:pos:R:3:forces:R:3 energy=-25.389921188354492 free_energy=-25.389921188354492 stress="1.4515484508592635e-05 1.322271003800779e-07 3.233125056567587e-08 1.322271003800779e-07 1.4716554687765893e-05 -2.2615669337255895e-09 3.233125056567587e-08 -2.2615669337255895e-09 1.4901016584190074e-05" pbc="T T T"
Ga       1.96774817       1.39145409       3.40834385      -0.00015382       0.00002868       0.00005217
Ga       5.90339197       4.17433664      10.22501155      -0.00003746       0.00001298       0.00007819
Be       0.00000075      -0.00000136       0.00000299      -0.00001069       0.00000163       0.00001137
Cl       1.91310140       1.35275737       6.81665227      -0.00074542      -0.00055182      -0.00002099
Cl       5.95811427       4.21301149       6.81664838       0.00080752       0.00052363      -0.00003202
Cl       4.94686400       1.35276069       5.06511356       0.00043085      -0.00054422      -0.00067380
Cl       2.92434967       4.21301550       8.56819228      -0.00037006       0.00054416       0.00064486
Cl       2.92435482       4.21301579       5.06511258      -0.00035858       0.00054187      -0.00068864
Cl       4.94686862       1.35275984       8.56818847       0.00043783      -0.00055641       0.00062892
