9
Lattice="4.3294346667935555 1.670311065270425e-08 2.4996002887874633 1.4431448850725261 4.081830251543789 2.4996003227469137 2.2497598311183757e-08 5.749987325634991e-08 4.999200538607936" Properties=species:S:1:pos:R:3:forces:R:3 energy=-39.69490051269531 free_energy=-39.69490051269531 stress="0.00015938750584609807 -1.277331218574318e-08 -7.743025065565234e-08 -1.277331218574318e-08 0.00015957395953591913 5.841130956696361e-08 -7.743025065565234e-08 5.841130956696361e-08 0.00015946089115459472" pbc="T T T"
Ga       1.44314481       1.02045743       2.49960036       0.00000261      -0.00000173       0.00000075
Ga       4.32943499       3.06137291       7.49880047       0.00000105       0.00000282      -0.00000865
Be      -0.00000005       0.00000003      -0.00000013      -0.00000059       0.00000040       0.00000094
F        1.39765766       0.98829332       4.99920049       0.00283128       0.00200313      -0.00000003
F        4.37492192       3.09353703       4.99920082      -0.00283194      -0.00200287       0.00000242
F        3.63060570       0.98829318       3.71000751      -0.00141618       0.00199980       0.00245529
F        2.14197391       3.09353705       6.28839381       0.00141600      -0.00200194      -0.00245261
F        2.14197357       3.09353701       3.71000749       0.00141376      -0.00200284       0.00245500
F        3.63060578       0.98829332       6.28839381      -0.00141597       0.00200292      -0.00245243
