9
Lattice="4.677874457723822 -2.508871862083368e-07 2.700772516573868 1.5592909332377851 4.410344493338904 2.700773064129553 -5.921907199987085e-07 2.5187394919721386e-07 5.401546058852126" Properties=species:S:1:pos:R:3:forces:R:3 energy=-40.891563415527344 free_energy=-40.891563415527344 stress="-0.00015229819109663367 -9.931485323022571e-08 2.504343754594629e-08 -9.931485323022571e-08 -0.00015259238716680557 4.887355586902231e-08 2.504343754594629e-08 4.887355586902231e-08 -0.00015251507284119725" pbc="T T T"
Ga       1.55929384       1.10258806       2.70077230       0.00001311       0.00001206       0.00000046
Ga       4.67787465       3.30776138       8.10232041       0.00000826       0.00001747       0.00000709
B        0.00000142       0.00000256       0.00000196       0.00001027       0.00001611       0.00000790
F        1.32570377       0.93741444       5.40154622       0.00000495       0.00000030       0.00000011
F        4.91145771       3.47292659       5.40154529      -0.00002426      -0.00002152      -0.00000121
F        4.01502060       0.93741467       3.84886782      -0.00000677       0.00000077       0.00000918
F        2.22214340       3.47292687       6.95422168       0.00000611      -0.00001758      -0.00001800
F        2.22214414       3.47292788       3.84886839       0.00000370      -0.00001431       0.00001127
F        4.01501954       0.93741526       6.95422312      -0.00001386       0.00000614      -0.00001770
