9
Lattice="6.146827975290979 3.9131908833355185e-08 3.5488727255655768 2.0489426566107025 5.795285249775121 3.548872792619455 -3.02547058737488e-08 6.073057920085951e-08 7.097745503533918" Properties=species:S:1:pos:R:3:forces:R:3 energy=-23.588415145874023 free_energy=-23.588415145874023 stress="-5.358445196179673e-05 -2.9566944448333743e-09 5.068605535285542e-09 -2.9566944448333743e-09 -5.358196358429268e-05 1.697956775181808e-09 5.068605535285542e-09 1.697956775181808e-09 -5.3599320381181315e-05" pbc="T T T"
Ga       2.04894253       1.44882114       3.54887313       0.00000001      -0.00000011       0.00000033
Ga       6.14682773       4.34646426      10.64661813      -0.00000041      -0.00000001      -0.00000025
Be      -0.00000046      -0.00000065       0.00000000       0.00000030      -0.00000014       0.00000025
Br       1.99563739       1.41112858       7.09774526      -0.00286633      -0.00202774       0.00000035
Br       6.20013358       4.38415660       7.09774542       0.00286609       0.00202645       0.00000061
Br       5.14900931       1.41112921       5.27714505       0.00143449      -0.00202814      -0.00248139
Br       3.04676111       4.38415684       8.91834569      -0.00143270       0.00202690       0.00248256
Br       3.04676153       4.38415643       5.27714539      -0.00143427       0.00202888      -0.00248341
Br       5.14900967       1.41112897       8.91834597       0.00143278      -0.00202604       0.00248083
