9
Lattice="6.226364501273277 7.890995922799097e-10 3.594792954184205 2.0754548134178252 5.870272103534307 3.5947929907026386 -8.442026284672646e-08 -1.4968420192052432e-08 7.189586054588604" Properties=species:S:1:pos:R:3:forces:R:3 energy=-24.7957763671875 free_energy=-24.7957763671875 stress="-4.0424318285658956e-05 2.1087238621930737e-08 1.3378004481978678e-08 2.1087238621930737e-08 -4.038404222228564e-05 5.761320309716211e-09 1.3378004481978678e-08 5.761320309716211e-09 -4.042169894091785e-05" pbc="T T T"
Ga       2.07545465       1.46756805       3.59479283      -0.00000087       0.00000080      -0.00000096
Ga       6.22636456       4.40270407      10.78437902       0.00000027      -0.00000065       0.00000118
B       -0.00000088      -0.00000094      -0.00000026      -0.00000306      -0.00000244       0.00000040
Br       1.83946260       1.30069655       7.18958596       0.00100339       0.00070965      -0.00000035
Br       6.46235803       4.56957585       7.18958634      -0.00100589      -0.00070993      -0.00000005
Br       5.30663315       1.30069673       5.18781406      -0.00050182       0.00071091       0.00086931
Br       2.99518580       4.56957565       9.19135792       0.00050488      -0.00070998      -0.00087044
Br       2.99518582       4.56957577       5.18781421       0.00050395      -0.00070947       0.00087015
Br       5.30663306       1.30069651       9.19135805      -0.00050066       0.00071088      -0.00086922
