9
Lattice="4.4181344420305315 4.233951666393357e-08 2.55081093640478 1.4727115367471684 4.165456946519043 2.5508109084282826 8.182601701927515e-08 2.3595629016767225e-08 5.101621731082763" Properties=species:S:1:pos:R:3:forces:R:3 energy=-42.8728141784668 free_energy=-42.8728141784668 stress="-0.00036693672882393 -1.419481066022854e-07 1.0758714807934666e-07 -1.419481066022854e-07 -0.000367261323845014 4.4995410064530006e-08 1.0758714807934666e-07 4.4995410064530006e-08 -0.00036712316796183586" pbc="T T T"
Ga       1.47271175       1.04135983       2.55080967       0.00000067      -0.00007400      -0.00001992
Ga       4.41813311       3.12409887       7.65243696      -0.00002156       0.00010052       0.00006798
Co      -0.00000004       0.00000005       0.00000035       0.00000422       0.00000140      -0.00000604
O        1.45007092       1.02535129       5.10162152       0.00772882       0.00540847       0.00000505
O        4.44077572       3.14010478       5.10161976      -0.00772309      -0.00542426      -0.00003311
O        3.69309996       1.02535309       3.80660838      -0.00384977       0.00543243       0.00667906
O        2.19774597       3.14010315       6.39663498       0.00384721      -0.00543123      -0.00667989
O        2.19774778       3.14010448       3.80660817       0.00387585      -0.00542110       0.00667363
O        3.69309928       1.02535239       6.39663447      -0.00386256       0.00540870      -0.00668716
