9
Lattice="6.1514071683339475 6.229507261186807e-08 3.551516503427919 2.0504691230038934 5.799602154049157 3.551516489294036 3.533414613411058e-08 7.674633772466238e-09 7.103032945655248" Properties=species:S:1:pos:R:3:forces:R:3 energy=-33.808773040771484 free_energy=-33.808773040771484 stress="-6.019133434165269e-05 2.3326174769522368e-08 1.4248162649721507e-09 2.3326174769522368e-08 -6.020110595272854e-05 -7.689538783495209e-09 1.4248162649721507e-09 -7.689538783495209e-09 -6.023018067935482e-05" pbc="T T T"
Ga       2.05046907       1.44990046       3.55151654       0.00000012      -0.00000004      -0.00000016
Ga       6.15140723       4.34970170      10.65454945       0.00000003       0.00000028       0.00000014
Cr       0.00000007       0.00000027      -0.00000040      -0.00000080      -0.00000149       0.00000164
Te       2.15901958       1.52665725       7.10303285      -0.00302702      -0.00214022       0.00000038
Te       6.04285662       4.27294487       7.10303293       0.00302830       0.00214148       0.00000025
Te       5.07189754       1.52665714       5.42128182       0.00151311      -0.00213991      -0.00262068
Te       3.12997862       4.27294532       8.78478430      -0.00151261       0.00213908       0.00261960
Te       3.12997894       4.27294503       5.42128197      -0.00151369       0.00214010      -0.00262100
Te       5.07189765       1.52665685       8.78478432       0.00151253      -0.00213929       0.00261985
