9
Lattice="6.057393645381144 2.1850005747166762e-07 3.4972378393325587 2.019131498435017 5.71096565409644 3.497237705437884 1.8539448722547055e-07 -3.289321685747084e-08 6.994475357552423" Properties=species:S:1:pos:R:3:forces:R:3 energy=-31.976871490478516 free_energy=-31.976871490478516 stress="0.0003110249526798725 4.316836221818221e-09 2.6082664916771137e-08 4.316836221818221e-09 0.00031102163484320045 -1.6868472840769755e-08 2.6082664916771137e-08 -1.6868472840769755e-08 0.000310996692860499" pbc="T T T"
Ga       2.01913170       1.42774133       3.49723776       0.00000027      -0.00000016       0.00000041
Ga       6.05739383       4.28322437      10.49171331      -0.00000022       0.00000022       0.00000050
Co      -0.00000052       0.00000002       0.00000109       0.00001000       0.00000000      -0.00001025
Te       2.00277689       1.41617708       6.99447536      -0.00704202      -0.00497973       0.00000043
Te       6.07374885       4.29478953       6.99447558       0.00703616       0.00497519      -0.00000046
Te       5.05600549       1.41617612       5.23169202       0.00351614      -0.00497276      -0.00609085
Te       3.02052001       4.29478897       8.75725773      -0.00352047       0.00497855       0.00609773
Te       3.02051963       4.29478905       5.23169239      -0.00351873       0.00497657      -0.00609518
Te       5.05600543       1.41617685       8.75725839       0.00351882      -0.00497787       0.00609767
