9
Lattice="4.642697877955049 -1.1770004396186511e-07 2.680462710426295 1.54756594152253 4.377176643010295 2.6804625490461573 4.4984290755045785e-08 -1.6584076759562977e-07 5.360925342937514" Properties=species:S:1:pos:R:3:forces:R:3 energy=-34.74066925048828 free_energy=-34.74066925048828 stress="-0.00012472450907807797 -8.606687806889113e-09 3.530700709575285e-08 -8.606687806889113e-09 -0.00012468505883589387 4.846586776352524e-08 3.530700709575285e-08 4.846586776352524e-08 -0.00012473300739657134" pbc="T T T"
Ga       1.54756563       1.09429250       2.68046265      -0.00000555      -0.00001344      -0.00000059
Ga       4.64269785       3.28288423       8.04138484      -0.00000116       0.00001895      -0.00003525
Cu       0.00000008      -0.00000009       0.00000004      -0.00000021       0.00000095       0.00000492
F        1.53632590       1.08634540       5.36092511       0.00380972       0.00268781      -0.00000150
F        4.65393820       3.29083063       5.36092742      -0.00380844      -0.00268963       0.00001686
F        3.87453476       1.08634516       4.01095996      -0.00190648       0.00268102       0.00330305
F        2.31572950       3.29083103       6.71089119       0.00191201      -0.00268826      -0.00329578
F        2.31572836       3.29083121       4.01096008       0.00190185      -0.00268719       0.00330627
F        3.87453513       1.08634528       6.71089094      -0.00190175       0.00268945      -0.00329784
