9
Lattice="5.6394835403005406 1.650926349634502e-08 3.2559573605865726 1.8798278461760494 5.3169560064234 3.2559573885693434 -2.3012172721205942e-09 3.264456434922159e-08 6.511914725158937" Properties=species:S:1:pos:R:3:forces:R:3 energy=-33.524017333984375 free_energy=-33.524017333984375 stress="0.0001521125523140654 5.016802973045742e-09 -1.2732622067801458e-08 5.016802973045742e-09 0.00015214506129268557 7.742982255365405e-09 -1.2732622067801458e-08 7.742982255365405e-09 0.0001521068625152111" pbc="T T T"
Ga       1.87982778       1.32923884       3.25595736       0.00000001       0.00000006       0.00000004
Ga       5.63948344       3.98771711       9.76787194      -0.00000033      -0.00000019      -0.00000021
Co       0.00000000       0.00000008       0.00000001      -0.00000005      -0.00000023       0.00000090
Se       1.87588157       1.32644837       6.51191463      -0.00269705      -0.00190670      -0.00000023
Se       5.64342999       3.99050759       6.51191467       0.00269687       0.00190675       0.00000014
Se       4.70154278       1.32644865       4.88051832       0.00134852      -0.00190681      -0.00233565
Se       2.81776873       3.99050746       8.14331132      -0.00134832       0.00190672       0.00233506
Se       2.81776856       3.99050754       4.88051830      -0.00134823       0.00190706      -0.00233524
Se       4.70154264       1.32644855       8.14331128       0.00134859      -0.00190668       0.00233515
