9
Lattice="5.642681188448372 -2.5076695343920647e-08 3.257803488239288 1.8808937095755882 5.319970815654649 3.257803481769497 5.145604987091143e-09 -4.2853541720865665e-09 6.515606967566126" Properties=species:S:1:pos:R:3:forces:R:3 energy=-35.86139678955078 free_energy=-35.86139678955078 stress="0.00026072977925650775 -1.242544556134817e-08 -1.681371841755208e-08 -1.242544556134817e-08 0.00026079852250404656 6.274481378909513e-09 -1.681371841755208e-08 6.274481378909513e-09 0.0002607380738481879" pbc="T T T"
Ga       1.88089367       1.32999277       3.25780342       0.00000011       0.00000045      -0.00000018
Ga       5.64268120       3.98997801       9.77341057       0.00000018       0.00000042       0.00000014
Cr       0.00000013       0.00000002       0.00000029      -0.00000016       0.00000073      -0.00000239
Se       1.97295161       1.39508748       6.51560699       0.00240066       0.00169600      -0.00000046
Se       5.55062324       3.92488320       6.51560692      -0.00239829      -0.00169678      -0.00000021
Se       4.65620539       1.39508753       4.96642965      -0.00120087       0.00169623       0.00207869
Se       2.86736956       3.92488322       8.06478416       0.00119929      -0.00169622      -0.00207822
Se       2.86736951       3.92488329       4.96642961       0.00119994      -0.00169683       0.00208056
Se       4.65620531       1.39508762       8.06478416      -0.00120091       0.00169603      -0.00207800
