9
Lattice="6.5505769011930965 -2.8181369096479545e-08 3.7819772834015115 2.18352558735585 6.1759432302254735 3.781977317705726 -6.846625800012522e-08 -6.3990567322849724e-09 7.563954685390031" Properties=species:S:1:pos:R:3:forces:R:3 energy=-20.032424926757812 free_energy=-20.032424926757812 stress="3.876918708556332e-05 -1.5667249719797383e-09 8.080203173221889e-10 -1.5667249719797383e-09 3.876113987644203e-05 9.904354003609228e-10 8.080203173221889e-10 9.904354003609228e-10 3.876562186633237e-05" pbc="T T T"
Ga       2.18352561       1.54398575       3.78197736      -0.00000033       0.00000000       0.00000019
Ga       6.55057683       4.63195743      11.34593198      -0.00000008      -0.00000013       0.00000009
Cu       0.00000002       0.00000016       0.00000026       0.00000009      -0.00000044      -0.00000065
I        2.21738192       1.56792586       7.56395469      -0.00043827      -0.00030984      -0.00000001
I        6.51672048       4.60801733       7.56395452       0.00043904       0.00031031       0.00000057
I        5.44188580       1.56792586       5.70228640       0.00021894      -0.00030978      -0.00037954
I        3.29221650       4.60801740       9.42562269      -0.00021926       0.00030999       0.00038020
I        3.29221671       4.60801722       5.70228649      -0.00021980       0.00030981      -0.00038054
I        5.44188579       1.56792576       9.42562276       0.00021962      -0.00030991       0.00037963
