9
Lattice="4.497629640086479 -3.043925550888636e-07 2.596707771236879 1.4992096469022307 4.2404055810357875 2.596707677953007 9.220108266424567e-08 -4.905291784957169e-08 5.193415382776795" Properties=species:S:1:pos:R:3:forces:R:3 energy=-48.57589340209961 free_energy=-48.57589340209961 stress="6.297094842011575e-06 -2.0826745128488255e-07 1.573750267880314e-07 -2.0826745128488255e-07 6.1394980548357125e-06 9.65802726682341e-08 1.573750267880314e-07 9.65802726682341e-08 6.028480129316449e-06" pbc="T T T"
Ga       1.49920516       1.06010517       2.59671068      -0.00004425       0.00003647       0.00002917
Ga       4.49762249       3.18030110       7.79012980      -0.00007020      -0.00002627       0.00006456
Cr       0.00000084      -0.00000036      -0.00000053       0.00000136       0.00002136      -0.00000684
O        1.52390292       1.07756115       5.19341481      -0.00021853      -0.00015591      -0.00001119
O        4.47294010       3.16284243       5.19341367       0.00024095       0.00013830      -0.00002264
O        3.73568019       1.07756211       3.91644375       0.00013724      -0.00015214      -0.00021122
O        2.26116198       3.16284476       6.47038452      -0.00009477       0.00015095       0.00018181
O        2.26116377       3.16284358       3.91644263      -0.00008476       0.00014475      -0.00021189
O        3.73568026       1.07756100       6.47038441       0.00013269      -0.00015740       0.00018795
