9
Lattice="5.8722020360796 -3.007833614859171e-08 3.3903174874471556 1.9574006798523504 5.536365152906948 3.3903174363217454 2.133762369113511e-08 -4.7527586939227965e-08 6.780634937936464" Properties=species:S:1:pos:R:3:forces:R:3 energy=-28.474252700805664 free_energy=-28.474252700805664 stress="0.0001201050981762819 -7.354869158149313e-09 8.152850838882841e-09 -7.354869158149313e-09 0.0001201600389322266 2.9262603451485347e-09 8.152850838882841e-09 2.9262603451485347e-09 0.0001201089980895631" pbc="T T T"
Ga       1.95740158       1.38409118       3.39031730       0.00000267      -0.00000001      -0.00000064
Ga       5.87220268       4.15227373      10.17095253       0.00000176      -0.00000067       0.00000100
Co      -0.00000055       0.00000021       0.00000079       0.00000258       0.00000085      -0.00000485
Cl       1.81143934       1.28088121       6.78063510       0.00135875       0.00096056      -0.00000016
Cl       6.01816333       4.25548415       6.78063499      -0.00136229      -0.00095969       0.00000077
Cl       4.96648245       1.28088129       4.95906996      -0.00068121       0.00096214       0.00117901
Cl       2.86312001       4.25548341       8.60219925       0.00067864      -0.00096065      -0.00117671
Cl       2.86312019       4.25548347       4.95907025       0.00067887      -0.00096178       0.00117779
Cl       4.96648187       1.28088156       8.60219940      -0.00067955       0.00095931      -0.00117594
