9
Lattice="6.178859211086307 -5.151644586384954e-08 3.567366024802309 2.059619690211295 5.825484352199107 3.5673660217665915 6.91801969879973e-11 -3.6690890677101837e-09 7.134732049484809" Properties=species:S:1:pos:R:3:forces:R:3 energy=-22.288604736328125 free_energy=-22.288604736328125 stress="-2.658587254700251e-05 1.3951774457954258e-10 2.1633814739629997e-09 1.3951774457954258e-10 -2.6570676709525287e-05 8.627349945555807e-10 2.1633814739629997e-09 8.627349945555807e-10 -2.6577437893138267e-05" pbc="T T T"
Ga       2.05961989       1.45637123       3.56736599       0.00000020       0.00000022      -0.00000002
Ga       6.17885911       4.36911325      10.70209806       0.00000010       0.00000008      -0.00000009
Cu       0.00000005       0.00000002       0.00000035       0.00000065       0.00000004      -0.00000320
Br       2.02824377       1.43418493       7.13473196       0.00111598       0.00078915       0.00000063
Br       6.21023494       4.39129914       7.13473200      -0.00111610      -0.00078923       0.00000075
Br       5.16473722       1.43418517       5.32387689      -0.00055790       0.00078882       0.00096662
Br       3.07374172       4.39129919       8.94558710       0.00055796      -0.00078894      -0.00096539
Br       3.07374166       4.39129918       5.32387692       0.00055751      -0.00078902       0.00096637
Br       5.16473727       1.43418503       8.94558705      -0.00055827       0.00078890      -0.00096546
