9
Lattice="4.116282514698102 7.557238601694775e-08 2.376536936264414 1.3720942240083622 3.880868621043789 2.376536968840831 6.178118298444718e-09 4.426640175781128e-08 4.753073861828029" Properties=species:S:1:pos:R:3:forces:R:3 energy=-46.350547790527344 free_energy=-46.350547790527344 stress="1.4487933185591828e-05 -9.468968720227622e-09 -1.7439454325085535e-07 -9.468968720227622e-09 1.4240653399610892e-05 1.8592693606933608e-07 -1.7439454325085535e-07 1.8592693606933608e-07 1.4115884368948173e-05" pbc="T T T"
Ga       1.37209771       0.97021651       2.37653786       0.00003693      -0.00000836       0.00001119
Ga       4.11628467       2.91065148       7.12961249       0.00002680      -0.00000109       0.00001317
C        0.00000026      -0.00000015       0.00000021      -0.00000016       0.00000396       0.00000141
O        1.23357448       0.87226905       4.75307419       0.00086355       0.00060910       0.00000636
O        4.25480036       3.00860024       4.75307287      -0.00087643      -0.00060213      -0.00001538
O        3.49949323       0.87227000       3.44484319      -0.00044358       0.00060624       0.00074041
O        1.98888099       3.00859920       6.06130333       0.00042093      -0.00060934      -0.00074857
O        1.98887985       3.00859938       3.44484435       0.00041223      -0.00061470       0.00075912
O        3.49949512       0.87226951       6.06130291      -0.00044078       0.00061595      -0.00076717
