9
Lattice="4.754252411908282 -6.093800017180651e-08 2.7448688988605228 1.5847508285778598 4.482351364711048 2.7448687567260635 9.001779795339342e-08 -1.104262319610941e-07 5.489737641805676" Properties=species:S:1:pos:R:3:forces:R:3 energy=-37.325927734375 free_energy=-37.325927734375 stress="-0.00015767719014547765 -8.690152242252225e-08 8.232399295593495e-08 -8.690152242252225e-08 -0.0001575961650814861 2.929055220590726e-08 8.232399295593495e-08 2.929055220590726e-08 -0.00015770795289427042" pbc="T T T"
Ga       1.58475150       1.12058839       2.74486854       0.00000517       0.00000294      -0.00000214
Ga       4.75425357       3.36176357       8.23460653       0.00000488       0.00000183      -0.00000201
C        0.00000686       0.00000344      -0.00000333       0.00004953       0.00001618      -0.00002504
F        1.33690345       0.94533305       5.48973715       0.00356625       0.00252466      -0.00000182
F        5.00209016       3.53701077       5.48973702      -0.00362980      -0.00256654       0.00000172
F        4.08579762       0.94533924       3.90266733      -0.00180262       0.00255326       0.00312594
F        2.25320450       3.53701623       7.07681186       0.00179286      -0.00252818      -0.00310811
F        2.25320624       3.53701386       3.90266583       0.00180189      -0.00254474       0.00312144
F        4.08579937       0.94533635       7.07681025      -0.00178823       0.00254077      -0.00311027
