9
Lattice="5.932997965931663 -9.681326970452069e-08 3.425418043208443 1.9776659332806596 5.593683805210429 3.4254179810048795 1.1663466959683907e-07 6.289763424103956e-09 6.850835884399568" Properties=species:S:1:pos:R:3:forces:R:3 energy=-24.121078491210938 free_energy=-24.121078491210938 stress="0.0002484699070919305 1.004913929847362e-08 1.755143053117081e-08 1.004913929847362e-08 0.00024846367887221277 7.611949293107045e-09 1.755143053117081e-08 7.611949293107045e-09 0.00024848917382769287" pbc="T T T"
Ga       1.97766806       1.39841963       3.42541765       0.00000462      -0.00000350      -0.00000168
Ga       5.93299886       4.19526157      10.27625340       0.00000148      -0.00000421      -0.00000038
Cu       0.00000017      -0.00000046       0.00000058      -0.00000488       0.00000751      -0.00000563
Cl       1.88874709       1.33554773       6.85083606      -0.00386411      -0.00272936       0.00000058
Cl       6.02191574       4.25813749       6.85083544       0.00386000       0.00272992       0.00000036
Cl       4.98862315       1.33554620       5.06112183       0.00192940      -0.00273004      -0.00334376
Cl       2.92203997       4.25813730       8.64055063      -0.00193042       0.00273305       0.00334418
Cl       2.92204014       4.25813816       5.06112201      -0.00192824       0.00272799      -0.00334132
Cl       4.98862297       1.33554733       8.64055017       0.00193149      -0.00273138       0.00334740
