9
Lattice="4.978380620123701 1.3836290238126183e-06 2.8742690073776953 1.6594607879046546 4.6936694193765245 2.874270260171779 -8.055757783965003e-07 9.647252449813575e-07 5.748539410053606" Properties=species:S:1:pos:R:3:forces:R:3 energy=-32.49098205566406 free_energy=-32.49098205566406 stress="0.0002113340888172388 -3.2760112844698597e-07 -6.430589394312847e-08 -3.2760112844698597e-07 0.00021061317238491029 5.000514846642545e-08 -6.430589394312847e-08 5.000514846642545e-08 0.00021153775742277503" pbc="T T T"
Ga       1.65946389       1.17341854       2.87426762       0.00000124       0.00000158      -0.00000703
Ga       4.97838075       3.52025505       8.62281063       0.00000608      -0.00000303      -0.00000816
C        0.00000118      -0.00000339      -0.00001525       0.00000945      -0.00002856      -0.00011835
S        1.58933416       1.12383480       5.74853809      -0.00230044      -0.00161284      -0.00002294
S        5.04850334       3.56983948       5.74853773       0.00228906       0.00162470      -0.00002188
S        4.18370584       1.12383869       4.25068167       0.00111917      -0.00158039      -0.00194085
S        2.45413107       3.56983873       7.24640856      -0.00116995       0.00168529       0.00207067
S        2.45413274       3.56983501       4.25067961      -0.00111845       0.00159055      -0.00196713
S        4.18370789       1.12382935       7.24640330       0.00116408      -0.00167665       0.00201619
