9
Lattice="5.343678305060463 -1.1489133808762707e-08 3.0851741964191555 1.7812261216656073 5.038067998062922 3.0851741430532464 8.092076439480992e-08 -8.13999377251627e-09 6.170348252679455" Properties=species:S:1:pos:R:3:forces:R:3 energy=-36.24342727661133 free_energy=-36.24342727661133 stress="4.473568333196454e-05 -4.066573744410107e-09 -1.5419965748719733e-08 -4.066573744410107e-09 4.466145037440583e-05 -1.7419901965354256e-08 -1.5419965748719733e-08 -1.7419901965354256e-08 4.469715349841863e-05" pbc="T T T"
Ga       1.78122593       1.25951675       3.08517421       0.00000047       0.00000056       0.00000013
Ga       5.34367777       3.77855119       9.25552395      -0.00000162       0.00000086       0.00000287
Co       0.00000008       0.00000108      -0.00000093      -0.00000117      -0.00001130       0.00001295
S        1.75688134       1.24230253       6.17034857      -0.00031373      -0.00022160       0.00000153
S        5.36802306       3.79576510       6.17034792       0.00031969       0.00022577      -0.00000038
S        4.46523780       1.24230292       4.60667743       0.00015946      -0.00022437      -0.00027534
S        2.65966734       3.79576556       7.73401876      -0.00015634       0.00022124       0.00027120
S        2.65966702       3.79576469       4.60667769      -0.00016120       0.00022694      -0.00027937
S        4.46523770       1.24230196       7.73401874       0.00015457      -0.00021806       0.00026637
