9
Lattice="5.929482176300627 1.7648788925292775e-07 3.423388032852449 1.9764942122854985 5.5903695031241005 3.423388055154057 -6.990654021733124e-08 -2.211767943328257e-08 6.846776186786596" Properties=species:S:1:pos:R:3:forces:R:3 energy=-25.096067428588867 free_energy=-25.096067428588867 stress="-0.0002758688642643392 5.17532594557224e-09 -1.303081287318264e-08 5.17532594557224e-09 -0.0002758376067504287 -1.1540609357041376e-08 -1.303081287318264e-08 -1.1540609357041376e-08 -0.000275821570539847" pbc="T T T"
Ga       1.97649412       1.39759202       3.42338758       0.00000044       0.00000039      -0.00000185
Ga       5.92948271       4.19277783      10.27016387       0.00000126       0.00000076      -0.00000218
C        0.00000345       0.00000193      -0.00000602       0.00001949       0.00000894      -0.00002698
Cl       1.76377842       1.24717916       6.84677605       0.00335798       0.00237566       0.00000163
Cl       6.14219477       4.34318811       6.84677633      -0.00337324      -0.00238504       0.00000014
Cl       5.04759165       1.24718184       4.95086757      -0.00168758       0.00238567       0.00292064
Cl       2.85838286       4.34319010       8.74268817       0.00167775      -0.00237670      -0.00290685
Cl       2.85838423       4.34318825       4.95086760       0.00168513      -0.00238501       0.00292036
Cl       5.04759311       1.24717949       8.74268723      -0.00168129       0.00237536      -0.00290498
