9
Lattice="6.172174274918969 7.60330523474952e-08 3.5635064190578243 2.057391426697906 5.819181787332719 3.5635065402316806 -9.472247349468393e-08 8.142812659221322e-08 7.127013002179824" Properties=species:S:1:pos:R:3:forces:R:3 energy=-25.886356353759766 free_energy=-25.886356353759766 stress="-0.0001967265416169539 9.567491687789698e-09 -3.4061746756464117e-09 9.567491687789698e-09 -0.00019670800247695297 -2.486483907659931e-09 -3.4061746756464117e-09 -2.486483907659931e-09 -0.00019672507187351584" pbc="T T T"
Ga       2.05739134       1.45479526       3.56350655       0.00000002      -0.00000012       0.00000004
Ga       6.17217416       4.36438644      10.69051951      -0.00000011      -0.00000013      -0.00000009
Co       0.00000007      -0.00000006      -0.00000021      -0.00000092      -0.00000011      -0.00000026
Br       2.00122913       1.41508284       7.12701302       0.00182331       0.00128992       0.00000004
Br       6.22833658       4.40409915       7.12701302      -0.00182301      -0.00128901       0.00000016
Br       5.17155960       1.41508284       5.29662172      -0.00091153       0.00128897       0.00157858
Br       3.05800593       4.40409929       8.95740430       0.00091145      -0.00128902      -0.00157885
Br       3.05800605       4.40409929       5.29662171       0.00091215      -0.00128957       0.00157917
Br       5.17155960       1.41508276       8.95740434      -0.00091140       0.00128908      -0.00157854
