9
Lattice="6.548793193510491 6.584598855410402e-08 3.780947553062058 2.182931132047398 6.174261497216756 3.78094754359862 9.263998231576727e-09 -5.039634315622297e-09 7.561895090078371" Properties=species:S:1:pos:R:3:forces:R:3 energy=-23.18757438659668 free_energy=-23.18757438659668 stress="0.00011989725317107514 -6.4513407949107204e-09 -4.811006704130705e-09 -6.4513407949107204e-09 0.00011989971972070634 4.297903810623893e-09 -4.811006704130705e-09 4.297903810623893e-09 0.00011990399070782587" pbc="T T T"
Ga       2.18293107       1.54356540       3.78094763       0.00000008      -0.00000012      -0.00000009
Ga       6.54879324       4.63069618      11.34284258      -0.00000007      -0.00000006       0.00000034
Co       0.00000003      -0.00000018       0.00000046      -0.00000019       0.00000015      -0.00000042
I        2.16655000       1.53198234       7.56189517      -0.00251622      -0.00177926       0.00000023
I        6.56517437       4.64227936       7.56189507       0.00251618       0.00177922      -0.00000007
I        5.46551818       1.53198240       5.65723494       0.00125792      -0.00177914      -0.00217906
I        3.26620626       4.64227909       9.46655498      -0.00125802       0.00177942       0.00217898
I        3.26620618       4.64227917       5.65723501      -0.00125796       0.00177903      -0.00217895
I        5.46551804       1.53198250       9.46655496       0.00125822      -0.00177924       0.00217906
