9
Lattice="6.231888783217015 1.240355803505831e-07 3.5979827412978227 2.0772962920605456 5.875481102305001 3.5979828901738498 -6.366591754712578e-08 1.3731656833035474e-07 7.195965592868266" Properties=species:S:1:pos:R:3:forces:R:3 energy=-22.951622009277344 free_energy=-22.951622009277344 stress="3.0135721317492425e-05 2.0216853968690884e-08 7.858048434172815e-09 2.0216853968690884e-08 3.0202907510101795e-05 1.0387384008492262e-10 7.858048434172815e-09 1.0387384008492262e-10 3.014344474649988e-05" pbc="T T T"
Ga       2.07729575       1.46887064       3.59798342      -0.00000022       0.00000026       0.00000006
Ga       6.23188886       4.40661098      10.79394847       0.00000022      -0.00000008      -0.00000001
C       -0.00000013      -0.00000137       0.00000224      -0.00000117      -0.00000121       0.00000396
Br       1.91307070       1.35274530       7.19596511       0.00122651       0.00086850       0.00000007
Br       6.39611515       4.52273653       7.19596520      -0.00122693      -0.00086898      -0.00000154
Br       5.27535393       1.35274505       5.25474984      -0.00061241       0.00086972       0.00106201
Br       3.03383167       4.52273607       9.13718066       0.00061272      -0.00086778      -0.00106341
Br       3.03383093       4.52273661       5.25474925       0.00061533      -0.00086856       0.00106317
Br       5.27535323       1.35274583       9.13718030      -0.00061397       0.00086790      -0.00106409
