9
Lattice="5.327294252368192 -2.2012793237234514e-07 3.0757148231527918 1.7757647447366536 5.022620700811897 3.0757144741691747 1.9599162237945263e-07 -2.888291537886427e-07 6.151429306838351" Properties=species:S:1:pos:R:3:forces:R:3 energy=-38.59158706665039 free_energy=-38.59158706665039 stress="0.0002121377910953015 -2.4369965601067634e-08 -1.1846627678835375e-08 -2.4369965601067634e-08 0.00021212692081462592 1.6058468332857956e-08 -1.1846627678835375e-08 1.6058468332857956e-08 0.00021224073134362698" pbc="T T T"
Ga       1.77576548       1.25565621       3.07571327       0.00000251       0.00000283      -0.00000532
Ga       5.32729384       3.76696306       9.22714340      -0.00000018      -0.00000758      -0.00000221
Cr       0.00000130      -0.00000028       0.00000070      -0.00001322       0.00000060      -0.00000195
S        1.79127403       1.26662143       6.15142846      -0.00641128      -0.00453207       0.00000065
S        5.31178533       3.75599847       6.15142852       0.00642172       0.00454044      -0.00000237
S        4.43165727       1.26662158       4.62700468       0.00320998      -0.00453994      -0.00556025
S        2.67140135       3.75599841       7.67585488      -0.00320935       0.00453374       0.00555649
S        2.67140145       3.75599871       4.62700391      -0.00320743       0.00453556      -0.00555503
S        4.43165694       1.26662290       7.67585657       0.00320740      -0.00453416       0.00556931
