9
Lattice="4.615656934340348 -4.138230765977303e-09 2.6648506094877216 1.5385523170641873 4.351682991617579 2.664850593000398 2.0416953343410452e-08 -5.755803992392248e-09 5.329701183612236" Properties=species:S:1:pos:R:3:forces:R:3 energy=-38.5147705078125 free_energy=-38.5147705078125 stress="0.00015593277930747718 2.7671815949759093e-09 -1.563894258538312e-08 2.7671815949759093e-09 0.0001559092925162986 1.6903797472878068e-08 -1.563894258538312e-08 1.6903797472878068e-08 0.00015583967615384609" pbc="T T T"
Ga       1.53855240       1.08792061       2.66485114      -0.00000041       0.00000133       0.00000377
Ga       4.61565710       3.26376184       7.99455122       0.00000181      -0.00000452      -0.00000412
Co      -0.00000016      -0.00000011       0.00000014       0.00000763      -0.00000136      -0.00000689
F        1.50179942       1.06193254       5.32970107       0.00236135       0.00167068      -0.00000234
F        4.65240980       3.28975069       5.32970143      -0.00236628      -0.00167215       0.00000198
F        3.86475703       1.06193292       3.96544654      -0.00118530       0.00167426       0.00204876
F        2.28945227       3.28975020       6.69395562       0.00118047      -0.00166792      -0.00204467
F        2.28945157       3.28975063       3.96544730       0.00117973      -0.00167191       0.00205112
F        3.86475762       1.06193263       6.69395503      -0.00117887       0.00167177      -0.00204783
