9
Lattice="4.442109076667754 5.81070895261395e-08 2.5646528824450554 1.480703081876157 4.188060546084919 2.5646528797840427 7.15188612351789e-08 4.731240756288566e-08 5.129305641015821" Properties=species:S:1:pos:R:3:forces:R:3 energy=-44.07164764404297 free_energy=-44.07164764404297 stress="-0.00022257491946220398 -4.943301767923458e-09 -1.8148134017792472e-07 -4.943301767923458e-09 -0.0002224369382020086 4.6412502285875235e-08 -1.8148134017792472e-07 4.6412502285875235e-08 -0.00022273987997323275" pbc="T T T"
Ga       1.48070318       1.04701473       2.56465348       0.00000397      -0.00000393       0.00000914
Ga       4.44210818       3.14104344       7.69395762      -0.00001229      -0.00003247      -0.00001621
Fe      -0.00000029       0.00000024       0.00000026       0.00004173      -0.00000445      -0.00004470
O        1.51979394       1.07465670       5.12930542      -0.00339669      -0.00239965      -0.00000202
O        4.40301839       3.11340497       5.12930618       0.00336707       0.00238824       0.00000441
O        3.68221273       1.07465655       3.88083252       0.00168324      -0.00236735      -0.00291133
O        2.24059992       3.11340434       6.37777868      -0.00169826       0.00241229       0.00295204
O        2.24059995       3.11340410       3.88083226      -0.00168264       0.00238681      -0.00292361
O        3.68221298       1.07465765       6.37777949       0.00169373      -0.00237945       0.00293255
