9
Lattice="5.743082742103141 -2.7690823516286092e-08 3.315770455596015 1.9143608878232437 5.414630406306625 3.3157704557761103 1.907711277682944e-08 1.3710130649319266e-08 6.631540878149464" Properties=species:S:1:pos:R:3:forces:R:3 energy=-35.99131393432617 free_energy=-35.99131393432617 stress="0.00012640179193113 -1.2555222417276468e-09 -1.918351344443181e-08 -1.2555222417276468e-09 0.00012639111082535237 1.5537789721520312e-08 -1.918351344443181e-08 1.5537789721520312e-08 0.0001264062593691051" pbc="T T T"
Ga       1.91436094       1.35365736       3.31577058       0.00000018       0.00000031       0.00000015
Ga       5.74308269       4.06097302       9.94731138      -0.00000014      -0.00000016      -0.00000008
Fe       0.00000018       0.00000010      -0.00000012      -0.00000425      -0.00000082       0.00000197
Se       1.85065635       1.30861173       6.63154080      -0.00059536      -0.00042188      -0.00000027
Se       5.80678707       4.10601851       6.63154096       0.00059834       0.00042367      -0.00000028
Se       4.81775441       1.30861187       4.91848634       0.00029941      -0.00042385      -0.00051841
Se       2.83968931       4.10601850       8.34459564      -0.00029820       0.00042218       0.00051686
Se       2.83968913       4.10601845       4.91848606      -0.00029790       0.00042209      -0.00051641
Se       4.81775449       1.30861202       8.34459555       0.00029819      -0.00042182       0.00051644
