9
Lattice="6.168193079240023 1.8394290137527965e-07 3.561207884570154 2.0560644681132967 5.815428586838244 3.5612079972510946 -4.6215862745223145e-08 1.0532579816221551e-07 7.122415849188538" Properties=species:S:1:pos:R:3:forces:R:3 energy=-33.611785888671875 free_energy=-33.611785888671875 stress="-9.556789154885337e-05 -5.551226678335297e-08 -1.9534262207798747e-08 -5.551226678335297e-08 -9.55579016590491e-05 2.7039879668677713e-08 -1.9534262207798747e-08 2.7039879668677713e-08 -9.551233961246908e-05" pbc="T T T"
Ga       2.05606423       1.45385756       3.56120800      -0.00000029       0.00000023       0.00000008
Ga       6.16819317       4.36157179      10.68362396       0.00000033       0.00000023       0.00000017
Fe       0.00000048      -0.00000057      -0.00000029      -0.00000805       0.00001361       0.00000420
Te       1.94880670       1.37801429       7.12241584       0.00552333       0.00390550       0.00000015
Te       6.27545122       4.43741446       7.12241597      -0.00552377      -0.00390678       0.00000028
Te       5.19378961       1.37801476       5.24892415      -0.00275595       0.00389758       0.00477346
Te       3.03046733       4.43741473       8.99590793       0.00276113      -0.00390552      -0.00478331
Te       3.03046749       4.43741410       5.24892357       0.00276150      -0.00390628       0.00478353
Te       5.19378978       1.37801439       8.99590773      -0.00275830       0.00390140      -0.00477854
