9
Lattice="5.476310412803016 -3.4960078918242566e-08 3.1617490103470796 1.8254367056998544 5.16311525082211 3.161749123981965 -1.5530730831937783e-07 2.935484738973069e-08 6.323498289694341" Properties=species:S:1:pos:R:3:forces:R:3 energy=-38.001197814941406 free_energy=-38.001197814941406 stress="4.663704748963937e-05 4.907522210828574e-08 -1.3096790318911644e-08 4.907522210828574e-08 4.665836240747012e-05 3.953556415581261e-08 -1.3096790318911644e-08 3.953556415581261e-08 4.657803583540954e-05" pbc="T T T"
Ga       1.82543705       1.29077878       3.16174923       0.00000095       0.00000017       0.00000055
Ga       5.47631038       3.87233670       9.48524642      -0.00000008       0.00000052      -0.00000118
Fe      -0.00000004       0.00000001      -0.00000049       0.00000489       0.00000488       0.00001334
S        1.77034259       1.25182108       6.32349781       0.00001752       0.00001138       0.00000003
S        5.53140441       3.91129464       6.32349832      -0.00002569      -0.00001633       0.00000173
S        4.59113898       1.25182118       4.69491014      -0.00000754       0.00001287       0.00001591
S        2.71060766       3.91129427       7.95208686       0.00001523      -0.00001967      -0.00002307
S        2.71060785       3.91129368       4.69491016       0.00000858      -0.00001362       0.00001711
S        4.59113883       1.25182052       7.95208688      -0.00001416       0.00002006      -0.00002474
