9
Lattice="5.7603829634456485 -1.6667734440312553e-08 3.325758730141179 1.9201276254175783 5.4309412638759476 3.3257587532637465 -2.596633143160149e-08 9.958252479668675e-09 6.651517505257402" Properties=species:S:1:pos:R:3:forces:R:3 energy=-30.67040252685547 free_energy=-30.67040252685547 stress="-2.970046261907555e-05 -1.0741961098403863e-08 -1.902706658896136e-09 -1.0741961098403863e-08 -2.9711098250118084e-05 -2.730784265381203e-09 -1.902706658896136e-09 -2.730784265381203e-09 -2.9728103982051834e-05" pbc="T T T"
Ga       1.92012762       1.35773537       3.32575883       0.00000034       0.00000044       0.00000049
Ga       5.76038281       4.07320591       9.97727612       0.00000014       0.00000001       0.00000019
Ge      -0.00000002      -0.00000005       0.00000004      -0.00000008       0.00000024       0.00000067
Se       2.26750854       1.60337076       6.65151746      -0.00018102      -0.00012745       0.00000102
Se       5.41300168       3.82757040       6.65151769       0.00018173       0.00012925       0.00000071
Se       4.62662832       1.60337132       5.28947920       0.00009198      -0.00012970      -0.00015885
Se       3.05388240       3.82757053       8.01355613      -0.00009002       0.00012612       0.00015518
Se       3.05388226       3.82757000       5.28947854      -0.00009258       0.00012888      -0.00015745
Se       4.62662867       1.60337079       8.01355590       0.00008954      -0.00012802       0.00015807
