9
Lattice="5.955700450942281 -7.800781714856091e-08 3.438525309360983 1.9852334510255265 5.615087973891936 3.4385252384775544 -4.213969733082952e-08 -1.1661141321517104e-07 6.877050691710072" Properties=species:S:1:pos:R:3:forces:R:3 energy=-28.389387130737305 free_energy=-28.389387130737305 stress="-0.00011767179967137054 -1.0167539699068584e-08 -4.2587178228359335e-08 -1.0167539699068584e-08 -0.00011766745592467487 4.214440796346253e-09 -4.2587178228359335e-08 4.214440796346253e-09 -0.00011759020708268508" pbc="T T T"
Ga       1.98523337       1.40377203       3.43852504      -0.00000058      -0.00000019      -0.00000032
Ga       5.95570042       4.21131575      10.31557561       0.00000018      -0.00000093      -0.00000066
Ge       0.00000013      -0.00000021       0.00000019       0.00000201       0.00000053      -0.00000485
Cl       1.86022595       1.31537835       6.87705078      -0.00013337      -0.00009419       0.00000010
Cl       6.08070781       4.29970960       6.87705078       0.00013170       0.00009234      -0.00000117
Cl       5.02558744       1.31537800       5.04952799       0.00006722      -0.00009288      -0.00011411
Cl       2.91534637       4.29970976       8.70457308      -0.00006841       0.00009681       0.00012067
Cl       2.91534645       4.29970962       5.04952820      -0.00006527       0.00009270      -0.00011468
Cl       5.02558757       1.31537821       8.70457324       0.00006682      -0.00009404       0.00011504
