9
Lattice="6.307649327843573 3.467541552219043e-09 3.6417229575538035 2.1025497816502643 5.9469087378749235 3.6417229533394058 -2.958412043800625e-08 -2.6080690641858655e-08 7.283445966348766" Properties=species:S:1:pos:R:3:forces:R:3 energy=-28.207204818725586 free_energy=-28.207204818725586 stress="0.00010779577860375866 5.3529931598461644e-09 9.987042304260285e-09 5.3529931598461644e-09 0.00010780536103993654 -6.7939769365921165e-09 9.987042304260285e-09 -6.7939769365921165e-09 0.00010779617150546983" pbc="T T T"
Ga       2.10254981       1.48672725       3.64172298      -0.00000009       0.00000018      -0.00000021
Ga       6.30764930       4.46018147      10.92516893      -0.00000022      -0.00000013       0.00000012
Ge      -0.00000009      -0.00000011      -0.00000021       0.00000046      -0.00000067       0.00000016
Te       2.31603406       1.63768347       7.28344587      -0.00163250      -0.00115404      -0.00000007
Te       6.09416509       4.30922527       7.28344582       0.00163154       0.00115414      -0.00000027
Te       5.14963232       1.63768349       5.64746758       0.00081633      -0.00115412      -0.00141351
Te       3.26056678       4.30922504       8.91942457      -0.00081582       0.00115404       0.00141317
Te       3.26056700       4.30922528       5.64746754      -0.00081586       0.00115432      -0.00141278
Te       5.14963209       1.63768368       8.91942445       0.00081605      -0.00115375       0.00141326
