9
Lattice="4.963872354292799 -1.0668719253827298e-07 2.865893105048647 1.6546242594978344 4.679982309937274 2.86589268591683 4.2569624782485937e-07 -2.1231682040404897e-07 5.7317854727697615" Properties=species:S:1:pos:R:3:forces:R:3 energy=-40.533111572265625 free_energy=-40.533111572265625 stress="3.6687722513306653e-06 -1.3939035703458558e-08 -1.1389936105388188e-08 -1.3939035703458558e-08 3.561255425665877e-06 3.622327682251125e-08 -1.1389936105388188e-08 3.622327682251125e-08 3.6120623008173425e-06" pbc="T T T"
Ga       1.65462420       1.16999553       2.86589257       0.00000014       0.00000001       0.00000007
Ga       4.96387309       3.50998668       8.59767856      -0.00000020       0.00000010       0.00000016
Ge      -0.00000018      -0.00000010       0.00000044      -0.00000116      -0.00000409      -0.00001735
F        1.50034626       1.06090438       5.73178555      -0.00635090      -0.00448933      -0.00000055
F        5.11815093       3.61907751       5.73178594       0.00635430       0.00449155       0.00000048
F        4.21369932       1.06090433       4.16523066       0.00317389      -0.00448777      -0.00549626
F        2.40479778       3.61907741       7.29834055      -0.00317906       0.00449440       0.00550616
F        2.40479713       3.61907760       4.16523037      -0.00317436       0.00448653      -0.00549528
F        4.21369983       1.06090443       7.29834092       0.00317739      -0.00449140       0.00550225
