9
Lattice="6.74552249031345 6.077758446526546e-08 3.8945291771885557 2.24850752363175 6.359739742321448 3.8945292299139807 -4.701675445691266e-08 3.1329309154381295e-08 7.78905843581251" Properties=species:S:1:pos:R:3:forces:R:3 energy=-21.35888671875 free_energy=-21.35888671875 stress="-5.529137524717953e-06 1.5524167507052766e-09 5.5502269447060826e-09 1.5524167507052766e-09 -5.5346431508951355e-06 1.8995991446502103e-09 5.5502269447060826e-09 1.8995991446502103e-09 -5.5356927077809814e-06" pbc="T T T"
Ga       2.24850743       1.58993493       3.89452918      -0.00000001      -0.00000015       0.00000026
Ga       6.74552249       4.76980486      11.68358766      -0.00000012      -0.00000011       0.00000008
Ge      -0.00000011       0.00000003       0.00000021      -0.00000044       0.00000000       0.00000020
I        2.34101377       1.65534693       7.78905846      -0.00036831      -0.00026059      -0.00000050
I        6.65301609       4.70439292       7.78905845       0.00036931       0.00026108      -0.00000019
I        5.57501571       1.65534675       5.92190669       0.00018413      -0.00026083      -0.00031920
I        3.41901441       4.70439294       9.65620996      -0.00018465       0.00026114       0.00031972
I        3.41901441       4.70439301       5.92190677      -0.00018470       0.00026090      -0.00031960
I        5.57501568       1.65534693       9.65620996       0.00018479      -0.00026143       0.00031920
