9
Lattice="6.27608695686382 -4.248239401581351e-08 3.623500549314844 2.092028953887178 5.917151522105261 3.6235005349065177 2.2959497533324194e-08 -1.4117478170274733e-09 7.247001058862713" Properties=species:S:1:pos:R:3:forces:R:3 energy=-24.7391357421875 free_energy=-24.7391357421875 stress="-2.8414599000825547e-05 6.142169550749088e-10 -4.255882313231041e-09 6.142169550749088e-10 -2.8396283596521243e-05 5.947070391698617e-09 -4.255882313231041e-09 5.947070391698617e-09 -2.8411699531716295e-05" pbc="T T T"
Ga       2.09202892       1.47928790       3.62350039      -0.00000001      -0.00000003      -0.00000019
Ga       6.27608701       4.43786375      10.87050141      -0.00000003       0.00000007      -0.00000020
Ge       0.00000007      -0.00000003      -0.00000014       0.00000103       0.00000038       0.00000098
Br       2.01119990       1.42213293       7.24700107       0.00036640       0.00025950       0.00000019
Br       6.35691612       4.49501854       7.24700111      -0.00036833      -0.00026085       0.00000031
Br       5.27048696       1.42213296       5.36525067      -0.00018301       0.00025969       0.00031851
Br       3.09762886       4.49501856       9.12875174       0.00018407      -0.00026017      -0.00031909
Br       3.09762885       4.49501853       5.36525066       0.00018339      -0.00025916       0.00031833
Br       5.27048707       1.42213278       9.12875172      -0.00018352       0.00026064      -0.00031908
