9
Lattice="4.406705055664941 3.829720795999531e-08 2.5442122828372145 1.468901696867261 4.154681658635413 2.544212325205508 -5.145702570433548e-08 1.550472602024451e-08 5.0884246548006145" Properties=species:S:1:pos:R:3:forces:R:3 energy=-42.88574981689453 free_energy=-42.88574981689453 stress="0.0002281887864228338 -1.693589446460919e-08 -5.0718909960778547e-08 -1.693589446460919e-08 0.00022799339785706252 -8.849075250338956e-09 -5.0718909960778547e-08 -8.849075250338956e-09 0.00022818126308266073" pbc="T T T"
Ga       1.46890184       1.03867242       2.54421371       0.00000102       0.00003039       0.00002246
Ga       4.40670600       3.11600918       7.63263847       0.00001764      -0.00003312       0.00002474
Ge       0.00000012       0.00000001       0.00000013      -0.00000054       0.00000022       0.00000021
O        1.51979266       1.07465629       5.08842420       0.00117826       0.00084549      -0.00000794
O        4.35581400       3.08002546       5.08842419      -0.00118184      -0.00084281      -0.00000775
O        3.64680892       1.07465702       3.86039076      -0.00059038       0.00085366       0.00101388
O        2.22879681       3.08002556       6.31645706       0.00057912      -0.00084513      -0.00103414
O        2.22879750       3.08002465       3.86039085       0.00058407      -0.00085396       0.00101578
O        3.64680901       1.07465627       6.31645770      -0.00058728       0.00084531      -0.00102782
