9
Lattice="4.6028826795756945 1.519197442911654e-08 2.657475376076573 1.534294186334203 4.339639428858111 2.6574754704978707 3.0307785130411757e-07 3.2995042117886176e-07 5.314950227206902" Properties=species:S:1:pos:R:3:forces:R:3 energy=-51.277809143066406 free_energy=-51.277809143066406 stress="9.075984416995198e-05 3.841976763396815e-07 -7.199510605460091e-07 3.841976763396815e-07 9.044583566719666e-05 -5.40479732080712e-07 -7.199510605460091e-07 -5.40479732080712e-07 9.176015009870753e-05" pbc="T T T"
Ga       1.53430278       1.08491380       2.65746940       0.00014998       0.00007588      -0.00011139
Ga       4.60288371       3.25472818       7.97243099       0.00001092      -0.00003499       0.00010049
Hf       0.00000007       0.00000008       0.00000023       0.00000297      -0.00000207       0.00000049
O        1.65253285       1.16851967       5.31495177      -0.00162369      -0.00111541       0.00004132
O        4.48464277       3.17112119       5.31494708       0.00160104       0.00113878      -0.00005270
O        3.77661563       1.16851857       4.08861112       0.00078496      -0.00111508      -0.00141633
O        2.36055949       3.17111901       6.54129061      -0.00084564       0.00108147       0.00141358
O        2.36056190       3.17112060       4.08861024      -0.00079054       0.00111699      -0.00141650
O        3.77660950       1.16851805       6.54129265       0.00070956      -0.00114536       0.00144035
