9
Lattice="6.441468743618632 -1.0499284746520502e-08 3.7189836972514594 2.147156252052227 6.073074865510021 3.718983672867319 -7.256559860263613e-09 -3.4995506853551474e-08 7.4379674070716035" Properties=species:S:1:pos:R:3:forces:R:3 energy=-35.59404373168945 free_energy=-35.59404373168945 stress="3.946439755964093e-05 1.6279019243725656e-09 1.4935137571114865e-08 1.6279019243725656e-09 3.9440146792912856e-05 -3.2758156187639997e-09 1.4935137571114865e-08 -3.2758156187639997e-09 3.9456095692003146e-05" pbc="T T T"
Ga       2.14715624       1.51826870       3.71898368      -0.00000020      -0.00000056      -0.00000032
Ga       6.44146862       4.55480622      11.15695114       0.00000014       0.00000068      -0.00000028
Hf      -0.00000011      -0.00000030      -0.00000000      -0.00000041       0.00000342       0.00000102
Te       2.31298471       1.63552722       7.43796751       0.00012815       0.00008902      -0.00000014
Te       6.27564046       4.43754779       7.43796747      -0.00012949      -0.00009075       0.00000044
Te       5.28497654       1.63552694       5.72208728      -0.00006387       0.00009029       0.00011072
Te       3.30364856       4.43754768       9.15384755       0.00006502      -0.00009128      -0.00011134
Te       3.30364852       4.43754790       5.72208717       0.00006474      -0.00009134       0.00011083
Te       5.28497640       1.63552714       9.15384731      -0.00006402       0.00009051      -0.00011097
