9
Lattice="6.015934648379732 -8.054638808161683e-07 3.4733009489826507 2.005310910926054 5.671876722923755 3.47330073963869 -1.9449581500055657e-07 -3.9392218157917105e-07 6.946602234841788" Properties=species:S:1:pos:R:3:forces:R:3 energy=-37.29310989379883 free_energy=-37.29310989379883 stress="9.044098987942562e-05 7.874087515347128e-08 1.7168359178754145e-08 7.874087515347128e-08 9.03736799955368e-05 1.718196784850079e-08 1.7168359178754145e-08 1.718196784850079e-08 9.042707097250968e-05" pbc="T T T"
Ga       2.00531116       1.41796708       3.47330126      -0.00000129      -0.00000676      -0.00000199
Ga       6.01593602       4.25390666      10.41990160       0.00000791       0.00000382      -0.00000440
Hf       0.00000004       0.00000033      -0.00000090      -0.00000107      -0.00000295       0.00000636
Se       2.14738904       1.51843393       6.94660419       0.00265257       0.00187829      -0.00000079
Se       5.87385847       4.15344216       6.94660427      -0.00265475      -0.00188173       0.00000117
Se       4.94223792       1.51842795       5.33299312      -0.00133494       0.00188030       0.00230376
Se       3.07900397       4.15344432       8.56020781       0.00132605      -0.00187432      -0.00230391
Se       3.07900548       4.15344877       5.33299530       0.00133242      -0.00187540       0.00230403
Se       4.94223937       1.51843085       8.56020905      -0.00132699       0.00187878      -0.00230421
