9
Lattice="5.703119354587475 3.009888101172337e-08 3.2926976842043105 1.9010398301267268 5.376952754721337 3.29269765495558 -5.286850604885735e-08 -7.320587812205175e-08 6.585395459979575" Properties=species:S:1:pos:R:3:forces:R:3 energy=-40.04593276977539 free_energy=-40.04593276977539 stress="-0.00012514684931375086 3.122617897588498e-08 -1.7966770293753598e-09 3.122617897588498e-08 -0.00012521774624474347 1.4114318602764797e-08 -1.7966770293753598e-09 1.4114318602764797e-08 -0.0001252763468073681" pbc="T T T"
Ga       1.90103950       1.34423846       3.29269720       0.00000055       0.00000136      -0.00000186
Ga       5.70311873       4.03271427       9.87809378      -0.00000265      -0.00000069       0.00000182
Hf       0.00000022       0.00000014       0.00000029      -0.00000125      -0.00000176      -0.00000023
S        2.02318386       1.43060723       6.58539584      -0.00034437      -0.00024180       0.00000106
S        5.58097485       3.94634571       6.58539505       0.00034402       0.00024474      -0.00000200
S        4.69152748       1.43060726       5.04482619       0.00017089      -0.00024089      -0.00029762
S        2.91263237       3.94634492       8.12596481      -0.00017057       0.00024046       0.00029925
S        2.91263212       3.94634589       5.04482612      -0.00016949       0.00024205      -0.00029698
S        4.69152730       1.43060694       8.12596383       0.00017276      -0.00024347       0.00029652
