9
Lattice="5.492314908846117 3.290204482319046e-08 3.1709894565189156 1.830771634109001 5.178204391748282 3.170989514011512 -6.197953346325165e-08 2.6587631439137446e-08 6.341979020389523" Properties=species:S:1:pos:R:3:forces:R:3 energy=-37.79109573364258 free_energy=-37.79109573364258 stress="0.00019449583487585187 1.9532460093785176e-09 5.238252942518784e-09 1.9532460093785176e-09 0.00019444667850621045 -1.773061697463163e-08 5.238252942518784e-09 -1.773061697463163e-08 0.00019447895465418696" pbc="T T T"
Ga       1.83077201       1.29455100       3.17098950       0.00000134       0.00000044      -0.00000061
Ga       5.49231504       3.88365356       9.51296847      -0.00000032       0.00000193      -0.00000223
Ir       0.00000006       0.00000049      -0.00000000       0.00000162       0.00000149      -0.00000018
S        1.86064977       1.31567815       6.34197898      -0.00033110      -0.00023502      -0.00000008
S        5.46243668       3.86252647       6.34197903       0.00033015       0.00023419       0.00000103
S        4.56199003       1.31567791       4.78235947       0.00016385      -0.00023353      -0.00028437
S        2.76109641       3.86252654       7.90159837      -0.00016350       0.00023192       0.00028622
S        2.76109644       3.86252593       4.78235961      -0.00016555       0.00023234      -0.00028694
S        4.56198957       1.31567792       7.90159864       0.00016409      -0.00023371       0.00028729
