9
Lattice="5.930798911502764 -5.108060472159983e-08 3.4241483438146267 1.9769329144031598 5.5916106180923215 3.4241483575644667 -6.261614733351775e-09 1.2412456692713391e-08 6.848296698474691" Properties=species:S:1:pos:R:3:forces:R:3 energy=-31.162639617919922 free_energy=-31.162639617919922 stress="2.5312823709100485e-05 1.647992142750354e-08 -2.9268982792984843e-09 1.647992142750354e-08 2.5323415684397332e-05 6.8041448031408436e-09 -2.9268982792984843e-09 6.8041448031408436e-09 2.530173514969647e-05" pbc="T T T"
Ga       1.97693296       1.39790289       3.42414848      -0.00000013       0.00000017       0.00000026
Ga       5.93079876       4.19370778      10.27244495      -0.00000033       0.00000015      -0.00000026
Ir      -0.00000004       0.00000000      -0.00000006       0.00000085       0.00000102       0.00000300
Cl       1.90047851       1.34384126       6.84829654       0.00261822       0.00185075      -0.00000019
Cl       6.00725334       4.24776939       6.84829657      -0.00261864      -0.00185174       0.00000026
Cl       4.98055967       1.34384137       5.07001105      -0.00130996       0.00185153       0.00226784
Cl       2.92717211       4.24776937       8.62658244       0.00131029      -0.00185311      -0.00226864
Cl       2.92717228       4.24776921       5.07001120       0.00130942      -0.00185218       0.00226742
Cl       4.98055963       1.34384115       8.62658245      -0.00130975       0.00185314      -0.00226960
