9
Lattice="4.779426661031631 -1.0042839633174474e-07 2.7594031623074957 1.5931420857439598 4.506086631287032 2.759403231442512 -1.613369491185094e-07 -2.940972006599463e-08 5.518806604058757" Properties=species:S:1:pos:R:3:forces:R:3 energy=-47.0147705078125 free_energy=-47.0147705078125 stress="-0.00027786364080384374 -4.8810846919877804e-08 -1.3514309671336378e-07 -4.8810846919877804e-08 -0.000278032646747306 -1.2711686281363654e-07 -1.3514309671336378e-07 -1.2711686281363654e-07 -0.00027785636484622955" pbc="T T T"
Ga       1.59313881       1.12651974       2.75940480      -0.00003274      -0.00002031       0.00001767
Ga       4.77942223       3.37956995       8.27820165      -0.00004143       0.00005002      -0.00007869
Ir       0.00000021      -0.00000005       0.00000027       0.00000279      -0.00001633      -0.00003394
O        1.52673894       1.07956399       5.51880629       0.00550550       0.00385967      -0.00000343
O        4.84583170       3.42652029       5.51881116      -0.00547633      -0.00387985       0.00003190
O        4.01605642       1.07956606       4.08159504      -0.00275578       0.00388129       0.00477070
O        2.35651488       3.42651953       6.95601958       0.00276849      -0.00386702      -0.00471646
O        2.35651025       3.42652275       4.08159909       0.00274456      -0.00386792       0.00477149
O        4.01606093       1.07956391       6.95601387      -0.00271490       0.00386038      -0.00475988
