9
Lattice="6.257401991875427 2.1070082234668012e-08 3.6127125850993873 2.0858007207843845 5.89953493069845 3.6127125210813187 3.750614302622594e-08 -5.1884937394230165e-08 7.22542510523623" Properties=species:S:1:pos:R:3:forces:R:3 energy=-28.403766632080078 free_energy=-28.403766632080078 stress="0.00026631573564372957 6.728228640895395e-09 1.939415295026947e-09 6.728228640895395e-09 0.0002663061604835093 2.7268645119704615e-09 1.939415295026947e-09 2.7268645119704615e-09 0.000266306713456288" pbc="T T T"
Ga       2.08580061       1.47488369       3.61271258      -0.00000019      -0.00000033       0.00000001
Ga       6.25740200       4.42465123      10.83813762      -0.00000012      -0.00000015       0.00000004
Ir       0.00000010       0.00000010       0.00000009       0.00000151      -0.00000142      -0.00000015
Br       2.02761541       1.43374033       7.22542506       0.00378641       0.00267792      -0.00000013
Br       6.31558739       4.46579445       7.22542498      -0.00378631      -0.00267738       0.00000057
Br       5.24359448       1.43374043       5.36867870      -0.00189412       0.00267832       0.00327992
Br       3.09960831       4.46579442       9.08217157       0.00189335      -0.00267782      -0.00327947
Br       3.09960833       4.46579453       5.36867863       0.00189305      -0.00267795       0.00327926
Br       5.24359446       1.43374038       9.08217153      -0.00189359       0.00267880      -0.00328008
