9
Lattice="6.592273786062913 4.7093579862531095e-08 3.8060510214441505 2.1974246472827317 6.215255220319982 3.806051008404929 4.292014562699007e-08 1.4379454186706486e-08 7.612101968548378" Properties=species:S:1:pos:R:3:forces:R:3 energy=-25.638900756835938 free_energy=-25.638900756835938 stress="0.00022687422460876405 1.1734896609993939e-08 1.5949672693693628e-09 1.1734896609993939e-08 0.00022685842122882605 -7.063710727450712e-10 1.5949672693693628e-09 -7.063710727450712e-10 0.00022685817384626716" pbc="T T T"
Ga       2.19742462       1.55381382       3.80605104      -0.00000004       0.00000020      -0.00000030
Ga       6.59227389       4.66144149      11.41815298      -0.00000026      -0.00000014       0.00000012
Ir       0.00000012       0.00000009      -0.00000026      -0.00000176      -0.00000105       0.00000572
I        2.18647393       1.54607055       7.61210191       0.00154106       0.00108965       0.00000044
I        6.60322433       4.66918459       7.61210204      -0.00153855      -0.00108820      -0.00000005
I        5.49903687       1.54607062       5.69959298      -0.00076982       0.00108854       0.00133344
I        3.29066155       4.66918492       9.52461119       0.00077114      -0.00109113      -0.00133638
I        3.29066163       4.66918460       5.69959297       0.00076982      -0.00108878       0.00133346
I        5.49903698       1.54607050       9.52461113      -0.00077162       0.00109089      -0.00133645
