9
Lattice="5.763159477965081 -8.617647732854095e-09 3.3273616588333734 1.921053141260108 5.433558923707027 3.3273616760443714 -2.2281301130335262e-08 5.323808631637515e-09 6.654723356259092" Properties=species:S:1:pos:R:3:forces:R:3 energy=-35.52426528930664 free_energy=-35.52426528930664 stress="8.500092008034699e-06 -2.172547119982937e-08 -3.1928401256209327e-08 -2.172547119982937e-08 8.505650839651935e-06 4.324682834067062e-08 -3.1928401256209327e-08 4.324682834067062e-08 8.513693501299713e-06" pbc="T T T"
Ga       1.92105312       1.35838985       3.32736162       0.00000006      -0.00000015      -0.00000004
Ga       5.76315959       4.07516914       9.98208511       0.00000089      -0.00000035       0.00000078
Ir       0.00000006      -0.00000005       0.00000050       0.00000214      -0.00000296      -0.00000352
Se       2.00556133       1.41814602       6.65472312       0.00034334       0.00024289      -0.00000051
Se       5.67865128       4.01541309       6.65472286      -0.00034407      -0.00024293      -0.00000111
Se       4.76037889       1.41814608       5.06422897      -0.00017128       0.00024246       0.00029714
Se       2.92383387       4.01541248       8.24521778       0.00016887      -0.00023936      -0.00029299
Se       2.92383368       4.01541288       5.06422892       0.00017193      -0.00024343       0.00029802
Se       4.76037863       1.41814617       8.24521785      -0.00017194       0.00024387      -0.00029773
