9
Lattice="6.7585489778088395 2.4531917086429698e-08 3.902050000525532 2.2528496469526678 6.372021191753465 3.9020500619195886 -5.675284701537277e-08 3.5061732062999896e-08 7.804100099349932" Properties=species:S:1:pos:R:3:forces:R:3 energy=-20.235376358032227 free_energy=-20.235376358032227 stress="-0.00010134051262866706 -1.1674371469538869e-09 -5.993922691516218e-09 -1.1674371469538869e-09 -0.0001013350993162021 5.4249329473066155e-09 -5.993922691516218e-09 5.4249329473066155e-09 -0.0001013393557514064" pbc="T T T"
Ga       2.25284964       1.59300526       3.90205003       0.00000031      -0.00000035       0.00000005
Ga       6.75854890       4.77901594      11.70615019      -0.00000025      -0.00000022       0.00000041
Mg       0.00000000      -0.00000005       0.00000010      -0.00000029       0.00000082       0.00000052
I        2.33880755       1.65378692       7.80410010      -0.00198968      -0.00140704      -0.00000029
I        6.67259086       4.71823442       7.80409987       0.00198919       0.00140730      -0.00000037
I        5.58914508       1.65378697       5.92751697       0.00099496      -0.00140689      -0.00172383
I        3.42225347       4.71823445       9.68068313      -0.00099473       0.00140686       0.00172307
I        3.42225366       4.71823437       5.92751688      -0.00099415       0.00140639      -0.00172254
I        5.58914511       1.65378677       9.68068332       0.00099462      -0.00140682       0.00172304
