9
Lattice="6.002288948604498 1.4573832840439915e-07 3.4654230245429747 2.000763141391982 5.659012289477972 3.465422987961531 -4.9237273968032865e-08 -7.961909026611016e-08 6.930846134367459" Properties=species:S:1:pos:R:3:forces:R:3 energy=-25.455341339111328 free_energy=-25.455341339111328 stress="7.611890760017559e-05 1.644053249094668e-08 1.3174769719626056e-08 1.644053249094668e-08 7.60873663239181e-05 6.297411925260121e-09 1.3174769719626056e-08 6.297411925260121e-09 7.612643821630627e-05" pbc="T T T"
Ga       2.00076246       1.41475480       3.46542513      -0.00000119       0.00000572       0.00000725
Ga       6.00228884       4.24425571      10.39626807      -0.00000064      -0.00001110      -0.00000466
Mg       0.00000015      -0.00000020      -0.00000076      -0.00000037       0.00000025       0.00000642
Cl       2.00373476       1.41685528       6.93084450      -0.00663011      -0.00468682      -0.00000093
Cl       5.99931687       4.24215764       6.93084656       0.00663123       0.00468929       0.00000104
Cl       5.00042246       1.41685550       5.20070781       0.00331692      -0.00468750      -0.00574425
Cl       3.00263045       4.24215797       8.66098482      -0.00331336       0.00468542       0.00573803
Cl       3.00262999       4.24215717       5.20070755      -0.00331637       0.00468877      -0.00574310
Cl       5.00042225       1.41685553       8.66098495       0.00331385      -0.00468396       0.00574048
