9
Lattice="6.3315511575144905 4.824941681427512e-08 3.655522775446534 2.1105171488860823 5.969443467619387 3.655522687300282 1.3499662692626988e-07 -1.2499647584451165e-08 7.3110453170720655" Properties=species:S:1:pos:R:3:forces:R:3 energy=-31.178510665893555 free_energy=-31.178510665893555 stress="-0.00019956206961069256 1.3693773226464145e-08 -7.029116400047997e-09 1.3693773226464145e-08 -0.0001995630154851824 1.255576309588946e-09 -7.029116400047997e-09 1.255576309588946e-09 -0.00019958200573455542" pbc="T T T"
Ga       2.11051731       1.49236074       3.65552293      -0.00000002       0.00000005      -0.00000005
Ga       6.33155128       4.47708254      10.96656778      -0.00000018      -0.00000004      -0.00000007
Mo      -0.00000014       0.00000000      -0.00000012       0.00000124       0.00000148      -0.00000012
Br       2.07049622       1.46406183       7.31104537       0.00372209       0.00263186       0.00000004
Br       6.37157224       4.50538182       7.31104542      -0.00372355      -0.00263308      -0.00000034
Br       5.29630332       1.46406177       5.44862490      -0.00186192       0.00263347       0.00322501
Br       3.14576529       4.50538179       9.17346593       0.00186209      -0.00263347      -0.00322501
Br       3.14576508       4.50538178       5.44862485       0.00186246      -0.00263373       0.00322536
Br       5.29630330       1.46406175       9.17346606      -0.00186221       0.00263345      -0.00322492
