9
Lattice="4.536798580691557 -4.2336857856355785e-07 2.619321557390671 1.5122658549164643 4.277333910887106 2.619321452587286 -5.844559495904102e-08 -1.6968473328374472e-07 5.238643216012115" Properties=species:S:1:pos:R:3:forces:R:3 energy=-53.427818298339844 free_energy=-53.427818298339844 stress="-6.950245733605698e-05 -6.004306101203838e-07 1.2335777910266188e-07 -6.004306101203838e-07 -6.890472286613658e-05 -1.0232773774987436e-06 1.2335777910266188e-07 -1.0232773774987436e-06 -6.772045890102163e-05" pbc="T T T"
Ga       1.51226574       1.06933338       2.61932169       0.00000804      -0.00000391       0.00000275
Ga       4.53679899       3.20799994       7.85796456       0.00001109      -0.00000641      -0.00000017
Mn      -0.00000410       0.00000202      -0.00000048       0.00054454      -0.00024311       0.00002949
O        1.51952706       1.07446800       5.23864289       0.00091863       0.00063705       0.00000627
O        4.52953934       3.20286708       5.23864314      -0.00117707      -0.00084853      -0.00000023
O        3.77703597       1.07446603       3.93526882      -0.00057757       0.00083470       0.00102925
O        2.27202909       3.20286562       6.54201466       0.00044382      -0.00062442      -0.00074148
O        2.27202926       3.20286522       3.93527124       0.00043201      -0.00059319       0.00071883
O        3.77703641       1.07446571       6.54201713      -0.00060356       0.00084805      -0.00104547
