9
Lattice="5.973983577741494 2.1442193079747e-08 3.449080995702314 1.9913278867440205 5.632325725435266 3.449080983091254 3.5979749603046435e-09 -1.2901141754563061e-08 6.898161985172669" Properties=species:S:1:pos:R:3:forces:R:3 energy=-34.690093994140625 free_energy=-34.690093994140625 stress="0.0003827840555459261 1.7343868563557407e-08 -1.0342668055329796e-08 1.7343868563557407e-08 0.00038274042890407145 2.4421758837434027e-08 -1.0342668055329796e-08 2.4421758837434027e-08 0.00038267846684902906" pbc="T T T"
Ga       1.99132763       1.40808165       3.44908094       0.00000019       0.00000019       0.00000010
Ga       5.97398360       4.22424395      10.34724276      -0.00000024      -0.00000014       0.00000004
Mo      -0.00000000       0.00000001      -0.00000011      -0.00000102      -0.00000136       0.00000506
Cl       1.92430770       1.36069082       6.89816182      -0.00084189      -0.00059429      -0.00000009
Cl       6.04100393       4.27163470       6.89816204       0.00084341       0.00059663       0.00000022
Cl       5.01182963       1.36069096       5.11558021       0.00042072      -0.00059527      -0.00072815
Cl       2.95348172       4.27163477       8.68074390      -0.00041975       0.00059345       0.00072482
Cl       2.95348168       4.27163498       5.11558022      -0.00042027       0.00059313      -0.00072576
Cl       5.01182994       1.36069091       8.68074402       0.00041912      -0.00059229       0.00072356
