9
Lattice="6.075458311931527 1.592045057458996e-08 3.5076673402785863 2.025152762863346 5.7279968361509725 3.507667379752824 -2.9943256123743647e-08 2.717278696014965e-08 7.015334732420418" Properties=species:S:1:pos:R:3:forces:R:3 energy=-33.70779037475586 free_energy=-33.70779037475586 stress="-5.8002104196930304e-05 1.667649840442209e-08 -1.296316387566776e-08 1.667649840442209e-08 -5.8000350691145286e-05 2.2599527582656265e-08 -1.296316387566776e-08 2.2599527582656265e-08 -5.801500810775906e-05" pbc="T T T"
Ga       2.02515275       1.43199915       3.50766733       0.00000000       0.00000003      -0.00000013
Ga       6.07545817       4.29599765      10.52300194      -0.00000016      -0.00000013      -0.00000063
Mn      -0.00000004       0.00000009      -0.00000076       0.00000217      -0.00000203       0.00001062
Te       2.04879057       1.44871389       7.01533472      -0.00580809      -0.00410782       0.00000034
Te       6.05182037       4.27928298       7.01533501       0.00580820       0.00410706       0.00000056
Te       5.05106310       1.44871378       5.28197194       0.00290501      -0.00410803      -0.00503130
Te       3.04954786       4.27928327       8.74869768      -0.00290325       0.00410551       0.00502825
Te       3.04954801       4.27928311       5.28197214      -0.00290477       0.00410804      -0.00503208
Te       5.05106340       1.44871357       8.74869780       0.00290096      -0.00410248       0.00502440
