9
Lattice="4.446231187559306 8.519967081502981e-08 2.567032658192144 1.4820771246722058 4.191947041049714 2.5670326896714535 1.2220785110169165e-07 1.2496812296002617e-07 5.134065104714061" Properties=species:S:1:pos:R:3:forces:R:3 energy=-36.70731735229492 free_energy=-36.70731735229492 stress="-1.6176201825146563e-05 1.2363192070097284e-07 4.478130932739077e-08 1.2363192070097284e-07 -1.6168025467777625e-05 6.102828820075956e-08 4.478130932739077e-08 6.102828820075956e-08 -1.6085181414382532e-05" pbc="T T T"
Ga       1.48207988       1.04798741       2.56703279       0.00005546       0.00001166       0.00000414
Ga       4.44623171       3.14395979       7.70109713       0.00000851      -0.00000902      -0.00001504
Mg       0.00000014      -0.00000011       0.00000015       0.00000116       0.00000145       0.00000001
F        1.50668640       1.06538900       5.13406488       0.00552203       0.00391427      -0.00000418
F        4.42162132       3.12655913       5.13406550      -0.00553542      -0.00390480       0.00000888
F        3.69288648       1.06538870       3.87186078      -0.00278680       0.00391247       0.00477625
F        2.23542063       3.12655783       6.39626956       0.00276269      -0.00392187      -0.00477803
F        2.23542005       3.12655860       3.87186184       0.00275554      -0.00391592       0.00478926
F        3.69288710       1.06538861       6.39626913      -0.00278314       0.00391177      -0.00478094
