9
Lattice="5.904249643005112 -3.223481990161078e-08 3.4088201549970014 1.968083196911345 5.566579809179185 3.4088201325365084 3.301893316854928e-08 -4.160477905198555e-09 6.8176402528035" Properties=species:S:1:pos:R:3:forces:R:3 energy=-38.38396453857422 free_energy=-38.38396453857422 stress="0.000282533117569983 1.9671757556238845e-09 1.0264314953545295e-09 1.9671757556238845e-09 0.00028253201162442565 3.4483966793175114e-09 1.0264314953545295e-09 3.4483966793175114e-09 0.00028253108030185103" pbc="T T T"
Ga       1.96808320       1.39164500       3.40882006      -0.00000023      -0.00000016       0.00000010
Ga       5.90424958       4.17493484      10.22646021       0.00000024      -0.00000035      -0.00000005
Mo       0.00000007      -0.00000016       0.00000045       0.00000120       0.00000316      -0.00000334
Se       1.97668609       1.39772822       6.81764014       0.00173581       0.00122698      -0.00000027
Se       5.89564682       4.16885158       6.81764025      -0.00173813      -0.00122859      -0.00000048
Se       4.91590658       1.39772813       5.12068072      -0.00086902       0.00122809       0.00150397
Se       2.95642638       4.16885164       8.51459983       0.00086834      -0.00122692      -0.00150323
Se       2.95642617       4.16885166       5.12068070       0.00086980      -0.00122881       0.00150535
Se       4.91590658       1.39772817       8.51459982      -0.00086804       0.00122654      -0.00150210
