9
Lattice="6.735874618749906 -7.329055252839724e-09 3.888958989377395 2.24529155420543 6.350643432407675 3.888958952082837 -2.158290486194691e-09 -4.7202440319149504e-08 7.77791798249303" Properties=species:S:1:pos:R:3:forces:R:3 energy=-27.67868995666504 free_energy=-27.67868995666504 stress="2.25679491450137e-06 5.2035002973127575e-09 3.4834579665243837e-09 5.2035002973127575e-09 2.251031446576235e-06 -5.059444863064755e-09 3.4834579665243837e-09 -5.059444863064755e-09 2.249156068501179e-06" pbc="T T T"
Ga       2.24529151       1.58766087       3.88895911       0.00000028       0.00000005      -0.00000019
Ga       6.73587475       4.76298241      11.66687699       0.00000025      -0.00000052       0.00000023
Mo      -0.00000004       0.00000050      -0.00000126       0.00000218      -0.00000833       0.00001565
I        2.25947791       1.59769239       7.77791764      -0.00161743      -0.00114454       0.00000061
I        6.72168768       4.75295096       7.77791785       0.00162089       0.00114542       0.00000088
I        5.60613552       1.59769226       5.84572431       0.00081040      -0.00114651      -0.00140238
I        3.37503013       4.75295183       9.71011170      -0.00080767       0.00114189       0.00140020
I        3.37503090       4.75295075       5.84572495      -0.00081396       0.00115104      -0.00140969
I        5.60613634       1.59769150       9.71011237       0.00080498      -0.00113845       0.00139470
