9
Lattice="5.804928385594168 3.65992080058405e-08 3.351476905862226 1.9349761576464144 5.472938994851136 3.351476915199849 1.7966719981988908e-08 2.414059559811979e-08 6.702953780605166" Properties=species:S:1:pos:R:3:forces:R:3 energy=-36.46342468261719 free_energy=-36.46342468261719 stress="9.069895895663649e-05 -1.106214142509998e-08 7.756801423397519e-09 -1.106214142509998e-08 9.068873623618856e-05 -3.940515824751856e-08 7.756801423397519e-09 -3.940515824751856e-08 9.072159446077421e-05" pbc="T T T"
Ga       1.93497632       1.36823475       3.35147679       0.00000066       0.00000023       0.00000008
Ga       5.80492843       4.10470432      10.05443071      -0.00000028       0.00000019       0.00000053
Mn       0.00000018      -0.00000015      -0.00000014      -0.00000172       0.00000263      -0.00000125
Se       1.90266911       1.34539040       6.70295372       0.00082311       0.00058234      -0.00000049
Se       5.83723530       4.12754879       6.70295380      -0.00082305      -0.00058243      -0.00000023
Se       4.85359379       1.34539037       4.99923672      -0.00041167       0.00058240       0.00071263
Se       2.88631064       4.12754882       8.40667121       0.00041197      -0.00058299      -0.00071433
Se       2.88631072       4.12754870       4.99923662       0.00041135      -0.00058180       0.00071248
Se       4.85359377       1.34539023       8.40667094      -0.00041001       0.00057951      -0.00070959
