9
Lattice="5.053237897356337 1.7124204715398877e-07 2.9174886740195105 1.6844126952100775 4.76423871309487 2.917488844956618 -1.3217643590137236e-07 1.1589150281843682e-07 5.834977576975348" Properties=species:S:1:pos:R:3:forces:R:3 energy=-42.714149475097656 free_energy=-42.714149475097656 stress="6.258683424675837e-05 -2.5258090730062577e-08 -1.3402721599220513e-08 -2.5258090730062577e-08 6.251965533010662e-05 2.3486386169224716e-09 -1.3402721599220513e-08 2.3486386169224716e-09 6.253316678339615e-05" pbc="T T T"
Ga       1.68441216       1.19105911       2.91748783      -0.00000163      -0.00000119      -0.00000193
Ga       5.05323792       3.57317844       8.75246549      -0.00000007      -0.00000162      -0.00000183
Mo      -0.00000030      -0.00000041      -0.00000045       0.00000081       0.00000567      -0.00000057
F        1.63586504       1.15673195       5.83497849       0.00301023       0.00212792      -0.00000116
F        5.10178408       3.60750718       5.83497853      -0.00300841      -0.00212713      -0.00000131
F        4.23530619       1.15673203       4.33418974      -0.00150581       0.00212832       0.00260690
F        2.50234600       3.60750690       7.33576457       0.00150229      -0.00212646      -0.00260402
F        2.50234513       3.60750792       4.33419023       0.00150589      -0.00213093       0.00260825
F        4.23530515       1.15673301       7.33576497      -0.00150327       0.00212546      -0.00260419
