9
Lattice="4.536750962580813 -3.9660094572311636e-09 2.619294373619723 1.5122503096306301 4.277289875326361 2.6192943865936167 1.4469438617349069e-08 2.6121141039943663e-08 5.238588722177678" Properties=species:S:1:pos:R:3:forces:R:3 energy=-47.03854751586914 free_energy=-47.03854751586914 stress="-5.2706265705637634e-05 -1.1846877612242679e-07 -6.183016409977427e-08 -1.1846877612242679e-07 -5.275807052385062e-05 -1.1511698971844453e-07 -6.183016409977427e-08 -1.1511698971844453e-07 -5.285212318995036e-05" pbc="T T T"
Ga       1.51225041       1.06932234       2.61929387       0.00000156       0.00000139      -0.00000976
Ga       4.53675084       3.20796740       7.85788482      -0.00000202      -0.00000071       0.00002389
Mo       0.00000023       0.00000046      -0.00000070      -0.00000185      -0.00000034       0.00000118
O        1.57902835       1.11654104       5.23858910       0.00024414       0.00016898       0.00000473
O        4.46997297       3.16074882       5.23858820      -0.00024474      -0.00016689      -0.00001013
O        3.74723738       1.11654182       3.98677271      -0.00011426       0.00017506       0.00020248
O        2.30176394       3.16074796       6.49040490       0.00011462      -0.00017267      -0.00021088
O        2.30176434       3.16074824       3.98677263       0.00012034      -0.00016809       0.00020313
O        3.74723665       1.11654142       6.49040463      -0.00011784       0.00016361      -0.00020522
