9
Lattice="5.558317614832581 4.4693208328722674e-09 3.20909630586101 1.8527724869847964 5.24043252468247 3.209096402000948 -4.9089764014771615e-08 8.303526812452916e-08 6.41819269674795" Properties=species:S:1:pos:R:3:forces:R:3 energy=-39.130706787109375 free_energy=-39.130706787109375 stress="0.00019514829909894615 -3.863744879595288e-08 2.5259220493012435e-08 -3.863744879595288e-08 0.000195151602383703 -3.1708161429833126e-08 2.5259220493012435e-08 -3.1708161429833126e-08 0.00019519150373525918" pbc="T T T"
Ga       1.85277309       1.31010826       3.20909602       0.00000199      -0.00000049      -0.00000113
Ga       5.55831724       3.93032461       9.62728906      -0.00000114      -0.00000023      -0.00000101
Mn      -0.00000009      -0.00000016      -0.00000000      -0.00000024       0.00000124       0.00000081
S        1.79712487       1.27075929       6.41819244      -0.00112778      -0.00079793      -0.00000023
S        5.61396517       3.96967337       6.41819282       0.00112838       0.00079751       0.00000110
S        4.65975510       1.27075933       4.76545226       0.00056502      -0.00079989      -0.00098008
S        2.75133514       3.96967266       8.07093313      -0.00056520       0.00079930       0.00097889
S        2.75133533       3.96967356       4.76545283      -0.00056648       0.00080121      -0.00098014
S        4.65975430       1.27075957       8.07093315       0.00056547      -0.00080055       0.00098169
