9
Lattice="6.521900036995058 -1.702064228427133e-08 3.7654206959433676 2.173966661007914 6.148906317402391 3.7654206993091237 -3.6954366488815606e-08 -2.200850777451145e-08 7.530841455893638" Properties=species:S:1:pos:R:3:forces:R:3 energy=-22.152252197265625 free_energy=-22.152252197265625 stress="6.229714927030727e-05 -5.996492746795923e-10 5.486461840398249e-10 -5.996492746795923e-10 6.229709833860397e-05 -1.1078683748166895e-08 5.486461840398249e-10 -1.1078683748166895e-08 6.227104313438758e-05" pbc="T T T"
Ga       2.17396662       1.53722651       3.76542066       0.00000015      -0.00000005      -0.00000001
Ga       6.52190001       4.61167974      11.29626214      -0.00000029       0.00000021       0.00000027
Ni      -0.00000016      -0.00000008      -0.00000005       0.00000008       0.00000069       0.00000144
I        2.19176298       1.54981029       7.53084141       0.00092342       0.00065307       0.00000015
I        6.50410378       4.59909598       7.53084138      -0.00092350      -0.00065322       0.00000011
I        5.42601855       1.54981048       5.66354313      -0.00046189       0.00065272       0.00079888
I        3.26984818       4.59909589       9.39813977       0.00046219      -0.00065307      -0.00079955
I        3.26984825       4.59909580       5.66354324       0.00046176      -0.00065312       0.00079870
I        5.42601845       1.54981054       9.39813967      -0.00046189       0.00065260      -0.00079985
