9
Lattice="4.7646592090870215 1.634501435292447e-06 2.7508800986104593 1.588221190961655 4.492167010138428 2.75088024829997 -1.9749586500108177e-06 -1.2131751378294674e-06 5.501763617949886" Properties=species:S:1:pos:R:3:forces:R:3 energy=-51.19791793823242 free_energy=-51.19791793823242 stress="-0.0003598399634938687 -3.3261144380958285e-06 2.5736744646565057e-06 -3.3261144380958285e-06 -0.00036254548467695713 1.8764424112305278e-06 2.5736744646565057e-06 1.8764424112305278e-06 -0.00036932947114109993" pbc="T T T"
Ga       1.58802729       1.12305178       2.75097115      -0.00257381       0.00013545       0.00119508
Ga       4.76478511       3.36920012       8.25255676       0.00168330       0.00100239      -0.00114007
Nb      -0.00000730       0.00000792       0.00000076      -0.00014592       0.00018741       0.00001295
O        1.61350419       1.14092101       5.50172903       0.00225997       0.00157422      -0.00048414
O        4.73940424       3.35120490       5.50179247      -0.00182498      -0.00218439       0.00045272
O        3.95793871       1.14086451       4.14827962      -0.00070161       0.00084645       0.00271213
O        2.39496092       3.35127806       6.85526715       0.00099522      -0.00119483      -0.00242329
O        2.39491258       3.35123789       4.14825211       0.00038350      -0.00167537       0.00237679
O        3.95798789       1.14090359       6.85524734      -0.00007552       0.00130880      -0.00270176
