9
Lattice="5.9194476916094825 9.920771905518299e-08 3.417594641244019 1.9731492671771758 5.580908953436973 3.4175947397861526 -5.721481978512495e-08 8.023193125618643e-08 6.835189381587036" Properties=species:S:1:pos:R:3:forces:R:3 energy=-38.19403076171875 free_energy=-38.19403076171875 stress="0.00014664368063677102 6.557041842825129e-08 -5.623691734513159e-08 6.557041842825129e-08 0.0001465981622459367 8.029146414401112e-08 -5.623691734513159e-08 8.029146414401112e-08 0.00014656154962722212" pbc="T T T"
Ga       1.97314947       1.39522766       3.41759492       0.00000010       0.00000068       0.00000095
Ga       5.91944750       4.18568215      10.25278428      -0.00000042       0.00000148       0.00000076
Nb       0.00000008       0.00000085       0.00000063      -0.00000190      -0.00000900      -0.00000620
Se       2.03239813       1.43712205       6.83518885       0.00741318       0.00524086      -0.00000092
Se       5.86019892       4.14378618       6.83518904      -0.00740623      -0.00523826      -0.00000159
Se       4.90324852       1.43712173       5.17770277      -0.00370877       0.00524205       0.00642149
Se       2.98934831       4.14378647       8.49267608       0.00370431      -0.00523842      -0.00641498
Se       2.98934767       4.14378726       5.17770223       0.00370948      -0.00524548       0.00642533
Se       4.90324903       1.43712217       8.49267634      -0.00370972       0.00524601      -0.00642474
