9
Lattice="4.588622111978972 1.5671941995267893e-06 2.64924261507682 1.5295415538743993 4.326199804487607 2.6492437022564745 -2.3041899111102314e-08 1.3152246107048661e-06 5.298485270063347" Properties=species:S:1:pos:R:3:forces:R:3 energy=-35.39535140991211 free_energy=-35.39535140991211 stress="0.0002910711627919227 -7.53593951685616e-08 1.2257027393047792e-08 -7.53593951685616e-08 0.00029135780641809106 1.646064085036869e-08 1.2257027393047792e-08 1.646064085036869e-08 0.0002909167669713497" pbc="T T T"
Ga       1.52954548       1.08155570       2.64924058       0.00004846       0.00005930      -0.00002606
Ga       4.58861715       3.24464756       7.94772786      -0.00006271      -0.00005419      -0.00001255
Ni       0.00000008      -0.00000007       0.00000030       0.00000356      -0.00000244      -0.00000486
F        1.48592164       1.05070761       5.29848596      -0.00221592      -0.00156777       0.00001047
F        4.63224280       3.27549415       5.29848607       0.00222111       0.00156456       0.00000793
F        3.84566111       1.05070941       3.93608722       0.00110407      -0.00155607      -0.00193086
F        2.27250304       3.27549301       6.66088525      -0.00109906       0.00155136       0.00194547
F        2.27250373       3.27549247       3.93608778      -0.00109813       0.00155893      -0.00193648
F        3.84566010       1.05071127       6.66088484       0.00109851      -0.00155380       0.00194640
