9
Lattice="4.617890502049015 -3.0401558207405567e-07 2.666140402110972 1.5392967227218834 4.353787551022795 2.6661400984233627 3.75170215191241e-07 -1.0665447545229057e-07 5.332280154408118" Properties=species:S:1:pos:R:3:forces:R:3 energy=-32.80057907104492 free_energy=-32.80057907104492 stress="-7.543601532233879e-05 -3.550942651031619e-08 -5.34068533397658e-07 -3.550942651031619e-08 -7.442012429237366e-05 -3.452015846505674e-07 -5.34068533397658e-07 -3.452015846505674e-07 -7.487253606086597e-05" pbc="T T T"
Ga       1.53928918       1.08845029       2.66612127      -0.00005196       0.00002357      -0.00013733
Ga       4.61788561       3.26533353       7.99838687      -0.00003015      -0.00003262      -0.00021827
N        0.00000176      -0.00000075       0.00000843       0.00001181       0.00000804       0.00003972
F        1.43478561       1.01454635       5.33229162       0.00445926       0.00316051       0.00005025
F        4.72240752       3.33923890       5.33229579      -0.00446147      -0.00316992       0.00007020
F        3.90050424       1.01453867       3.90870651      -0.00221172       0.00314784       0.00390577
F        2.25669772       3.33923681       6.75586719       0.00226033      -0.00316018      -0.00381282
F        2.25668268       3.33924812       3.90870260       0.00223151      -0.00315416       0.00390875
F        3.90049794       1.01455638       6.75586392      -0.00220713       0.00317714      -0.00380641
