9
Lattice="6.0472900808503525 4.312096527216753e-08 3.4914044909607003 2.0157634150106003 5.7014396858578325 3.4914044665867547 5.100218177324855e-09 -2.6245452775176293e-08 6.982808973087522" Properties=species:S:1:pos:R:3:forces:R:3 energy=-30.29570960998535 free_energy=-30.29570960998535 stress="-0.00012365813017822802 5.644694045514598e-09 -1.242138836232698e-08 5.644694045514598e-09 -0.00012362588313408196 -6.856606393768061e-09 -1.242138836232698e-08 -6.856606393768061e-09 -0.00012365156726446003" pbc="T T T"
Ga       2.01576346       1.42535994       3.49140458      -0.00000068      -0.00000088      -0.00000062
Ga       6.04729000       4.27607969      10.47421336      -0.00000011       0.00000125       0.00000022
Ni       0.00000043       0.00000044       0.00000007      -0.00000246      -0.00000552      -0.00000150
Te       2.08597317       1.47500581       6.98280892      -0.00277069      -0.00195916      -0.00000008
Te       5.97707974       4.22643363       6.98280905       0.00277500       0.00196244       0.00000041
Te       5.00430342       1.47500591       5.29791001       0.00138628      -0.00195997      -0.00240103
Te       3.05875011       4.22643382       8.66770778      -0.00138710       0.00196236       0.00240260
Te       3.05875016       4.22643370       5.29791037      -0.00138722       0.00196062      -0.00240176
Te       5.00430352       1.47500586       8.66770758       0.00138695      -0.00196114       0.00240172
