9
Lattice="4.389693202592155 -7.269982832681073e-08 2.534390576989124 1.463230967256195 4.138642590744504 2.5343906319513803 -5.496429213226017e-08 2.8449072407325117e-08 5.068781249179201" Properties=species:S:1:pos:R:3:forces:R:3 energy=-38.961814880371094 free_energy=-38.961814880371094 stress="-0.0004912709118798375 7.750391972649595e-08 -1.207489503940451e-07 7.750391972649595e-08 -0.0004911764990538359 -6.172141553406618e-08 -1.207489503940451e-07 -6.172141553406618e-08 -0.000491119222715497" pbc="T T T"
Ga       1.46323157       1.03465816       2.53439094       0.00000779      -0.00003626       0.00000591
Ga       4.38969927       3.10398067       7.60316523       0.00010706      -0.00002220      -0.00011571
Ni      -0.00000012       0.00000030       0.00000013      -0.00001369      -0.00000103       0.00000582
O        1.46440353       1.03549299       5.06878106       0.00190815       0.00139564      -0.00000424
O        4.38851825       3.10315206       5.06878495      -0.00193666      -0.00135309       0.00005867
O        3.65749004       1.03549030       3.80260356      -0.00097849       0.00134706       0.00168809
O        2.19543287       3.10315278       6.33495938       0.00095513      -0.00135249      -0.00168125
O        2.19543096       3.10315199       3.80260472       0.00091890      -0.00135079       0.00170735
O        3.65749011       1.03549083       6.33495992      -0.00096794       0.00137296      -0.00166501
