9
Lattice="6.13036472944601 8.026047362651167e-08 3.5393676944820704 2.043454968395732 5.7797632426875944 3.5393677240826222 4.347936657336181e-08 6.699770452383339e-08 7.078735313655643" Properties=species:S:1:pos:R:3:forces:R:3 energy=-24.744136810302734 free_energy=-24.744136810302734 stress="-0.00015615997835993767 -8.70648086959136e-09 -7.203206031647369e-09 -8.70648086959136e-09 -0.00015615699521731585 -6.906106353454788e-09 -7.203206031647369e-09 -6.906106353454788e-09 -0.00015614520816598088" pbc="T T T"
Ga       2.04345480       1.44494076       3.53936769      -0.00000021      -0.00000005       0.00000007
Ga       6.13036470       4.33482290      10.61810323       0.00000041       0.00000050       0.00000010
Ni      -0.00000006      -0.00000006       0.00000020       0.00000123       0.00000072      -0.00000145
Br       1.97611979       1.39732768       7.07873545      -0.00222418      -0.00157189      -0.00000010
Br       6.19769992       4.38243573       7.07873531       0.00222272       0.00157106      -0.00000013
Br       5.14230507       1.39732754       5.25073751       0.00111158      -0.00157142      -0.00192544
Br       3.03151489       4.38243588       8.90673303      -0.00111148       0.00157207       0.00192589
Br       3.03151490       4.38243567       5.25073754      -0.00111172       0.00157157      -0.00192526
Br       5.14230488       1.39732754       8.90673299       0.00111176      -0.00157219       0.00192598
