9
Lattice="5.6502920689779526 2.9273913316590472e-08 3.262197679914722 1.8834306991094605 5.327146458294632 3.2621977113507397 2.3927125504559098e-09 4.0192969495341726e-08 6.524395355685155" Properties=species:S:1:pos:R:3:forces:R:3 energy=-31.975521087646484 free_energy=-31.975521087646484 stress="6.000719440635294e-05 -6.3620295698285645e-09 -2.3900089018979997e-08 -6.3620295698285645e-09 6.00065613980405e-05 3.356922206876334e-08 -2.3900089018979997e-08 3.356922206876334e-08 6.001196743454784e-05" pbc="T T T"
Ga       1.88343069       1.33178647       3.26219758      -0.00000051      -0.00000050      -0.00000010
Ga       5.65029217       3.99535982       9.78659315       0.00000061      -0.00000007      -0.00000014
Ni       0.00000011      -0.00000018      -0.00000029      -0.00000054       0.00000085       0.00000027
Se       1.88939931       1.33600742       6.52439556      -0.00033963      -0.00024056      -0.00000077
Se       5.64432330       3.99113928       6.52439533       0.00034088       0.00024068      -0.00000034
Se       4.70559245       1.33600734       4.89846562       0.00017141      -0.00024241      -0.00029579
Se       2.82813037       3.99113926       8.15032521      -0.00017203       0.00024283       0.00029689
Se       2.82813019       3.99113964       4.89846544      -0.00017017       0.00023979      -0.00029388
Se       4.70559246       1.33600716       8.15032540       0.00016980      -0.00024047       0.00029382
