9
Lattice="6.330074409136978 3.934342769913332e-10 3.654670134974504 2.110024815139539 5.968051315343682 3.6546701146697793 1.9111426880840713e-09 -2.3516707282864314e-08 7.309340266638774" Properties=species:S:1:pos:R:3:forces:R:3 energy=-35.195167541503906 free_energy=-35.195167541503906 stress="4.5028460590401664e-05 1.5455361435101622e-08 1.1151540135756477e-08 1.5455361435101622e-08 4.50123698101379e-05 -2.1817276874003255e-08 1.1151540135756477e-08 -2.1817276874003255e-08 4.49998551630415e-05" pbc="T T T"
Ga       2.11002475       1.49201282       3.65467004      -0.00000009      -0.00000014      -0.00000023
Ga       6.33007448       4.47603851      10.96401047      -0.00000012       0.00000031      -0.00000013
Nb       0.00000012      -0.00000015       0.00000000      -0.00000161       0.00000033       0.00000048
Te       2.23259353       1.57868206       7.30934041      -0.00010718      -0.00007527      -0.00000008
Te       6.20750559       4.38936926       7.30934041       0.00010763       0.00007628       0.00000002
Te       5.21377760       1.57868177       5.58815273       0.00005264      -0.00007419      -0.00009133
Te       3.22632145       4.38936930       9.03052772      -0.00005179       0.00007302       0.00009042
Te       3.22632164       4.38936950       5.58815275      -0.00005325       0.00007546      -0.00009179
Te       5.21377771       1.57868208       9.03052753       0.00005375      -0.00007579       0.00009271
