9
Lattice="5.612050125741578 3.611113939536031e-09 3.2401186701976767 1.8706833783651684 5.291091487465947 3.240118670694075 1.129261254734259e-08 8.593069199948492e-09 6.480237320835944" Properties=species:S:1:pos:R:3:forces:R:3 energy=-41.34373474121094 free_energy=-41.34373474121094 stress="-5.3012470743851736e-05 -1.2475178223780858e-08 -3.142706361813907e-08 -1.2475178223780858e-08 -5.298732139635831e-05 2.816088517931803e-08 -3.142706361813907e-08 2.816088517931803e-08 -5.3027932153781876e-05" pbc="T T T"
Ga       1.87068348       1.32277257       3.24011896       0.00000047      -0.00000039       0.00000145
Ga       5.61205034       3.96831878       9.72035648       0.00000122      -0.00000002       0.00000190
Nb       0.00000011       0.00000014      -0.00000040      -0.00000137      -0.00000325       0.00000217
S        1.92857889       1.36371136       6.48023752       0.00021061       0.00015014      -0.00000075
S        5.55415442       3.92738056       6.48023736      -0.00020993      -0.00014710      -0.00000090
S        4.64776044       1.36371133       4.91031708      -0.00010385       0.00014749       0.00017965
S        2.83497253       3.92738038       8.05015755       0.00010468      -0.00014803      -0.00018165
S        2.83497286       3.92738001       4.91031664       0.00010496      -0.00014836       0.00018182
S        4.64776093       1.36371089       8.05015746      -0.00010660       0.00014943      -0.00018385
