9
Lattice="5.4141556170871805 7.417107192808196e-08 3.1258642501388154 1.8047185708859004 5.104514744957497 3.1258643160820165 -1.3203670034809576e-08 7.142720053292029e-08 6.25172852314705" Properties=species:S:1:pos:R:3:forces:R:3 energy=-34.10980224609375 free_energy=-34.10980224609375 stress="4.421181802172214e-05 -6.604773972185285e-08 -5.77204684049093e-09 -6.604773972185285e-08 4.428441752679646e-05 -3.404055703981612e-08 -5.77204684049093e-09 -3.404055703981612e-08 4.438528048922308e-05" pbc="T T T"
Ga       1.80471887       1.27612902       3.12586416       0.00000059      -0.00000026       0.00000051
Ga       5.41415591       3.82838596       9.37759275       0.00000250       0.00000041      -0.00000022
Ni       0.00000028      -0.00000023      -0.00000031      -0.00001047       0.00001314       0.00001416
S        1.76168740       1.24570113       6.25172859      -0.00012001      -0.00008458       0.00000028
S        5.45718700       3.85881352       6.25172864       0.00011891       0.00008440      -0.00000003
S        4.53331163       1.24570104       4.65153124       0.00006665      -0.00009492      -0.00011542
S        2.68556165       3.85881427       7.85192646      -0.00005813       0.00008157       0.00009742
S        2.68556170       3.85881354       4.65153089      -0.00006372       0.00008801      -0.00010669
S        4.53331229       1.24570142       7.85192615       0.00006382      -0.00008783       0.00010985
