9
Lattice="4.71214803633186 5.97252658800233e-08 2.7205599143536676 1.5707160791854515 4.442655850256743 2.7205598957076056 -1.5880843452223004e-09 -2.395959865738917e-08 5.4411198314579785" Properties=species:S:1:pos:R:3:forces:R:3 energy=-52.02951431274414 free_energy=-52.02951431274414 stress="-2.9449693101923913e-05 1.1520035769763126e-07 -5.1305150350344775e-08 1.1520035769763126e-07 -2.9097653168719262e-05 1.6501982003092053e-09 -5.1305150350344775e-08 1.6501982003092053e-09 -2.9250930310809053e-05" pbc="T T T"
Ga       1.57071530       1.11066612       2.72056019      -0.00000530       0.00002035       0.00000211
Ga       4.71215066       3.33198988       8.16167894       0.00002400      -0.00002111      -0.00000374
Os       0.00000011      -0.00000013      -0.00000008      -0.00000312      -0.00000890       0.00000294
O        1.51614123       1.07207591       5.44111967       0.00148720       0.00106269       0.00000031
O        4.76672192       3.37058066       5.44112018      -0.00148040      -0.00105605       0.00000124
O        3.95407725       1.07207478       4.03357749      -0.00074700       0.00105807       0.00129500
O        2.32878679       3.37058095       6.84866198       0.00073761      -0.00105709      -0.00128934
O        2.32878606       3.37058076       4.03357815       0.00073442      -0.00105450       0.00128826
O        3.95407723       1.07207458       6.84866204      -0.00074726       0.00105685      -0.00129670
