9
Lattice="5.4911972403572396 -8.477243261406198e-09 3.1703443609337167 1.8303990929696325 5.177150216456925 3.170344324832707 9.561464951630332e-08 2.339526656622028e-08 6.340688556258009" Properties=species:S:1:pos:R:3:forces:R:3 energy=-39.450984954833984 free_energy=-39.450984954833984 stress="0.00015459979476872832 -3.806492010482998e-09 8.8732337033548e-09 -3.806492010482998e-09 0.0001546081475680694 2.4027684730754117e-08 8.8732337033548e-09 2.4027684730754117e-08 0.00015460570284631103" pbc="T T T"
Ga       1.83039839       1.29428826       3.17034297      -0.00000301       0.00000299      -0.00001137
Ga       5.49119707       3.88286237       9.51103104      -0.00000081      -0.00000182      -0.00001204
Os      -0.00000101      -0.00000008      -0.00000672      -0.00000846       0.00000052      -0.00004754
S        1.87431802       1.32534311       6.34069023      -0.00652224      -0.00461119       0.00000975
S        5.44727888       3.85180706       6.34069016       0.00652605       0.00461233       0.00000993
S        4.55403881       1.32534305       4.79355359       0.00326562      -0.00461364      -0.00563890
S        2.76755849       3.85180698       7.88782738      -0.00326163       0.00461394       0.00566512
S        2.76755819       3.85180677       4.79355307      -0.00326145       0.00461006      -0.00563890
S        4.55403875       1.32534338       7.88782768       0.00326514      -0.00461340       0.00566471
