9
Lattice="5.750624085283615 -7.883648189573727e-08 3.320124497957841 1.9168746289331224 5.4217404536666605 3.3201244838133586 7.432440430117275e-08 3.5231954178330994e-08 6.640248867182013" Properties=species:S:1:pos:R:3:forces:R:3 energy=-37.3563232421875 free_energy=-37.3563232421875 stress="-3.906701385858469e-05 -9.066335238117063e-09 -6.730187074310834e-09 -9.066335238117063e-09 -3.900954470736906e-05 3.5506090512171795e-08 -6.730187074310834e-09 3.5506090512171795e-08 -3.9015965739963576e-05" pbc="T T T"
Ga       1.91687485       1.35543500       3.32012466       0.00000067       0.00000029       0.00000012
Ga       5.75062418       4.06630543       9.96037326       0.00000015       0.00000040      -0.00000111
Os      -0.00000008       0.00000003      -0.00000031       0.00000004      -0.00000010       0.00000375
Se       2.00585895       1.41835671       6.64024887       0.00031495       0.00022262      -0.00000047
Se       5.66163969       4.00338421       6.64024928      -0.00031555      -0.00022271       0.00000034
Se       4.74769433       1.41835656       5.05724953      -0.00015640       0.00022051       0.00027007
Se       2.91980429       4.00338380       8.22324849       0.00015739      -0.00022185      -0.00027111
Se       2.91980415       4.00338345       5.05724954       0.00015655      -0.00022197       0.00027093
Se       4.74769459       1.41835650       8.22324854      -0.00015797       0.00022241      -0.00027305
