9
Lattice="5.63875883802816 3.8867343655340376e-07 3.2555392533859995 1.8795865179816629 5.3162733286972195 3.255539474752305 -6.702214677239394e-08 2.2372542542001665e-07 6.511078622857787" Properties=species:S:1:pos:R:3:forces:R:3 energy=-34.010406494140625 free_energy=-34.010406494140625 stress="3.183349690516479e-05 9.938015210764206e-08 5.0147811236911366e-08 9.938015210764206e-08 3.166625538142398e-05 -7.432218751546316e-08 5.0147811236911366e-08 -7.432218751546316e-08 3.168694456689991e-05" pbc="T T T"
Ga       1.87958687       1.32906815       3.25553939       0.00000299      -0.00000173       0.00000040
Ga       5.63875915       3.98720618       9.76661823       0.00000039       0.00000257      -0.00000101
P        0.00000015       0.00000001       0.00000039       0.00000594      -0.00000641      -0.00000051
S        1.76376444       1.24716957       6.51107817      -0.00045109      -0.00032020      -0.00000011
S        5.75458081       4.06910483       6.51107878       0.00044882       0.00031519       0.00000081
S        4.75687634       1.24716894       4.78300333       0.00021708      -0.00030673      -0.00037408
S        2.76146848       4.06910488       8.23915344      -0.00021929       0.00031096       0.00038350
S        2.76146899       4.06910423       4.78300455      -0.00022423       0.00031757      -0.00038946
S        4.75687609       1.24716900       8.23915354       0.00021935      -0.00031090       0.00037992
