9
Lattice="6.667516251530707 -5.3410982660048044e-08 3.8494923115456636 2.2225053823341883 6.286194620623322 3.849492284675302 1.5565670860599145e-08 -2.1902725899291382e-08 7.6989845961306935" Properties=species:S:1:pos:R:3:forces:R:3 energy=-21.281539916992188 free_energy=-21.281539916992188 stress="-0.00011622381134657189 -3.986407648426393e-09 3.3280951328151787e-09 -3.986407648426393e-09 -0.00011622855527093634 -4.172339362895627e-09 3.3280951328151787e-09 -4.172339362895627e-09 -0.00011622704187175259" pbc="T T T"
Ga       2.22250541       1.57154861       3.84949226       0.00000005      -0.00000026      -0.00000010
Ga       6.66751624       4.71464592      11.54847695       0.00000026      -0.00000023       0.00000004
P       -0.00000009      -0.00000001       0.00000030       0.00000004      -0.00000006      -0.00000058
I        2.26505310       1.60163447       7.69898459      -0.00626536      -0.00443009       0.00000015
I        6.62496857       4.68456013       7.69898455       0.00626522       0.00443067       0.00000011
I        5.53498965       1.60163435       5.81108593       0.00313294      -0.00443070      -0.00542606
I        3.35503205       4.68456011       9.58688313      -0.00313305       0.00443064       0.00542618
I        3.35503201       4.68456016       5.81108594      -0.00313328       0.00443108      -0.00542641
I        5.53498964       1.60163440       9.58688310       0.00313313      -0.00443100       0.00542664
