9
Lattice="4.227666349192519 7.737774915108399e-08 2.4408444058060064 1.409222145353891 3.9858822317668374 2.440844482009379 -3.127413965206452e-08 7.121555214442843e-08 4.881688865780401" Properties=species:S:1:pos:R:3:forces:R:3 energy=-48.619834899902344 free_energy=-48.619834899902344 stress="0.00015744239499326795 -1.1451780856930327e-08 3.229637002277741e-08 -1.1451780856930327e-08 0.00015715506742708385 -1.7769572480119677e-08 3.229637002277741e-08 -1.7769572480119677e-08 0.00015749824524391443" pbc="T T T"
Ga       1.40921973       0.99647193       2.44084401      -0.00003563       0.00001217      -0.00000575
Ga       4.22766322       2.98941114       7.32253153      -0.00004548      -0.00000720      -0.00002259
P        0.00000035       0.00000014      -0.00000010      -0.00000183      -0.00000806      -0.00000270
O        1.37232737       0.97038093       4.88168912      -0.00007451      -0.00006402       0.00000306
O        4.26456258       3.01550046       4.88168969       0.00010335       0.00005698       0.00000699
O        3.54150388       0.97038139       3.62931451       0.00005782      -0.00005543      -0.00006914
O        2.09538616       3.01550048       6.13406426      -0.00003195       0.00005901       0.00008881
O        2.09538656       3.01550098       3.62931413      -0.00003177       0.00006044      -0.00008178
O        3.54150427       0.97038234       6.13406389       0.00005978      -0.00005591       0.00008321
