9
Lattice="6.2449354712363006 4.151521608475489e-08 3.6055152347295634 2.0816451682482024 5.88778180346726 3.6055152831775854 -7.081372495433155e-08 9.263641313926726e-09 7.211030592112051" Properties=species:S:1:pos:R:3:forces:R:3 energy=-24.04528045654297 free_energy=-24.04528045654297 stress="-0.00017391059373039752 -3.8945885405539116e-10 2.5979294271394338e-09 -3.8945885405539116e-10 -0.0001739221188472584 -2.9623710151582827e-09 2.5979294271394338e-09 -2.9623710151582827e-09 -0.0001739434665068984" pbc="T T T"
Ga       2.08164494       1.47194555       3.60551531       0.00000005       0.00000007      -0.00000004
Ga       6.24493501       4.41583625      10.81654599      -0.00000028      -0.00000020       0.00000005
P       -0.00000035      -0.00000006       0.00000011      -0.00000093       0.00000025       0.00000022
Br       2.03555787       1.43935656       7.21103052       0.00222635       0.00157472      -0.00000008
Br       6.29102327       4.44842526       7.21103041      -0.00222695      -0.00157493       0.00000008
Br       5.22715682       1.43935670       5.36835949      -0.00111322       0.00157537       0.00192894
Br       3.09942408       4.44842502       9.05370138       0.00111341      -0.00157422      -0.00192890
Br       3.09942397       4.44842532       5.36835981       0.00111380      -0.00157529       0.00192896
Br       5.22715662       1.43935676       9.05370132      -0.00111254       0.00157435      -0.00192904
