9
Lattice="5.842972394142406 2.9108849433923896e-08 3.3734416324688947 1.947657459957047 5.508807334956282 3.3734416882430085 -5.448322759569839e-08 2.9783563218357765e-08 6.746883359305564" Properties=species:S:1:pos:R:3:forces:R:3 energy=-31.407276153564453 free_energy=-31.407276153564453 stress="-3.911684689228423e-05 2.7135564906188847e-08 1.2020876738461084e-08 2.7135564906188847e-08 -3.913325781468302e-05 -1.4113165747176026e-08 1.2020876738461084e-08 -1.4113165747176026e-08 -3.915303750545718e-05" pbc="T T T"
Ga       1.94765741       1.37720182       3.37344170       0.00000002      -0.00000018      -0.00000037
Ga       5.84297252       4.13160586      10.12032552      -0.00000013       0.00000109       0.00000056
Pd      -0.00000015       0.00000013       0.00000017       0.00000135       0.00000170       0.00000113
Se       2.04701486       1.44745782       6.74688319       0.00132501       0.00093684       0.00000001
Se       5.74361531       4.06134961       6.74688285      -0.00132644      -0.00093813      -0.00000003
Se       4.81946486       1.44745773       5.14620829      -0.00066374       0.00093833       0.00114909
Se       2.97116430       4.06134957       8.34755856       0.00066397      -0.00093965      -0.00115052
Se       2.97116501       4.06134964       5.14620806       0.00066337      -0.00093806       0.00114959
Se       4.81946511       1.44745742       8.34755849      -0.00066338       0.00093792      -0.00114933
