9
Lattice="4.372932111679064 3.435770883178116e-08 2.524713501907647 1.457644043870372 4.1228399391328026 2.524713546505776 1.8476236056325354e-08 6.768600846121487e-08 5.049426971813512" Properties=species:S:1:pos:R:3:forces:R:3 energy=-39.98583221435547 free_energy=-39.98583221435547 stress="0.0005083815194666386 -7.44713801736907e-08 -4.0640308895945054e-09 -7.44713801736907e-08 0.0005082915886305273 6.968951993258088e-08 -4.0640308895945054e-09 6.968951993258088e-08 0.0005083822761662304" pbc="T T T"
Ga       1.45764140       1.03070914       2.52471668      -0.00004991      -0.00001508       0.00005579
Ga       4.37293243       3.09213013       7.57413844       0.00000907       0.00000347      -0.00003524
Pd       0.00000011      -0.00000013      -0.00000016       0.00000997       0.00000453       0.00000212
O        1.54923351       1.09547468       5.04942611      -0.00246033      -0.00172986      -0.00002113
O        4.28134278       3.02736577       5.04942784       0.00245501       0.00172179       0.00001520
O        3.59831502       1.09547306       3.86638993       0.00122880      -0.00174752      -0.00211985
O        2.23226215       3.02736768       6.23246386      -0.00121132       0.00175803       0.00211583
O        2.23226091       3.02736609       3.86638955      -0.00123216       0.00173646      -0.00212298
O        3.59831635       1.09547369       6.23246403       0.00125105      -0.00173182       0.00211007
