9
Lattice="5.635961238163394 -2.431203648154076e-08 3.2539237521659397 1.8786537114887285 5.313635262428812 3.253923772334097 1.7233241556064266e-08 3.688658420578222e-08 6.50784747448302" Properties=species:S:1:pos:R:3:forces:R:3 energy=-31.918888092041016 free_energy=-31.918888092041016 stress="0.00042789726285263896 2.1725700349861654e-08 2.4244533491923903e-08 2.1725700349861654e-08 0.0004278675769455731 -3.022409345021515e-08 2.4244533491923903e-08 -3.022409345021515e-08 0.00042783672688528895" pbc="T T T"
Ga       1.87865362       1.32840848       3.25392358      -0.00000024      -0.00000031      -0.00000064
Ga       5.63596151       3.98522663       9.76177086       0.00000085       0.00000007       0.00000021
P       -0.00000003       0.00000018      -0.00000010      -0.00000209      -0.00000585      -0.00000076
Se       1.86175209       1.31645749       6.50784748      -0.00515968      -0.00364813       0.00000012
Se       5.65286264       3.99717780       6.50784754       0.00516346       0.00365180      -0.00000043
Se       4.70508511       1.31645725       4.86624855       0.00257914      -0.00364760      -0.00446647
Se       2.80952964       3.99717790       8.14944673      -0.00258073       0.00364852       0.00446907
Se       2.80952988       3.99717780       4.86624880      -0.00258115       0.00365058      -0.00446984
Se       4.70508529       1.31645763       8.14944656       0.00258030      -0.00364906       0.00446898
