9
Lattice="5.59561838376944 -1.867479298402176e-08 3.2306318669360383 1.8652060892204847 5.275599853087259 3.2306319034752016 -4.276199464905075e-08 1.4513871217776558e-08 6.461263807938011" Properties=species:S:1:pos:R:3:forces:R:3 energy=-32.545066833496094 free_energy=-32.545066833496094 stress="-0.00043441771413199604 8.104503734784885e-09 3.72856101549246e-09 8.104503734784885e-09 -0.00043451625970192254 1.2721344866406525e-08 3.72856101549246e-09 1.2721344866406525e-08 -0.0004345228080637753" pbc="T T T"
Ga       1.86520601       1.31889935       3.23063206      -0.00000043      -0.00000202      -0.00000064
Ga       5.59561833       3.95670024       9.69189631      -0.00000028       0.00000131       0.00000084
Pd       0.00000015       0.00000014       0.00000001      -0.00000163      -0.00000272      -0.00000094
S        1.92130116       1.35856478       6.46126416      -0.00078064      -0.00055343       0.00000082
S        5.53952333       3.91703505       6.46126352       0.00078207       0.00055522      -0.00000135
S        4.63496760       1.35856452       4.89452751       0.00039086      -0.00055480      -0.00067586
S        2.82585676       3.91703491       8.02799970      -0.00039226       0.00055307       0.00067729
S        2.82585656       3.91703525       4.89452728      -0.00038928       0.00055546      -0.00067657
S        4.63496789       1.35856517       8.02799986       0.00039178      -0.00055218       0.00067675
