9
Lattice="5.957506365568368 1.5247403483307537e-08 3.43956784817679 1.9858354960404412 5.616790528837619 3.4395678023197607 4.784509995196529e-08 -2.2331622217154326e-08 6.8791356134834905" Properties=species:S:1:pos:R:3:forces:R:3 energy=-27.401214599609375 free_energy=-27.401214599609375 stress="-0.00021368078887462616 -2.2131150245741082e-08 9.669268052903135e-09 -2.2131150245741082e-08 -0.00021366201690398157 -5.573288497373596e-09 9.669268052903135e-09 -5.573288497373596e-09 -0.00021359937090892345" pbc="T T T"
Ga       1.98583567       1.40419760       3.43956790       0.00000075       0.00000044       0.00000044
Ga       5.95750661       4.21259313      10.31870344       0.00000019       0.00000021       0.00000110
P       -0.00000002       0.00000000      -0.00000004      -0.00000100       0.00000020      -0.00000765
Cl       1.82092608       1.28758921       6.87913580       0.00340082       0.00240539      -0.00000060
Cl       6.12241568       4.32920122       6.87913563      -0.00340085      -0.00240526      -0.00000110
Cl       5.04704317       1.28758900       5.01653637      -0.00170054       0.00240426       0.00294319
Cl       2.89629889       4.32920110       8.74173488       0.00169705      -0.00240231      -0.00293934
Cl       2.89629852       4.32920132       5.01653609       0.00170034      -0.00240403       0.00294237
Cl       5.04704302       1.28758962       8.74173482      -0.00169677       0.00240121      -0.00293827
