9
Lattice="5.766759112022113 4.310426985516129e-08 3.329439810250421 1.9222530369955906 5.436952666815871 3.3294398812371724 -7.783068078408823e-08 3.1906043731730017e-08 6.658879755307557" Properties=species:S:1:pos:R:3:forces:R:3 energy=-33.06517791748047 free_energy=-33.06517791748047 stress="6.372193456627429e-05 2.151758060620068e-08 -1.9061092260130863e-08 2.151758060620068e-08 6.369579205056652e-05 2.8333337454000684e-08 -1.9061092260130863e-08 2.8333337454000684e-08 6.367134483298287e-05" pbc="T T T"
Ga       1.92225303       1.35923838       3.32943986      -0.00000061       0.00000081       0.00000026
Ga       5.76675902       4.07771437       9.98831958      -0.00000026      -0.00000016      -0.00000036
Pt      -0.00000018      -0.00000008      -0.00000026       0.00000203       0.00000017       0.00000528
Se       1.99562641       1.41112113       6.65887967       0.00095737       0.00067741      -0.00000034
Se       5.69338574       4.02583171       6.65887980      -0.00095837      -0.00067800       0.00000038
Se       4.76894600       1.41112102       5.05770299      -0.00047884       0.00067746       0.00082959
Se       2.92006616       4.02583193       8.26005673       0.00048034      -0.00067947      -0.00083092
Se       2.92006613       4.02583184       5.05770269       0.00047939      -0.00067925       0.00083024
Se       4.76894599       1.41112070       8.26005668      -0.00048106       0.00068106      -0.00083404
