9
Lattice="4.625478943804981 6.689699143587138e-08 2.6705214024442583 1.5418263691583998 4.360943485631507 2.670521417191536 -4.311906995081626e-08 -1.2428130958438e-08 5.341042879572917" Properties=species:S:1:pos:R:3:forces:R:3 energy=-41.83958435058594 free_energy=-41.83958435058594 stress="1.1047115549445152e-05 -7.467703255770175e-08 -7.801881451996451e-08 -7.467703255770175e-08 1.09324864752125e-05 -2.6716236334323185e-08 -7.801881451996451e-08 -2.6716236334323185e-08 1.0997239769494627e-05" pbc="T T T"
Ga       1.54183078       1.09023696       2.67052190       0.00006021       0.00001598       0.00001050
Ga       4.62548024       3.27070834       8.01156129       0.00001644       0.00000976      -0.00004211
Pt      -0.00000012      -0.00000009       0.00000000       0.00002978       0.00001035      -0.00000102
O        1.54290222       1.09099696       5.34104283      -0.00066036      -0.00046393      -0.00000140
O        4.62440280       3.26994696       5.34104388       0.00062528       0.00044930       0.00001626
O        3.85402533       1.09099658       4.00671306       0.00029089      -0.00046311      -0.00056627
O        2.31327835       3.26994610       6.67537275      -0.00031751       0.00045103       0.00057516
O        2.31327527       3.26994619       4.00671481      -0.00034672       0.00044738      -0.00055560
O        3.85402621       1.09099592       6.67537224       0.00030230      -0.00045653       0.00056425
