9
Lattice="6.253230992810875 -9.033080608829277e-08 3.6103046200294995 2.0844102871980206 5.895602648327075 3.610304548277928 -8.25387006288097e-09 -9.37137156363149e-08 7.220609254355134" Properties=species:S:1:pos:R:3:forces:R:3 energy=-28.905012130737305 free_energy=-28.905012130737305 stress="8.629910735180601e-05 -2.3017181494111583e-09 6.56380239050236e-09 -2.3017181494111583e-09 8.62866872921586e-05 -2.5370654910261692e-08 6.56380239050236e-09 -2.5370654910261692e-08 8.630150114186108e-05" pbc="T T T"
Ga       2.08441038       1.47390068       3.61030473      -0.00000001       0.00000028       0.00000023
Ga       6.25323104       4.42170196      10.83091366       0.00000001       0.00000010      -0.00000019
Ru      -0.00000018      -0.00000003      -0.00000009       0.00000021       0.00000165       0.00000260
Br       2.02943850       1.43502947       7.22060923      -0.00160152      -0.00113183       0.00000061
Br       6.30820285       4.46057283       7.22060928       0.00160015       0.00113199      -0.00000009
Br       5.23851178       1.43502951       5.36784986       0.00080105      -0.00113256      -0.00138727
Br       3.09912940       4.46057312       9.07336866      -0.00079878       0.00112920       0.00138332
Br       3.09912947       4.46057293       5.36784989      -0.00080145       0.00113328      -0.00138674
Br       5.23851182       1.43502934       9.07336855       0.00080036      -0.00113218       0.00138756
