9
Lattice="6.22400181951689 -1.1720269837533886e-07 3.593429148893712 2.0746672215604467 5.868045092618628 3.5934290468968606 6.62844541673671e-08 -7.804993076579351e-08 7.1868581829793605" Properties=species:S:1:pos:R:3:forces:R:3 energy=-27.440488815307617 free_energy=-27.440488815307617 stress="7.72846324252896e-05 -2.155221245914163e-08 9.401853517942982e-09 -2.155221245914163e-08 7.730164361419156e-05 -1.2871954169213495e-08 9.401853517942982e-09 -1.2871954169213495e-08 7.731572259217501e-05" pbc="T T T"
Ga       2.07466733       1.46701122       3.59342908      -0.00000007       0.00000007      -0.00000001
Ga       6.22400170       4.40103360      10.78028726       0.00000010      -0.00000031      -0.00000000
Rh       0.00000010      -0.00000005       0.00000003       0.00000257      -0.00000196       0.00000153
Br       2.02626071       1.43278244       7.18685818      -0.00134186      -0.00094898      -0.00000012
Br       6.27240845       4.43526251       7.18685817       0.00134090       0.00094820       0.00000003
Br       5.21087150       1.43278265       5.34822240       0.00067089      -0.00094865      -0.00116245
Br       3.08779760       4.43526241       9.02549388      -0.00067152       0.00094980       0.00116386
Br       3.08779765       4.43526226       5.34822255      -0.00067254       0.00095115      -0.00116570
Br       5.21087147       1.43278252       9.02549402       0.00067144      -0.00094935       0.00116293
