9
Lattice="6.23339882751939 -4.650333637673571e-08 3.598854507165294 2.0777995486828718 5.876904800028099 3.5988545359978654 -2.471265652078952e-08 1.7838110917430153e-08 7.197709057134151" Properties=species:S:1:pos:R:3:forces:R:3 energy=-36.483943939208984 free_energy=-36.483943939208984 stress="0.00015363686543423682 -1.8527252620970103e-08 -1.381329983729529e-08 -1.8527252620970103e-08 0.00015366515435744077 2.8050768818843608e-08 -1.381329983729529e-08 2.8050768818843608e-08 0.00015367129526566714" pbc="T T T"
Ga       2.07779973       1.46922600       3.59885450       0.00000015      -0.00000054       0.00000008
Ga       6.23339866       4.40767867      10.79656357      -0.00000048       0.00000006      -0.00000049
Re      -0.00000015       0.00000030       0.00000008       0.00000100      -0.00000547      -0.00000324
Te       2.16201949       1.52877867       7.19770909      -0.00652629      -0.00461540       0.00000008
Te       6.14917852       4.34812610       7.19770903       0.00652941       0.00461650      -0.00000023
Te       5.15238904       1.52877882       5.47121852       0.00326382      -0.00461597      -0.00565283
Te       3.15880968       4.34812581       8.92419922      -0.00326712       0.00461992       0.00565828
Te       3.15880949       4.34812583       5.47121876      -0.00326435       0.00461639      -0.00565447
Te       5.15238892       1.52877889       8.92419959       0.00326391      -0.00461553       0.00565299
