9
Lattice="5.938347754149239 -1.2647463148974736e-08 3.4285065854597887 1.9794493022599153 5.598727697203503 3.4285064766853033 1.0633205028206746e-07 -5.8032858225906925e-08 6.8570129867470095" Properties=species:S:1:pos:R:3:forces:R:3 energy=-31.599327087402344 free_energy=-31.599327087402344 stress="3.797848694375716e-05 -1.0870240707561152e-08 3.247514612780833e-08 -1.0870240707561152e-08 3.795063457801007e-05 -9.544483425827366e-09 3.247514612780833e-08 -9.544483425827366e-09 3.7959620385663584e-05" pbc="T T T"
Ga       1.97944918       1.39968211       3.42850665      -0.00000020      -0.00000004      -0.00000014
Ga       5.93834780       4.19904575      10.28551956       0.00000013      -0.00000002       0.00000044
Ru      -0.00000003      -0.00000004      -0.00000007       0.00000018       0.00000015      -0.00000011
Cl       1.90330239       1.34583791       6.85701301       0.00291464       0.00206080      -0.00000101
Cl       6.01449474       4.25288977       6.85701296      -0.00291604      -0.00206077      -0.00000018
Cl       4.98669657       1.34583787       5.07681479      -0.00145762       0.00206137       0.00252458
Cl       2.93110058       4.25288951       8.63721132       0.00145754      -0.00206017      -0.00252438
Cl       2.93110062       4.25288971       5.07681452       0.00145674      -0.00206074       0.00252303
Cl       4.98669679       1.34583793       8.63721121      -0.00145566       0.00205949      -0.00252205
