9
Lattice="5.042236491718327 2.5367158226543894e-07 2.911136976823751 1.6807457078271102 4.753867261162598 2.9111370263192184 1.7569583547832085e-07 1.84855012903416e-07 5.822273649333375" Properties=species:S:1:pos:R:3:forces:R:3 energy=-41.300296783447266 free_energy=-41.300296783447266 stress="-0.0002124140883097425 2.2737488336588285e-08 -2.0732619177010747e-08 2.2737488336588285e-08 -0.00021229030971881002 -9.886042207085666e-09 -2.0732619177010747e-08 -9.886042207085666e-09 -0.00021229246340226382" pbc="T T T"
Ga       1.68074530       1.18846716       2.91113666      -0.00000033       0.00000151      -0.00000050
Ga       5.04223760       3.56540001       8.73341123       0.00000057      -0.00000107       0.00000034
Ru      -0.00000005       0.00000004      -0.00000015       0.00000455       0.00000430      -0.00000382
F        1.59683080       1.12913138       5.82227380       0.00232977       0.00164709       0.00000030
F        5.12615187       3.62473646       5.82227379      -0.00233601      -0.00165039       0.00000045
F        4.24382119       1.12913093       4.29403317      -0.00116595       0.00164808       0.00201981
F        2.47916083       3.62473651       7.35051428       0.00116629      -0.00164754      -0.00201948
F        2.47916110       3.62473684       4.29403315       0.00116754      -0.00165037       0.00202284
F        4.24382091       1.12913095       7.35051447      -0.00116650       0.00164837      -0.00202003
