9
Lattice="6.596521023547089 5.244579416542813e-08 3.808503168318484 2.1988403683794298 6.219259910531304 3.80850320685539 -3.557107746129082e-08 2.2045323135615527e-08 7.617006398247873" Properties=species:S:1:pos:R:3:forces:R:3 energy=-25.5847110748291 free_energy=-25.5847110748291 stress="0.00022080799681134522 8.429142717147897e-09 -1.770824042957031e-09 8.429142717147897e-09 0.00022080325288698077 1.7667551865940823e-09 -1.770824042957031e-09 1.7667551865940823e-09 0.00022080462076701224" pbc="T T T"
Ga       2.19884037       1.55481497       3.80850319       0.00000019      -0.00000013      -0.00000000
Ga       6.59652100       4.66444510      11.42550959      -0.00000034       0.00000037      -0.00000010
Ru       0.00000005       0.00000020       0.00000009       0.00000092       0.00000020      -0.00000041
I        2.19616618       1.55292393       7.61700642       0.00062403       0.00044174       0.00000000
I        6.59919530       4.66633602       7.61700644      -0.00062568      -0.00044242      -0.00000013
I        5.49843792       1.55292385       5.71043888      -0.00031295       0.00044335       0.00054234
I        3.29692344       4.66633589       9.52357385       0.00031337      -0.00044303      -0.00054208
I        3.29692335       4.66633598       5.71043886       0.00031302      -0.00044268       0.00054177
I        5.49843781       1.55292400       9.52357377      -0.00031256       0.00044254      -0.00054135
