9
Lattice="5.737459606122073 2.29492331771184e-08 3.3125239177093038 1.9124865601117031 5.4093287955169975 3.312523912338315 3.675331453380392e-08 1.9410468085001176e-08 6.625047771760036" Properties=species:S:1:pos:R:3:forces:R:3 energy=-36.15005111694336 free_energy=-36.15005111694336 stress="6.0374488384695724e-05 9.294149450056466e-09 -1.4707185691520408e-08 9.294149450056466e-09 6.035745900589973e-05 1.5202717307261082e-08 -1.4707185691520408e-08 1.5202717307261082e-08 6.036909326212481e-05" pbc="T T T"
Ga       1.91248655       1.35233195       3.31252394       0.00000037      -0.00000077      -0.00000009
Ga       5.73745959       4.05699703       9.93757167       0.00000019       0.00000045      -0.00000016
Ru       0.00000039      -0.00000048       0.00000002      -0.00000056       0.00000069       0.00000005
Se       1.99317631       1.40938816       6.62504783       0.00013879       0.00009813      -0.00000001
Se       5.65676990       3.99994066       6.62504779      -0.00013968      -0.00009810      -0.00000015
Se       4.74087128       1.40938830       5.03866509      -0.00006884       0.00009799       0.00011958
Se       2.90907476       3.99994062       8.21143039       0.00007007      -0.00009876      -0.00012116
Se       2.90907444       3.99994080       5.03866529       0.00007004      -0.00009885       0.00012265
Se       4.74087159       1.40938832       8.21143045      -0.00007020       0.00009920      -0.00012091
