9
Lattice="6.5897090676670524 1.892332906504998e-08 3.8045703648381517 2.196569713071195 6.21283730728473 3.804570354432464 2.1451893607401948e-08 2.4244469514534818e-09 7.609140692520538" Properties=species:S:1:pos:R:3:forces:R:3 energy=-24.754484176635742 free_energy=-24.754484176635742 stress="0.00011421078670537099 -6.00078742252208e-09 3.0372298009950782e-09 -6.00078742252208e-09 0.00011421708040870726 -5.896481525269337e-09 3.0372298009950782e-09 -5.896481525269337e-09 0.00011421816452639177" pbc="T T T"
Ga       2.19656969       1.55320933       3.80457032      -0.00000024      -0.00000017      -0.00000008
Ga       6.58970913       4.65962801      11.41371115       0.00000032       0.00000019       0.00000018
Rh      -0.00000008       0.00000003      -0.00000017      -0.00000019       0.00000016       0.00000025
I        2.18649057       1.54608235       7.60914066       0.00008401       0.00005932       0.00000011
I        6.59978837       4.66675513       7.60914065      -0.00008446      -0.00005953       0.00000025
I        5.49646379       1.54608226       5.69812680      -0.00004165       0.00005887       0.00007272
I        3.28981483       4.66675513       9.52015466       0.00004227      -0.00005943      -0.00007318
I        3.28981500       4.66675492       5.69812685       0.00004183      -0.00005888       0.00007250
I        5.49646392       1.54608214       9.52015472      -0.00004184       0.00005949      -0.00007280
