9
Lattice="5.738142951836605 -9.650552016150861e-09 3.3129183700306095 1.9127143078193967 5.409973096232586 3.3129183706556455 -1.3351500471496806e-10 6.711060037099984e-10 6.625836740292453" Properties=species:S:1:pos:R:3:forces:R:3 energy=-34.32563781738281 free_energy=-34.32563781738281 stress="2.276081886520842e-06 1.7878578617569474e-08 -4.264509190221588e-09 1.7878578617569474e-08 2.2665296910417965e-06 -8.429675624199717e-09 -4.264509190221588e-09 -8.429675624199717e-09 2.2321439701045165e-06" pbc="T T T"
Ga       1.91271420       1.35249316       3.31291825      -0.00000036       0.00000014      -0.00000051
Ga       5.73814303       4.05748010       9.93875486      -0.00000036       0.00000014       0.00000013
Rh      -0.00000035      -0.00000021      -0.00000081       0.00000455       0.00000262       0.00001294
Se       1.99835453       1.41304978       6.62583678       0.00031918       0.00022526      -0.00000036
Se       5.65250304       3.99692328       6.62583659      -0.00032234      -0.00022785      -0.00000106
Se       4.73896585       1.41304965       5.04354432      -0.00015973       0.00022501       0.00027628
Se       2.91189126       3.99692340       8.20812975       0.00016236      -0.00023004      -0.00028163
Se       2.91189164       3.99692324       5.04354448       0.00015927      -0.00022517       0.00027525
Se       4.73896585       1.41304992       8.20812975      -0.00016274       0.00023001      -0.00028096
