9
Lattice="4.661860791331729 1.0795899461630775e-07 2.6915264813330095 1.5539537598775268 4.3952441471383 2.691526375708643 1.4320393474469468e-07 -2.8102394717845675e-08 5.383052714629387" Properties=species:S:1:pos:R:3:forces:R:3 energy=-43.432533264160156 free_energy=-43.432533264160156 stress="-4.0477370930602774e-05 5.350592857666925e-08 -1.8501555132388603e-07 5.350592857666925e-08 -4.0235132473753765e-05 -4.621059801479532e-08 -1.8501555132388603e-07 -4.621059801479532e-08 -4.019936022814363e-05" pbc="T T T"
Ga       1.55396720       1.09880715       2.69152581       0.00020208      -0.00005785      -0.00001810
Ga       4.66186150       3.29643184       8.07459067       0.00000275      -0.00002317       0.00017408
Rh       0.00000047      -0.00000020       0.00000008       0.00000374      -0.00000408       0.00000521
O        1.54512499       1.09257022       5.38305136      -0.00020409      -0.00012869      -0.00000797
O        4.67068498       3.30267968       5.38304723       0.00014728       0.00020385      -0.00007944
O        3.88929666       1.09257123       4.02964259       0.00005911      -0.00010487      -0.00022087
O        2.32651390       3.30267451       6.73645873      -0.00014403       0.00013727       0.00015080
O        2.32651943       3.30267462       4.02964205      -0.00006260       0.00013638      -0.00020534
O        3.88928982       1.09256811       6.73646355      -0.00000373      -0.00015882       0.00020134
