9
Lattice="5.455317116475783 -1.8400254887916036e-08 3.1496289054578703 1.8184390275194633 5.14332242241003 3.149628894992614 1.6440533062590787e-11 -1.2805639359662913e-08 6.299257810887219" Properties=species:S:1:pos:R:3:forces:R:3 energy=-36.292266845703125 free_energy=-36.292266845703125 stress="7.176021608756855e-05 -2.392857645361346e-08 3.293742878440753e-08 -2.392857645361346e-08 7.185310823842883e-05 -3.300806028505576e-08 3.293742878440753e-08 -3.300806028505576e-08 7.189293683040887e-05" pbc="T T T"
Ga       1.81843913       1.28583023       3.14962893      -0.00000038      -0.00000021      -0.00000041
Ga       5.45531737       3.85749176       9.44888637       0.00000168      -0.00000036      -0.00000245
Rh      -0.00000000       0.00000011      -0.00000011      -0.00000012      -0.00000015       0.00000011
S        1.86681990       1.32004114       6.29925758      -0.00016505      -0.00011635       0.00000063
S        5.40693609       3.82328127       6.29925775       0.00016457       0.00011712       0.00000117
S        4.52190706       1.32004121       4.76634266       0.00008291      -0.00011826      -0.00014341
S        2.75184891       3.82328154       7.83217315      -0.00008205       0.00011677       0.00014287
S        2.75184902       3.82328106       4.76634298      -0.00008544       0.00011986      -0.00014502
S        4.52190707       1.32004137       7.83217308       0.00008428      -0.00011867       0.00014633
