9
Lattice="5.817947551506625 -2.821911670920394e-08 3.358993750136194 1.9393158538322968 5.485213461785648 3.3589936982867292 6.563034347329476e-08 -1.7094678064827516e-08 6.717987386597233" Properties=species:S:1:pos:R:3:forces:R:3 energy=-39.65052032470703 free_energy=-39.65052032470703 stress="8.556084503652528e-05 -1.2720181352676718e-08 2.0518016174975173e-09 -1.2720181352676718e-08 8.559069829061627e-05 3.993205766050778e-09 2.0518016174975173e-09 3.993205766050778e-09 8.5589534137398e-05" pbc="T T T"
Ga       1.93931597       1.37130344       3.35899357       0.00000005       0.00000036      -0.00000003
Ga       5.81794751       4.11391004      10.07698091      -0.00000021       0.00000001      -0.00000092
Re       0.00000004      -0.00000018       0.00000012      -0.00000139      -0.00000002       0.00000059
Se       1.99189837       1.40848478       6.71798743       0.00096461       0.00068170       0.00000008
Se       5.76536487       4.07672853       6.71798740      -0.00096306      -0.00068116       0.00000001
Se       4.82199827       1.40848497       5.08402856      -0.00048114       0.00068000       0.00083369
Se       2.93526512       4.07672834       8.35194648       0.00048140      -0.00068110      -0.00083348
Se       2.93526507       4.07672850       5.08402858       0.00048131      -0.00068060       0.00083420
Se       4.82199853       1.40848509       8.35194652      -0.00048152       0.00068086      -0.00083417
