9
Lattice="4.887011073073721 5.541224712764549e-08 2.821516523852011 1.6290037810520757 4.607518027155281 2.821516458407649 1.840937561068074e-07 5.0021289552197664e-08 5.643032728844256" Properties=species:S:1:pos:R:3:forces:R:3 energy=-39.039939880371094 free_energy=-39.039939880371094 stress="-0.0004703743034042418 2.731549031409486e-08 1.4599561559691665e-08 2.731549031409486e-08 -0.0004704143211711198 -3.302583806430448e-08 1.4599561559691665e-08 -3.302583806430448e-08 -0.0004704122547991574" pbc="T T T"
Ga       1.62900435       1.15187953       2.82151648       0.00000241       0.00000047      -0.00000078
Ga       4.88701071       3.45563839       8.46454936      -0.00000200       0.00000016       0.00000034
Rh       0.00000020       0.00000016      -0.00000017      -0.00000101      -0.00000609      -0.00000091
F        1.59870325       1.13045346       5.64303290      -0.00267711      -0.00189205      -0.00000091
F        4.91731202       3.47706492       5.64303280       0.00267724       0.00189392       0.00000007
F        4.08765928       1.13045386       4.20603319       0.00133714      -0.00189008      -0.00231695
F        2.42835553       3.47706437       7.08003230      -0.00133714       0.00189249       0.00231745
F        2.42835549       3.47706433       4.20603329      -0.00133819       0.00189324      -0.00231825
F        4.08765953       1.13045356       7.08003209       0.00133871      -0.00189214       0.00232009
