9
Lattice="5.432560706384414 3.522206237035712e-08 3.1364902823003646 1.8108536512998599 5.121867213734315 3.136490196914875 1.3796442462749215e-07 -7.019917571560136e-09 6.272980325639426" Properties=species:S:1:pos:R:3:forces:R:3 energy=-38.02900314331055 free_energy=-38.02900314331055 stress="0.00020297541050240397 8.969649023526927e-09 5.839946304320165e-09 8.969649023526927e-09 0.00020296240109018981 -1.6094956478696076e-08 5.839946304320165e-09 -1.6094956478696076e-08 0.000202939918381162" pbc="T T T"
Ga       1.81085372       1.28046693       3.13649025      -0.00000007       0.00000169      -0.00000008
Ga       5.43256075       3.84140132       9.40946975       0.00000032       0.00000298      -0.00000368
Ru       0.00000034       0.00000025      -0.00000019       0.00000201       0.00000312      -0.00000178
S        1.87224102       1.32387449       6.27298050      -0.00405008      -0.00286365       0.00000130
S        5.37117315       3.79799268       6.27298104       0.00404763       0.00286192       0.00000192
S        4.49644017       1.32387382       4.75789862       0.00202364      -0.00286424      -0.00350422
S        2.74697446       3.79799320       7.78806268      -0.00202331       0.00286204       0.00350618
S        2.74697413       3.79799220       4.75789845      -0.00202507       0.00286114      -0.00350636
S        4.49644032       1.32387403       7.78806229       0.00202453      -0.00286490       0.00350720
