9
Lattice="4.798902471115557 2.2392096472687437e-07 2.770648020124094 1.5996343761764267 4.524448920659647 2.77064800622754 2.085953836772861e-07 1.3047944512082905e-07 5.541295678950445" Properties=species:S:1:pos:R:3:forces:R:3 energy=-48.155609130859375 free_energy=-48.155609130859375 stress="-3.240056457798346e-06 -8.647180038678925e-08 6.39179802419676e-08 -8.647180038678925e-08 -3.2374512102251174e-06 1.073784474669992e-07 6.39179802419676e-08 1.073784474669992e-07 -3.342534455441637e-06" pbc="T T T"
Ga       1.59962790       1.13112282       2.77064957      -0.00005600       0.00009553       0.00001562
Ga       4.79889163       3.39334159       8.31195568      -0.00010441       0.00004075       0.00010863
Ru      -0.00000010       0.00000000       0.00000046      -0.00000261       0.00000645       0.00000820
O        1.51354972       1.07023674       5.54129306      -0.00001770      -0.00006104      -0.00001686
O        4.88499332       3.45420481       5.54129114       0.00007167      -0.00001642      -0.00004170
O        4.04213251       1.07024103       4.08141791       0.00005177      -0.00002295      -0.00004134
O        2.35640961       3.45420700       7.00117490      -0.00000595       0.00000444       0.00004181
O        2.35641403       3.45420688       4.08141331       0.00002991       0.00000519      -0.00008050
O        4.04212963       1.07023655       7.00117126       0.00003318      -0.00005239       0.00000641
