9
Lattice="5.884005454889573 1.2220681162811923e-08 3.3971320523600985 1.9613351585318493 5.5474934662724555 3.3971320603618356 -2.2745896627054276e-08 -6.283790865479441e-09 6.7942641441173075" Properties=species:S:1:pos:R:3:forces:R:3 energy=-30.140804290771484 free_energy=-30.140804290771484 stress="2.9176193493185565e-05 -3.7556686649509174e-09 2.419997002789387e-08 -3.7556686649509174e-09 2.9182954676798545e-05 8.246994198657376e-09 2.419997002789387e-08 8.246994198657376e-09 2.9182614525780082e-05" pbc="T T T"
Ga       1.96133513       1.38687373       3.39713188      -0.00000009       0.00000024       0.00000025
Ga       5.88400545       4.16061998      10.19139622       0.00000040      -0.00000026      -0.00000009
Sn       0.00000001      -0.00000014       0.00000026      -0.00000057       0.00000021      -0.00000265
Se       2.32648431       1.64507309       6.79426428      -0.00321740      -0.00227536       0.00000062
Se       5.51885635       3.90242063       6.79426434       0.00321808       0.00227542       0.00000230
Se       4.72076323       1.64507301       5.41192636       0.00160905      -0.00227585      -0.00278677
Se       3.12457707       3.90242049       8.17660125      -0.00160928       0.00227401       0.00278641
Se       3.12457736       3.90242014       5.41192678      -0.00160950       0.00227667      -0.00278775
Se       4.72076341       1.64507300       8.17660166       0.00160936      -0.00227503       0.00278759
