9
Lattice="6.482934842592444 -2.2438997544644125e-09 3.74292416317539 2.1609782779010254 6.1121695468214785 3.742924164643355 1.0543028608311178e-08 9.252954109324361e-09 7.485848308089655" Properties=species:S:1:pos:R:3:forces:R:3 energy=-27.726200103759766 free_energy=-27.726200103759766 stress="0.000176832516444847 -1.0084714396896288e-08 -3.2834011065574487e-09 -1.0084714396896288e-08 0.00017682844190858305 4.5695842942894416e-11 -3.2834011065574487e-09 4.5695842942894416e-11 0.00017683538317214698" pbc="T T T"
Ga       2.16097829       1.52804237       3.74292423      -0.00000036      -0.00000033      -0.00000001
Ga       6.48293482       4.58412716      11.22877253       0.00000009      -0.00000028      -0.00000017
Sb       0.00000005      -0.00000006       0.00000018      -0.00000013       0.00000010      -0.00000163
Te       2.40029334       1.69726376       7.48584835       0.00120193       0.00084957       0.00000018
Te       6.24362000       4.41490595       7.48584826      -0.00120124      -0.00084981       0.00000044
Te       5.28278807       1.69726370       5.82163913      -0.00060055       0.00084916       0.00104052
Te       3.36112488       4.41490584       9.15005731       0.00060041      -0.00084870      -0.00103942
Te       3.36112499       4.41490594       5.82163906       0.00060051      -0.00084947       0.00104004
Te       5.28278814       1.69726356       9.15005752      -0.00060061       0.00084981      -0.00103991
