9
Lattice="5.762153033825983 1.539993583928897e-07 3.3267806697450175 1.9207177147830696 5.432610004035887 3.326780857414351 -3.7751364054698855e-08 2.0315280664409447e-07 6.653561404877336" Properties=species:S:1:pos:R:3:forces:R:3 energy=-31.410579681396484 free_energy=-31.410579681396484 stress="-0.00028565223328769207 3.983429408549455e-08 -3.886785293616413e-08 3.983429408549455e-08 -0.0002857208310160786 2.9134092471849726e-08 -3.886785293616413e-08 2.9134092471849726e-08 -0.00028563124942593277" pbc="T T T"
Ga       1.92071819       1.35815336       3.32678120       0.00000198       0.00000366      -0.00000091
Ga       5.76215220       4.07445746       9.98034208      -0.00000220      -0.00000101      -0.00000002
Si       0.00000010      -0.00000056       0.00000072      -0.00000004       0.00000455      -0.00000559
Se       1.95331588       1.38120296       6.65356138       0.00683635       0.00483279       0.00000054
Se       5.72955507       4.05140723       6.65356168      -0.00684048      -0.00483636      -0.00000041
Se       4.78549500       1.38120303       5.01840113      -0.00341897       0.00483587       0.00592202
Se       2.89737516       4.05140747       8.28872158       0.00341945      -0.00483599      -0.00592142
Se       2.89737568       4.05140741       5.01840035       0.00342268      -0.00484006       0.00592677
Se       4.78549555       1.38120310       8.28872158      -0.00341876       0.00483650      -0.00592101
