9
Lattice="6.456573535477329 2.1831193599558035e-10 3.727704339521699 2.1521911962420868 6.0873157538271 3.7277043091349444 1.1403335063942595e-08 -2.915264883288441e-08 7.455408659292249" Properties=species:S:1:pos:R:3:forces:R:3 energy=-27.84865951538086 free_energy=-27.84865951538086 stress="6.457648851210251e-05 -9.119942301349937e-11 -4.945622134044925e-09 -9.119942301349937e-11 6.457215204136446e-05 5.374114486755843e-09 -4.945622134044925e-09 5.374114486755843e-09 6.456889241235331e-05" pbc="T T T"
Ga       2.15219109       1.52182891       3.72770436       0.00000007       0.00000011       0.00000007
Ga       6.45657362       4.56548679      11.18311295       0.00000002       0.00000033       0.00000035
Sn       0.00000007       0.00000005       0.00000008      -0.00000000      -0.00000045      -0.00000060
Te       2.38080006       1.68347984       7.45540863       0.00102338       0.00072388       0.00000029
Te       6.22796454       4.40383579       7.45540866      -0.00102258      -0.00072317      -0.00000017
Te       5.26617356       1.68347979       5.78953755      -0.00051150       0.00072321       0.00088626
Te       3.34259123       4.40383599       9.12127964       0.00051113      -0.00072362      -0.00088575
Te       3.34259118       4.40383592       5.78953756       0.00051133      -0.00072379       0.00088595
Te       5.26617364       1.68347985       9.12127976      -0.00051191       0.00072344      -0.00088631
