9
Lattice="6.191214540844887 -6.043045346616095e-08 3.5744993262813987 2.063738138240461 5.837132935914427 3.574499300416285 3.287939468592832e-08 -8.428873431443549e-09 7.148998595613934" Properties=species:S:1:pos:R:3:forces:R:3 energy=-21.43779182434082 free_energy=-21.43779182434082 stress="0.00017641307204030454 -2.5969861816577122e-09 2.2891973039396163e-10 -2.5969861816577122e-09 0.00017641401791479439 1.8199767248816556e-09 2.2891973039396163e-10 1.8199767248816556e-09 0.0001764250046107918" pbc="T T T"
Ga       2.06373821       1.45928340       3.57449929       0.00000012       0.00000004      -0.00000001
Ga       6.19121478       4.37784938      10.72349776       0.00000006      -0.00000013      -0.00000033
S        0.00000013      -0.00000029      -0.00000011      -0.00000038       0.00000204      -0.00000054
Br       2.07876916       1.46991173       7.14899873       0.00120159       0.00084864      -0.00000028
Br       6.17618330       4.36722128       7.14899888      -0.00120052      -0.00084940       0.00000028
Br       5.15183003       1.46991192       5.37476604      -0.00060080       0.00084848       0.00104094
Br       3.10312248       4.36722129       8.92323124       0.00060039      -0.00084953      -0.00103947
Br       3.10312247       4.36722102       5.37476618       0.00060028      -0.00084908       0.00103999
Br       5.15183023       1.46991179       8.92323096      -0.00060078       0.00084897      -0.00104053
