9
Lattice="4.528636779762271 -7.208961028259299e-08 2.6146096386318343 1.5095455270981442 4.269639773565199 2.6146096354954316 -1.0354767855063832e-07 -7.706055115452302e-08 5.229219456613521" Properties=species:S:1:pos:R:3:forces:R:3 energy=-42.622650146484375 free_energy=-42.622650146484375 stress="0.0002886200090870261 -7.880721142328184e-08 1.4641491929978656e-07 -7.880721142328184e-08 0.00028819753788411617 -5.259545332592097e-08 1.4641491929978656e-07 -5.259545332592097e-08 0.0002885374706238508" pbc="T T T"
Ga       1.50954467       1.06741143       2.61460942      -0.00001522       0.00003160      -0.00000574
Ga       4.52863658       3.20222688       7.84382651      -0.00000296      -0.00004937      -0.00004444
Sb       0.00000012       0.00000011       0.00000020      -0.00000367      -0.00000483      -0.00000731
O        1.58093626       1.11789181       5.22921934      -0.00691187      -0.00486720       0.00000003
O        4.45724610       3.15174755       5.22922059       0.00691622       0.00486815       0.00002323
O        3.73816885       1.11789144       3.98374125       0.00345942      -0.00487423      -0.00597733
O        2.30001406       3.15174829       6.47469783      -0.00344801       0.00488073       0.00599086
O        2.30001365       3.15174829       3.98374117      -0.00346047       0.00487638      -0.00598007
O        3.73816855       1.11789262       6.47469858       0.00346646      -0.00486112       0.00600016
