9
Lattice="5.614248152233953 2.352936228437814e-07 3.2413875786028377 1.871416348329735 5.293164199283396 3.2413874474031674 -3.3109591602751135e-08 -1.840980420064953e-07 6.482775214553102" Properties=species:S:1:pos:R:3:forces:R:3 energy=-33.13482666015625 free_energy=-33.13482666015625 stress="-0.00011351866851327941 6.124076890046126e-08 -5.878267117509495e-08 6.124076890046126e-08 -0.00011356272443663329 -7.040240745936899e-08 -5.878267117509495e-08 -7.040240745936899e-08 -0.00011352699220879003" pbc="T T T"
Ga       1.87141421       1.32329035       3.24138905      -0.00001051      -0.00000437       0.00000659
Ga       5.61424794       3.96987333       9.72415831      -0.00000201       0.00000179      -0.00001899
Si       0.00000044      -0.00000002      -0.00000083      -0.00000446      -0.00000274       0.00000678
S        1.84795479       1.30669965       6.48277144       0.00398564       0.00281143      -0.00001110
S        5.63771024       3.98646187       6.48277477      -0.00396997      -0.00281197       0.00000119
S        4.69027285       1.30669991       4.84176327      -0.00198561       0.00280759       0.00345147
S        2.79539427       3.98646426       8.12379021       0.00200039      -0.00281778      -0.00344640
S        2.79539089       3.98646548       4.84176477       0.00197843      -0.00280765       0.00345504
S        4.69027223       1.30670202       8.12378958      -0.00199172       0.00282362      -0.00344449
