9
Lattice="4.518069538581934 1.7397864114755803e-08 2.6085086126340147 1.5060232011569663 4.259676873767755 2.60850860358095 -1.8749845579626124e-08 -2.4345843050891157e-08 5.217017257743699" Properties=species:S:1:pos:R:3:forces:R:3 energy=-40.20453643798828 free_energy=-40.20453643798828 stress="-0.00033708984847180545 1.260443269757161e-07 -4.846424417337403e-08 1.260443269757161e-07 -0.00033709086710587144 8.742801327343841e-08 -4.846424417337403e-08 8.742801327343841e-08 -0.0003372234641574323" pbc="T T T"
Ga       1.50602494       1.06491939       2.60850826       0.00003240       0.00000460      -0.00000405
Ga       4.51807066       3.19475675       7.82552556       0.00001719      -0.00001759      -0.00000472
Sn      -0.00000009       0.00000000       0.00000002      -0.00000420       0.00000130       0.00000316
O        1.62519185       1.14918511       5.21701735       0.00479591       0.00340664       0.00000070
O        4.39890024       3.11049255       5.21701698      -0.00480288      -0.00338739      -0.00000130
O        3.70547287       1.14918439       4.01596623      -0.00240943       0.00339514       0.00415033
O        2.31861896       3.11049210       6.41806817       0.00239357      -0.00340098      -0.00415957
O        2.31861865       3.11049211       4.01596659       0.00239217      -0.00340253       0.00416213
O        3.70547272       1.14918499       6.41806869      -0.00241408       0.00340116      -0.00414717
