9
Lattice="5.8286863865230085 -3.0602628281819263e-08 3.36519368819044 1.9428954629435398 5.49533815827879 3.365193636884248 3.8204020778128096e-08 -3.5822687483639883e-08 6.730387310209608" Properties=species:S:1:pos:R:3:forces:R:3 energy=-30.604440689086914 free_energy=-30.604440689086914 stress="0.00020375516032800078 -3.6424643301558035e-09 5.240156752961411e-09 -3.6424643301558035e-09 0.00020376832981128246 -1.86428006365702e-09 5.240156752961411e-09 -1.86428006365702e-09 0.00020376297470647842" pbc="T T T"
Ga       1.94289536       1.37383452       3.36519370      -0.00000006       0.00000009      -0.00000001
Ga       5.82868667       4.12150361      10.09558089      -0.00000004       0.00000023      -0.00000010
Sb      -0.00000001       0.00000012       0.00000005       0.00000061      -0.00000068       0.00000084
Se       2.30924924       1.63288580       6.73038739      -0.00615853      -0.00435455      -0.00000006
Se       5.46233254       3.86245225       6.73038747       0.00615841       0.00435480       0.00000001
Se       4.67406187       1.63288568       5.36506210       0.00307946      -0.00435507      -0.00533414
Se       3.09752006       3.86245226       8.09571238      -0.00307930       0.00435475       0.00533350
Se       3.09752000       3.86245239       5.36506210      -0.00307970       0.00435488      -0.00533363
Se       4.67406183       1.63288572       8.09571251       0.00307918      -0.00435448       0.00533359
