9
Lattice="6.251266892898513 1.2700521854432156e-08 3.6091707004922973 2.083755634272971 5.893751122585841 3.6091707155046744 -1.5465236462523743e-08 7.450713001689953e-09 7.218341427771202" Properties=species:S:1:pos:R:3:forces:R:3 energy=-28.617029190063477 free_energy=-28.617029190063477 stress="6.148804823169485e-05 5.567525107608162e-09 5.483293263885969e-10 5.567525107608162e-09 6.14704767940566e-05 -4.826500088483954e-09 5.483293263885969e-10 -4.826500088483954e-09 6.147784733911976e-05" pbc="T T T"
Ga       2.08375570       1.47343780       3.60917075       0.00000014       0.00000016       0.00000006
Ga       6.25126684       4.42031330      10.82751211      -0.00000016      -0.00000011      -0.00000023
Si       0.00000004       0.00000008       0.00000030      -0.00000067      -0.00000034       0.00000020
Te       2.16957808       1.53412343       7.21834142       0.00027000       0.00019099      -0.00000021
Te       6.16544438       4.35962761       7.21834143      -0.00026922      -0.00019067      -0.00000005
Te       5.16647790       1.53412339       5.48808038      -0.00013487       0.00019083       0.00023377
Te       3.16854479       4.35962775       8.94860231       0.00013537      -0.00019125      -0.00023371
Te       3.16854451       4.35962775       5.48808036       0.00013460      -0.00019085       0.00023375
Te       5.16647781       1.53412347       8.94860227      -0.00013518       0.00019122      -0.00023357
