9
Lattice="5.811441883403066 -1.8948774295449576e-08 3.3552374697888623 1.9371473215825015 5.479079814039334 3.3552373918814427 -2.288058996845003e-09 -9.703463440397663e-08 6.71047494354075" Properties=species:S:1:pos:R:3:forces:R:3 energy=-24.511791229248047 free_energy=-24.511791229248047 stress="-4.8356330808019266e-05 8.72022953846141e-10 5.079288101228485e-09 8.72022953846141e-10 -4.836680454900488e-05 5.012741333132453e-10 5.079288101228485e-09 5.012741333132453e-10 -4.837012602365576e-05" pbc="T T T"
Ga       1.93714767       1.36977001       3.35523757       0.00000024       0.00000043      -0.00000003
Ga       5.81144201       4.10930983      10.06571251      -0.00000019       0.00000004       0.00000049
S       -0.00000001      -0.00000010       0.00000023      -0.00000127      -0.00000076      -0.00000170
Cl       1.90291826       1.34556602       6.71047495      -0.00074156      -0.00052416       0.00000054
Cl       5.84567108       4.13351365       6.71047457       0.00074123       0.00052360      -0.00000050
Cl       4.85998265       1.34556624       5.00321270       0.00037055      -0.00052297      -0.00064182
Cl       2.88860625       4.13351334       8.41773707      -0.00036999       0.00052421       0.00064106
Cl       2.88860623       4.13351358       5.00321262      -0.00036979       0.00052287      -0.00064056
Cl       4.85998260       1.34556623       8.41773694       0.00037085      -0.00052319       0.00064247
