9
Lattice="5.82803130203744 -7.955915602808327e-08 3.3648155351432503 1.9426771266389078 5.494720507142111 3.3648153602600313 2.271157006356861e-07 -5.359227079523758e-08 6.729630676910576" Properties=species:S:1:pos:R:3:forces:R:3 energy=-30.77936553955078 free_energy=-30.77936553955078 stress="0.000106966654129792 -2.5248503288111124e-09 -1.2560575690656606e-08 -2.5248503288111124e-09 0.00010698128608055413 -3.596856146259597e-08 -1.2560575690656606e-08 -3.596856146259597e-08 0.00010698763799155131" pbc="T T T"
Ga       1.94267704       1.37368027       3.36481500       0.00000024      -0.00000008      -0.00000152
Ga       5.82803117       4.12104000      10.09444432      -0.00000193      -0.00000107      -0.00000593
Sn      -0.00000005      -0.00000007       0.00000017      -0.00000117       0.00000369       0.00000062
S        2.04912996       1.44895250       6.72963121      -0.00051823      -0.00036693       0.00000267
S        5.72157898       4.04576771       6.72963189       0.00051618       0.00036818       0.00000536
S        4.80346662       1.44895329       5.13941403       0.00026061      -0.00036761      -0.00045028
S        2.96724172       4.04576797       8.31984808      -0.00025676       0.00036561       0.00044620
S        2.96724168       4.04576647       5.13941312      -0.00026008       0.00036314      -0.00044930
S        4.80346744       1.44895349       8.31984847       0.00026129      -0.00036493       0.00045210
