9
Lattice="4.903210973651413 8.758725321024542e-07 2.830871256875063 1.6344038755644215 4.6227960564603565 2.8308723101350335 -1.2958865770024484e-06 3.73644562742733e-07 5.661744758291481" Properties=species:S:1:pos:R:3:forces:R:3 energy=-35.15007781982422 free_energy=-35.15007781982422 stress="0.0005043622222729027 6.761164428326083e-08 -4.937248476721834e-08 6.761164428326083e-08 0.0005043967976234853 1.3961475309187676e-09 -4.937248476721834e-08 1.3961475309187676e-09 0.0005045513971708715" pbc="T T T"
Ga       1.63440204       1.15569605       2.83087319       0.00000034       0.00000228      -0.00000138
Ga       4.90321038       3.46710004       8.49261504       0.00000005      -0.00000257       0.00000185
S        0.00000008       0.00000039       0.00000034       0.00000407      -0.00000135      -0.00000590
F        1.55799256       1.10167043       5.66174413      -0.00469255      -0.00332083       0.00000126
F        4.97962052       3.52112793       5.66174431       0.00469151       0.00331867       0.00000079
F        4.12421423       1.10166845       4.18013594       0.00234397      -0.00331624      -0.00406411
F        2.41339983       3.52112934       7.14335273      -0.00234607       0.00331855       0.00406632
F        2.41340047       3.52112834       4.18013652      -0.00234522       0.00331844      -0.00406450
F        4.12421346       1.10166917       7.14335210       0.00234382      -0.00331692       0.00406554
