9
Lattice="5.848150526907856 -1.2927912742680594e-07 3.3764311782238843 1.9493834553708007 5.513688506944804 3.3764310599472402 -3.64826983741885e-08 -1.7065587578930798e-07 6.7528624196376486" Properties=species:S:1:pos:R:3:forces:R:3 energy=-30.935964584350586 free_energy=-30.935964584350586 stress="-2.030175346590113e-05 1.6154752202623968e-08 4.456060054280897e-08 1.6154752202623968e-08 -2.029644929280039e-05 -5.423290616590748e-08 4.456060054280897e-08 -5.423290616590748e-08 -2.0313143977546133e-05" pbc="T T T"
Ga       1.94938366       1.37842289       3.37643097      -0.00000040       0.00000235      -0.00000071
Ga       5.84814930       4.13526560      10.12929421      -0.00000275      -0.00000127       0.00000302
Sb      -0.00000009      -0.00000012       0.00000007      -0.00000053       0.00000360      -0.00000045
S        1.98797632       1.40571279       6.75286183       0.00137663       0.00097647      -0.00000108
S        5.80955708       4.10797633       6.75286092      -0.00137985      -0.00097436      -0.00000344
S        4.85416294       1.40571117       5.09807052      -0.00068834       0.00097540       0.00119728
S        2.94337229       4.10797630       8.40765570       0.00069314      -0.00097847      -0.00119549
S        2.94337257       4.10797585       5.09806927       0.00069082      -0.00097591       0.00119102
S        4.85416192       1.40571189       8.40765508      -0.00068885       0.00097224      -0.00119025
