9
Lattice="5.779814838279157 8.021690808663178e-08 3.33697763800724 1.926605043783912 5.449261695467492 3.336977599795509 -7.8521402379796e-08 -1.0232274971137468e-07 6.673955412017592" Properties=species:S:1:pos:R:3:forces:R:3 energy=-29.942760467529297 free_energy=-29.942760467529297 stress="0.0001181816915050149 3.819328142640188e-08 2.5377457912867385e-09 3.819328142640188e-08 0.00011818112398032099 7.1647270338814906e-09 2.5377457912867385e-09 7.1647270338814906e-09 0.00011814965546363965" pbc="T T T"
Ga       1.92660441       1.36231610       3.33697809      -0.00000127       0.00000191       0.00000140
Ga       5.77981483       4.08694660      10.01093441      -0.00000110       0.00000125       0.00000543
Se      -0.00000009       0.00000035      -0.00000087       0.00000344      -0.00001059       0.00001510
S        1.84223328       1.30265458       6.67395471       0.00641459       0.00453413      -0.00000109
S        5.86418654       4.14660641       6.67395397      -0.00640786      -0.00453395      -0.00000292
S        4.85869947       1.30265505       4.93239849      -0.00320411       0.00453347       0.00555366
S        2.84772174       4.14660613       8.41551305       0.00320759      -0.00453746      -0.00555420
S        2.84772079       4.14660645       4.93239821       0.00320134      -0.00452924       0.00554651
S        4.85869795       1.30265502       8.41551271      -0.00321278       0.00454080      -0.00556356
