9
Lattice="6.629556227086649 -1.592394138299934e-07 3.827576172384181 2.2098518819498403 6.250405578180978 3.827576247924693 -1.1339578240395232e-08 8.449956305867372e-08 7.655152364409063" Properties=species:S:1:pos:R:3:forces:R:3 energy=-18.824243545532227 free_energy=-18.824243545532227 stress="6.631790165556595e-05 2.9444771953990312e-08 4.945371756548411e-08 2.9444771953990312e-08 6.631599535467103e-05 -5.4694012874278997e-08 4.945371756548411e-08 -5.4694012874278997e-08 6.630302959820256e-05" pbc="T T T"
Ga       2.20985209       1.56260126       3.82757624      -0.00000038      -0.00000008       0.00000015
Ga       6.62955604       4.68780419      11.48272858       0.00000017       0.00000046       0.00000044
S       -0.00000041       0.00000067       0.00000078       0.00000090      -0.00000005      -0.00000174
I        2.34632039       1.65909882       7.65515213       0.00496274       0.00350933       0.00000039
I        6.49308817       4.59130632       7.65515208      -0.00496280      -0.00350939       0.00000001
I        5.45639588       1.65909892       5.85954930      -0.00248159       0.00350934       0.00429878
I        3.38301213       4.59130647       9.45075539       0.00248131      -0.00351104      -0.00429913
I        3.38301225       4.59130644       5.85954931       0.00248154      -0.00350934       0.00429922
I        5.45639586       1.65909893       9.45075539      -0.00248191       0.00351082      -0.00429809
