9
Lattice="4.3941698496201544 -3.4377814797521203e-08 2.5369751373116056 1.4647232429491097 4.14286316766744 2.536975150901109 3.466389316361855e-08 4.115475889223627e-08 5.073950214583563" Properties=species:S:1:pos:R:3:forces:R:3 energy=-41.107261657714844 free_energy=-41.107261657714844 stress="7.600628305226564e-05 -7.606808516413821e-09 1.8123367695466186e-08 -7.606808516413821e-09 7.642098353244364e-05 -1.7852636702286873e-08 1.8123367695466186e-08 -1.7852636702286873e-08 7.632828783243895e-05" pbc="T T T"
Ga       1.46472301       1.03571553       2.53697508      -0.00000585       0.00000133      -0.00000165
Ga       4.39417017       3.10714720       7.61092548       0.00000509      -0.00000358       0.00000348
Se       0.00000001       0.00000013      -0.00000001       0.00000037       0.00000114      -0.00000096
O        1.45019262       1.02544137       5.07395044       0.00254416       0.00180006       0.00000058
O        4.40870047       3.11742212       5.07395020      -0.00254750      -0.00179678      -0.00000146
O        3.66907379       1.02544114       3.79287900      -0.00126851       0.00179851       0.00220394
O        2.18981956       3.11742219       6.35502174       0.00127196      -0.00179774      -0.00220704
O        2.18981949       3.11742184       3.79287870       0.00127143      -0.00179648       0.00220299
O        3.66907354       1.02544117       6.35502150      -0.00127089       0.00179297      -0.00220001
