9
Lattice="6.024863233309114 1.8830695614500565e-07 3.47845623683379 2.008287897668596 5.680295602223056 3.478456278931745 7.364299642371811e-08 1.0363271270763883e-07 6.956912346114168" Properties=species:S:1:pos:R:3:forces:R:3 energy=-38.701416015625 free_energy=-38.701416015625 stress="-0.0003738917293958366 7.170353200081081e-08 1.4292325545284257e-08 7.170353200081081e-08 -0.0003739597159437835 -2.457671399724859e-08 1.4292325545284257e-08 -2.457671399724859e-08 -0.0003739757521543652" pbc="T T T"
Ga       2.00828782       1.42007413       3.47845614      -0.00000007      -0.00000096       0.00000041
Ga       6.02486360       4.26022177      10.43536868       0.00000054       0.00000021       0.00000018
Ta       0.00000026       0.00000020       0.00000004      -0.00000792      -0.00000360       0.00000295
Cl       1.93251971       1.36649784       6.95691225       0.00688577       0.00486878       0.00000072
Cl       6.10063141       4.31379795       6.95691252      -0.00687835      -0.00486356      -0.00000056
Cl       5.05860353       1.36649793       5.15206727      -0.00344464       0.00487167       0.00596601
Cl       2.97454747       4.31379788       8.76175749       0.00344580      -0.00487298      -0.00596839
Cl       2.97454753       4.31379777       5.15206730       0.00344376      -0.00487030       0.00596449
Cl       5.05860361       1.36649801       8.76175775      -0.00344513       0.00487077      -0.00596592
