9
Lattice="5.869592486920232 5.3182044934967004e-08 3.388810683041204 1.9565308456338066 5.533904750011196 3.3888107410304174 5.546223737426625e-09 7.494377527242208e-08 6.777621356476073" Properties=species:S:1:pos:R:3:forces:R:3 energy=-39.771278381347656 free_energy=-39.771278381347656 stress="0.00018329033628106117 4.893480820555851e-08 3.6533339908828566e-08 4.893480820555851e-08 0.00018325686687603593 -4.2040184666802816e-08 3.6533339908828566e-08 -4.2040184666802816e-08 0.00018321823154110461" pbc="T T T"
Ga       1.95653083       1.38347615       3.38881080       0.00000129      -0.00000041      -0.00000063
Ga       5.86959207       4.15042870      10.16643123      -0.00000165       0.00000044      -0.00000245
Ta       0.00000027      -0.00000044      -0.00000169      -0.00000165       0.00001056       0.00002368
Se       2.05845357       1.45554551       6.77762128      -0.00373271      -0.00264048      -0.00000015
Se       5.76767091       4.07835911       6.77762152       0.00372869       0.00263670       0.00000077
Se       4.84036516       1.45554578       5.17148301       0.00186643      -0.00264191      -0.00323439
Se       2.98575682       4.07835981       8.38376150      -0.00185793       0.00262832       0.00321912
Se       2.98575750       4.07835881       5.17148293      -0.00186633       0.00264041      -0.00323351
Se       4.84036609       1.45554603       8.38376078       0.00186392      -0.00263362       0.00322754
