9
Lattice="6.8421391277824855 6.441483402142021e-08 3.9503109395101244 2.280713095026498 6.45083089461596 3.950310953883634 -1.644529992938944e-08 5.975285430006681e-09 7.900621907504376" Properties=species:S:1:pos:R:3:forces:R:3 energy=-30.25403594970703 free_energy=-30.25403594970703 stress="-1.7732410924509168e-05 -4.863128566512387e-09 -3.3859408610226183e-09 -4.863128566512387e-09 -1.7734308130457066e-05 6.7159713346143235e-09 -3.3859408610226183e-09 6.7159713346143235e-09 -1.774429802026134e-05" pbc="T T T"
Ga       2.28071304       1.61270780       3.95031098       0.00000012      -0.00000024       0.00000082
Ga       6.84213914       4.83812319      11.85093290      -0.00000015      -0.00000040      -0.00000114
Ta       0.00000007      -0.00000008      -0.00000001       0.00000012      -0.00000006       0.00000066
I        2.25432569       1.59404887       7.90062175      -0.00022274      -0.00015700       0.00000017
I        6.86852660       4.85678223       7.90062192       0.00022259       0.00015661       0.00000012
I        5.71497622       1.59404889       5.90261402       0.00011153      -0.00015719      -0.00019190
I        3.40787601       4.85678209       9.89862968      -0.00011145       0.00015721       0.00019211
I        3.40787575       4.85678218       5.90261415      -0.00011107       0.00015712      -0.00019166
I        5.71497626       1.59404870       9.89862976       0.00011110      -0.00015606       0.00019075
