9
Lattice="6.368132540672265 -8.485650141722152e-08 3.676643254043082 2.122710776212261 6.003933181491444 3.6766432378917466 4.915923898810435e-09 -1.6305193239777142e-08 7.353286499571514" Properties=species:S:1:pos:R:3:forces:R:3 energy=-34.728694915771484 free_energy=-34.728694915771484 stress="-0.00010366173955844715 -2.983939140221992e-08 1.9508117787836454e-08 -2.983939140221992e-08 -0.00010363561887061223 -2.04711110285416e-08 1.9508117787836454e-08 -2.04711110285416e-08 -0.00010362258763052523" pbc="T T T"
Ga       2.12271078       1.50098330       3.67664318       0.00000021       0.00000005      -0.00000024
Ga       6.36813246       4.50294981      11.02993015      -0.00000016      -0.00000001       0.00000006
Ta       0.00000002       0.00000001      -0.00000011       0.00000070       0.00000312       0.00000224
Br       2.06666084       1.46134994       7.35328628      -0.00711185      -0.00502890       0.00000018
Br       6.42418250       4.54258301       7.35328641       0.00711000       0.00502780       0.00000072
Br       5.33480194       1.46135003       5.46642431       0.00355652      -0.00502998      -0.00616077
Br       3.15604120       4.54258306       9.24014875      -0.00355531       0.00502801       0.00615820
Br       3.15604135       4.54258317       5.46642428      -0.00355758       0.00503117      -0.00616258
Br       5.33480219       1.46134986       9.24014871       0.00355756      -0.00503117       0.00616229
