9
Lattice="5.578318430580606 -2.2642132467865015e-08 3.2206436677884938 1.8594394350572725 5.259288921752656 3.2206437032188653 2.2851294177983432e-08 5.9551474189090974e-08 6.441287295997377" Properties=species:S:1:pos:R:3:forces:R:3 energy=-42.850528717041016 free_energy=-42.850528717041016 stress="1.1778152838815004e-05 1.584220932215885e-08 4.4313395619610674e-08 1.584220932215885e-08 1.181059724331135e-05 -7.2845036669377805e-09 4.4313395619610674e-08 -7.2845036669377805e-09 1.1760461347876117e-05" pbc="T T T"
Ga       1.85943948       1.31482338       3.22064325       0.00000050       0.00000393      -0.00000068
Ga       5.57831873       3.94446592       9.66193104       0.00000124      -0.00000218      -0.00000057
Ta      -0.00000002       0.00000045      -0.00000036       0.00000023      -0.00000198       0.00000412
S        1.94804446       1.37747601       6.44128722      -0.00001121      -0.00000519      -0.00000100
S        5.48971329       3.88181329       6.44128752       0.00001115       0.00000596       0.00000029
S        4.60429643       1.37747525       4.90770007       0.00000656      -0.00000727      -0.00000760
S        2.83346147       3.88181320       7.97487496      -0.00000399       0.00000447       0.00000921
S        2.83346182       3.88181316       4.90770012      -0.00000672       0.00000823      -0.00001127
S        4.60429580       1.37747519       7.97487498       0.00000210      -0.00000596       0.00000736
