9
Lattice="5.212191791727107 -4.3155038997565416e-07 3.0092610806587183 1.7373972332601157 4.914099582381695 3.0092604290253093 3.777411416960814e-07 -5.309813671883651e-07 6.018521507050643" Properties=species:S:1:pos:R:3:forces:R:3 energy=-50.84247589111328 free_energy=-50.84247589111328 stress="-5.1640457968460396e-05 -1.67588147803599e-08 1.3720022451479963e-08 -1.67588147803599e-08 -5.1705857913475484e-05 1.772084523565809e-08 1.3720022451479963e-08 1.772084523565809e-08 -5.16929394507315e-05" pbc="T T T"
Ga       1.73739709       1.22852463       3.00926111      -0.00000047      -0.00000087      -0.00000059
Ga       5.21219240       3.68557394       9.02778223       0.00000007       0.00000077      -0.00000053
Ta      -0.00000005       0.00000021      -0.00000045       0.00000014      -0.00000318       0.00000342
F        1.58208555       1.11870194       6.01852220       0.00162244       0.00114787      -0.00000142
F        5.36750414       3.79539632       6.01852165      -0.00162232      -0.00114685      -0.00000044
F        4.42114918       1.11870208       4.37938677      -0.00081092       0.00114727       0.00140369
F        2.52844038       3.79539619       7.65765615       0.00080991      -0.00114542      -0.00140381
F        2.52843986       3.79539740       4.37938605       0.00081021      -0.00114715       0.00140429
F        4.42114897       1.11870177       7.65765680      -0.00080973       0.00114745      -0.00140393
