9
Lattice="5.887339863058809 4.515983503983375e-09 3.399057271480665 1.962446655917854 5.550637244800738 3.3990572184096424 6.007304805606573e-08 -2.252040979079019e-08 6.798114438911763" Properties=species:S:1:pos:R:3:forces:R:3 energy=-36.1012077331543 free_energy=-36.1012077331543 stress="-1.2586083357746247e-05 2.532093701379523e-10 4.785406559904004e-08 2.532093701379523e-10 -1.2565928955154959e-05 -7.239060551000875e-08 4.785406559904004e-08 -7.239060551000875e-08 -1.2575300388562027e-05" pbc="T T T"
Ga       1.96244660       1.38765945       3.39905682       0.00000040       0.00000001      -0.00000058
Ga       5.88733956       4.16297803      10.19717175      -0.00000061       0.00000082       0.00000056
Ti       0.00000010       0.00000010      -0.00000101      -0.00000019       0.00000136       0.00000967
Se       2.00448476       1.41738456       6.79811447      -0.00171773      -0.00121440      -0.00000070
Se       5.84530181       4.13325286       6.79811432       0.00171700       0.00121453      -0.00000039
Se       4.88509780       1.41738448       5.13499210       0.00085887      -0.00121394      -0.00148600
Se       2.96468900       4.13325259       8.46123753      -0.00085443       0.00120905       0.00148220
Se       2.96468906       4.13325225       5.13499246      -0.00086180       0.00121754      -0.00149222
Se       4.88509767       1.41738463       8.46123711       0.00085844      -0.00121489       0.00148741
