9
Lattice="6.253026961448765 3.571312804231856e-08 3.6101867627595134 2.0843423485316963 5.8954103076415425 3.610186772496924 2.7431005629195404e-09 1.3865476088600281e-08 7.220373520767765" Properties=species:S:1:pos:R:3:forces:R:3 energy=-33.653411865234375 free_energy=-33.653411865234375 stress="5.3308885981095955e-05 1.1170923741588012e-08 3.387929048415117e-09 1.1170923741588012e-08 5.33077800355386e-05 -2.9776694443484075e-09 3.387929048415117e-09 -2.9776694443484075e-09 5.329337727744132e-05" pbc="T T T"
Ga       2.08434246       1.47385264       3.61018671       0.00000025       0.00000004      -0.00000030
Ga       6.25302697       4.42155772      10.83056038      -0.00000012      -0.00000022       0.00000033
Ti      -0.00000017      -0.00000029       0.00000008       0.00000119       0.00000186      -0.00000107
Te       2.20084647       1.55623350       7.22037353      -0.00135950      -0.00096118      -0.00000015
Te       6.13652312       4.33917705       7.22037341       0.00135702       0.00095961      -0.00000010
Te       5.15260389       1.55623328       5.51617542       0.00067897      -0.00095925      -0.00117514
Te       3.18476533       4.33917700       8.92457170      -0.00067868       0.00095990       0.00117510
Te       3.18476535       4.33917732       5.51617534      -0.00067825       0.00095974      -0.00117486
Te       5.15260385       1.55623319       8.92457166       0.00067904      -0.00096051       0.00117622
