9
Lattice="6.329181029413594 4.853172009970675e-08 3.6541543497158577 2.1097270519444202 5.967209023828705 3.654154355979309 -1.3174074514678289e-08 -1.6442781383389051e-09 7.308308722249876" Properties=species:S:1:pos:R:3:forces:R:3 energy=-36.96574401855469 free_energy=-36.96574401855469 stress="5.2414452511584386e-05 4.847976686761513e-09 5.97212557185145e-10 4.847976686761513e-09 5.240612517809495e-05 -8.052818856185695e-09 5.97212557185145e-10 -8.052818856185695e-09 5.240597965894267e-05" pbc="T T T"
Ga       2.10972693       1.49180219       3.65415440      -0.00000031      -0.00000069      -0.00000025
Ga       6.32918104       4.47540680      10.96246291       0.00000027       0.00000001       0.00000058
Ta       0.00000005      -0.00000019      -0.00000003      -0.00000006       0.00000049       0.00000051
Te       2.23429973       1.57988852       7.30830870      -0.00016440      -0.00011620       0.00000050
Te       6.20460850       4.38732078       7.30830873       0.00016388       0.00011566       0.00000023
Te       5.21203119       1.57988831       5.58911475       0.00008315      -0.00011531      -0.00014165
Te       3.22687681       4.38732080       9.02750284      -0.00008133       0.00011460       0.00014035
Te       3.22687679       4.38732065       5.58911464      -0.00008260       0.00011639      -0.00014187
Te       5.21203124       1.57988843       9.02750277       0.00008142      -0.00011498       0.00014155
