9
Lattice="4.565764421686067 1.452903120203691e-07 2.6360455810173966 1.5219216217997602 4.304643671636781 2.636045562097519 3.9558174764910097e-07 2.565465303373719e-07 5.272090476867089" Properties=species:S:1:pos:R:3:forces:R:3 energy=-53.94049072265625 free_energy=-53.94049072265625 stress="1.659683584875893e-05 -8.414485108687586e-08 -9.966702236852143e-07 -8.414485108687586e-08 1.7355603631585836e-05 -7.044753260743164e-07 -9.966702236852143e-07 -7.044753260743164e-07 1.6423568013124168e-05" pbc="T T T"
Ga       1.52192380       1.07615805       2.63604220       0.00004302      -0.00005496      -0.00007034
Ga       4.56577057       3.22848841       7.90815569       0.00011198       0.00010217       0.00037943
Ta       0.00000040       0.00000020       0.00000068       0.00000706       0.00000458       0.00002454
O        1.59678877       1.12909833       5.27209021      -0.00076222      -0.00056088       0.00001285
O        4.49089678       3.17554659       5.27208149       0.00073647       0.00057489      -0.00018227
O        3.76737210       1.12910068       4.01890362       0.00040215      -0.00051719      -0.00068581
O        2.32030855       3.17554285       6.52527377      -0.00051269       0.00052929       0.00059122
O        2.32031770       3.17554638       4.01890396      -0.00033903       0.00057399      -0.00067741
O        3.76736701       1.12909482       6.52527474       0.00031328      -0.00065243       0.00060731
