9
Lattice="4.427598557500323 1.241650189877136e-08 2.5562751597086115 1.475866186110157 4.174379736456095 2.5562751795053775 -2.612845294240087e-08 5.770386999145729e-09 5.11255036467305" Properties=species:S:1:pos:R:3:forces:R:3 energy=-49.279964447021484 free_energy=-49.279964447021484 stress="0.0002838481159415096 3.8780392230819416e-08 8.095902614968509e-08 3.8780392230819416e-08 0.0002842040848918259 3.582033158977538e-08 8.095902614968509e-08 3.582033158977538e-08 0.000283904024399817" pbc="T T T"
Ga       1.47586751       1.04359464       2.55627388       0.00002030      -0.00000163      -0.00002036
Ga       4.42759846       3.13078799       7.66882258       0.00000145       0.00005052      -0.00004480
Ti       0.00000005       0.00000015       0.00000001       0.00000225      -0.00000263       0.00000081
O        1.54040349       1.08922830       5.11255091      -0.00533497      -0.00379580       0.00000968
O        4.36306168       3.08515075       5.11255181       0.00533938       0.00378317       0.00002094
O        3.65739640       1.08922835       3.89030382       0.00266096      -0.00380111      -0.00461936
O        2.24606829       3.08514988       6.33479832      -0.00266489       0.00377196       0.00464362
O        2.24606675       3.08515047       3.89030416      -0.00268242       0.00378519      -0.00461835
O        3.65739626       1.08922843       6.33479742       0.00265789      -0.00379020       0.00462759
