9
Lattice="6.139889720130981 2.4092093367089814e-08 3.544866999285482 2.0466299281940286 5.7887435153742075 3.5448670014169092 -1.3511318557021828e-08 -6.943509505822001e-09 7.089734021973162" Properties=species:S:1:pos:R:3:forces:R:3 energy=-33.67777633666992 free_energy=-33.67777633666992 stress="-6.844578456366435e-05 4.597181302301578e-09 9.657208366320447e-09 4.597181302301578e-09 -6.846127507742494e-05 -1.5991623580902115e-09 9.657208366320447e-09 -1.5991623580902115e-09 -6.845091411378235e-05" pbc="T T T"
Ga       2.04663005       1.44718603       3.54486701      -0.00000008       0.00000018       0.00000032
Ga       6.13988959       4.34155761      10.63460102       0.00000015      -0.00000014      -0.00000018
V       -0.00000062      -0.00000036      -0.00000000       0.00000225       0.00000164      -0.00000118
Te       2.16160513       1.52848570       7.08973403      -0.00264259      -0.00186832      -0.00000004
Te       6.02491508       4.26025832       7.08973404       0.00263902       0.00186577       0.00000014
Te       5.05908722       1.52848542       5.41687164       0.00132040      -0.00186665      -0.00228702
Te       3.12743237       4.26025798       8.76259631      -0.00132044       0.00186803       0.00228717
Te       3.12743240       4.26025810       5.41687163      -0.00131963       0.00186706      -0.00228685
Te       5.05908733       1.52848538       8.76259642       0.00132092      -0.00186756       0.00228768
