9
Lattice="5.510124763037149 -9.748940228001344e-08 3.1812720458081083 1.836708163130231 5.194995351988249 3.1812720445983405 4.310069424596201e-08 2.8995139801928453e-08 6.362544016963616" Properties=species:S:1:pos:R:3:forces:R:3 energy=-39.710052490234375 free_energy=-39.710052490234375 stress="7.102765084709972e-05 -1.967363827404256e-09 -5.352431386995704e-09 -1.967363827404256e-09 7.096841000020504e-05 2.0988943916222524e-08 -5.352431386995704e-09 2.0988943916222524e-08 7.097652269294485e-05" pbc="T T T"
Ga       1.83670829       1.29874828       3.18127224       0.00000037      -0.00000107       0.00000070
Ga       5.51012473       3.89624661       9.54381611       0.00000135       0.00000114       0.00000064
V        0.00000030       0.00000003       0.00000011      -0.00000474      -0.00000001       0.00000574
S        1.81624247       1.28427703       6.36254397       0.00017333       0.00012326       0.00000047
S        5.53059048       3.91071807       6.36254427      -0.00017011      -0.00012025       0.00000031
S        4.60200326       1.28427747       4.75418427      -0.00008449       0.00011873       0.00014448
S        2.74482933       3.91071853       7.97090379       0.00008699      -0.00012356      -0.00015092
S        2.74482933       3.91071836       4.75418407       0.00008577      -0.00012115       0.00014967
S        4.60200363       1.28427673       7.97090374      -0.00008875       0.00012311      -0.00015062
