9
Lattice="4.442381453206038 1.810449933242093e-08 2.5648102083895354 1.4807938119765278 4.188317577800087 2.564810247928634 -3.177485201748089e-08 2.595707643177206e-08 5.129620471814736" Properties=species:S:1:pos:R:3:forces:R:3 energy=-47.92015075683594 free_energy=-47.92015075683594 stress="-1.104758666770067e-05 3.2113018022528195e-08 -2.421462674817576e-08 3.2113018022528195e-08 -1.0986484994646162e-05 6.507234928676553e-08 -2.421462674817576e-08 6.507234928676553e-08 -1.1171959158673417e-05" pbc="T T T"
Ga       1.48079080       1.04708093       2.56481205      -0.00005092       0.00002389       0.00002654
Ga       4.44238114       3.14123470       7.69442441      -0.00000855      -0.00005968      -0.00010010
V       -0.00000002      -0.00000002      -0.00000001      -0.00000255      -0.00000409      -0.00000411
O        1.50341523       1.06307606       5.12962023      -0.00089979      -0.00061792      -0.00000631
O        4.41976066       3.12524135       5.12962316       0.00091457       0.00062197       0.00003928
O        3.69067420       1.06307551       3.86680672       0.00045925      -0.00063181      -0.00076795
O        2.23250282       3.12524285       6.39243520      -0.00042808       0.00064516       0.00079119
O        2.23250048       3.12524170       3.86680671      -0.00046355       0.00062668      -0.00076991
O        3.69067558       1.06307738       6.39243550       0.00047910      -0.00060380       0.00079185
