9
Lattice="5.796394562425016 -1.6622722321704275e-08 3.3465497915787017 1.9321314927081594 5.464893146755336 3.3465498131048377 -4.6322220465696074e-08 -6.390763744750667e-09 6.693099663389882" Properties=species:S:1:pos:R:3:forces:R:3 energy=-36.40728759765625 free_energy=-36.40728759765625 stress="0.0003740295360330492 2.0273068557230545e-08 -1.3881417126881956e-09 2.0273068557230545e-08 0.0003740338433999568 5.1202109219161684e-09 -1.3881417126881956e-09 5.1202109219161684e-09 0.00037401163717731833" pbc="T T T"
Ga       1.93213155       1.36622326       3.34654968      -0.00000009      -0.00000026       0.00000000
Ga       5.79639491       4.09866976      10.03964959       0.00000071      -0.00000048       0.00000093
V        0.00000000      -0.00000028       0.00000029       0.00000056      -0.00000055       0.00000122
Se       1.94143344       1.37280095       6.69309981       0.00024912       0.00017661       0.00000096
Se       5.78709218       4.09209228       6.69309955      -0.00024945      -0.00017610      -0.00000021
Se       4.82567756       1.37280109       5.02788036      -0.00012523       0.00017744       0.00021604
Se       2.90284797       4.09209236       8.35831844       0.00012442      -0.00017688      -0.00021735
Se       2.90284848       4.09209222       5.02788066       0.00012462      -0.00017664       0.00021598
Se       4.82567787       1.37280079       8.35831863      -0.00012466       0.00017676      -0.00021744
