9
Lattice="6.233728293750571 -6.689765609050195e-08 3.599044774944343 2.0779094556238062 5.87721532735901 3.599044623484464 8.382942730005804e-08 -1.2622336253835153e-07 7.198089404691901" Properties=species:S:1:pos:R:3:forces:R:3 energy=-36.640316009521484 free_energy=-36.640316009521484 stress="-1.4916210602677893e-05 2.1332937194529222e-08 1.7065165280882866e-08 2.1332937194529222e-08 -1.4936580555513501e-05 -2.2010420153151244e-08 1.7065165280882866e-08 -2.2010420153151244e-08 -1.4964394722483121e-05" pbc="T T T"
Ga       2.07790939       1.46930375       3.59904472       0.00000021      -0.00000057      -0.00000001
Ga       6.23372840       4.40791136      10.79713408      -0.00000027       0.00000018       0.00000009
W       -0.00000001      -0.00000091       0.00000040      -0.00000122       0.00000328      -0.00000003
Te       2.18703117       1.54646423       7.19808940       0.00539342       0.00381555      -0.00000102
Te       6.12460712       4.33075093       7.19808944      -0.00539697      -0.00381505      -0.00000075
Te       5.14021298       1.54646393       5.49306897      -0.00269853       0.00381676       0.00467266
Te       3.17142474       4.33075132       8.90311025       0.00269958      -0.00381737      -0.00467695
Te       3.17142487       4.33075128       5.49306869       0.00270023      -0.00381729       0.00467620
Te       5.14021269       1.54646463       8.90310926      -0.00269645       0.00381456      -0.00467026
