9
Lattice="5.620125514379135 7.883968467616645e-09 3.2447811167854264 1.8733751992853653 5.29870521868388 3.2447810814643874 6.623301021827304e-08 3.5745852977766112e-09 6.489562118851886" Properties=species:S:1:pos:R:3:forces:R:3 energy=-43.975746154785156 free_energy=-43.975746154785156 stress="0.00019425060600042343 6.993463586013604e-08 1.801430471459753e-08 6.993463586013604e-08 0.00019421489560045302 -1.1881907902022704e-08 1.801430471459753e-08 -1.1881907902022704e-08 0.00019416278519202024" pbc="T T T"
Ga       1.87337483       1.32467584       3.24478131      -0.00000101      -0.00000063       0.00000042
Ga       5.62012560       3.97402930       9.73434309       0.00000014       0.00000052       0.00000080
W        0.00000005       0.00000009       0.00000007      -0.00000130      -0.00000146       0.00001197
S        1.85697259       1.31307787       6.48956219      -0.00015779      -0.00011124       0.00000120
S        5.63652817       3.98562729       6.48956212       0.00015987       0.00011344      -0.00000051
S        4.69163938       1.31307765       4.85296655       0.00007879      -0.00011130      -0.00013654
S        2.80186139       3.98562766       8.12615784      -0.00007485       0.00010531       0.00012960
S        2.80186141       3.98562752       4.85296653      -0.00007848       0.00011094      -0.00013711
S        4.69163971       1.31307769       8.12615764       0.00007446      -0.00010568       0.00013024
