9
Lattice="5.889298228595169 -6.30560129942144e-08 3.400187971264224 1.9630993424041574 5.5524836021113115 3.4001879845625442 7.769499630300025e-09 2.1780909029518694e-08 6.800375929071344" Properties=species:S:1:pos:R:3:forces:R:3 energy=-40.451133728027344 free_energy=-40.451133728027344 stress="0.0002261938207084313 -6.240058070261512e-08 -2.561062828476679e-08 -6.240058070261512e-08 0.00022624281700700521 3.475498289162715e-08 -2.561062828476679e-08 3.475498289162715e-08 0.00022626981080975384" pbc="T T T"
Ga       1.96309940       1.38812092       3.40018788       0.00000036       0.00000015      -0.00000014
Ga       5.88929815       4.16436269      10.20056401      -0.00000047       0.00000013       0.00000059
W        0.00000014      -0.00000011      -0.00000027      -0.00000326       0.00000197       0.00001182
Se       1.95653366       1.38347818       6.80037588       0.00080344       0.00056814      -0.00000037
Se       5.89586392       4.16900544       6.80037564      -0.00080276      -0.00056741      -0.00000003
Se       4.91103116       1.38347862       5.09459666      -0.00039658       0.00055977       0.00068649
Se       2.94136634       4.16900515       8.50615575       0.00040177      -0.00056721      -0.00069436
Se       2.94136639       4.16900507       5.09459638       0.00039870      -0.00056385       0.00069072
Se       4.91103112       1.38347830       8.50615565      -0.00040123       0.00056831      -0.00069480
