9
Lattice="4.742045020582674 7.366693557493741e-08 2.7378208418821592 1.580681736176911 4.4708426671107 2.737820853667805 -8.709550756465703e-08 -4.7151389943472345e-08 5.475641834618138" Properties=species:S:1:pos:R:3:forces:R:3 energy=-48.42815017700195 free_energy=-48.42815017700195 stress="0.00021820570691488683 3.50063289467073e-09 5.207515130223328e-08 3.50063289467073e-09 0.0002183225442422554 -6.73160300834752e-08 5.207515130223328e-08 -6.73160300834752e-08 0.00021816806111019105" pbc="T T T"
Ga       1.58068934       1.11769399       2.73782314       0.00011069      -0.00022593       0.00002519
Ga       4.74205181       3.35314730       8.21344406       0.00009227       0.00020811      -0.00026305
W        0.00000011       0.00000023      -0.00000036       0.00000725      -0.00000164      -0.00000544
O        1.58752523       1.12254416       5.47564161      -0.00301874      -0.00219727      -0.00000095
O        4.73519824       3.34830187       5.47564965       0.00296807       0.00224102       0.00011046
O        3.94827816       1.12254072       4.11265961       0.00143707      -0.00224495      -0.00257266
O        2.37444494       3.34829841       6.83862666      -0.00149345       0.00220203       0.00261748
O        2.37443763       3.34829726       4.11266159      -0.00158983       0.00218785      -0.00255048
O        3.94828176       1.12254677       6.83862804       0.00148755      -0.00216842       0.00264049
