9
Lattice="6.436188779319916 -6.844831791061966e-09 3.7159353401161734 2.1453962740392205 6.0680969518673855 3.7159353042292724 3.6032690387552834e-08 -1.8473301772469212e-08 7.431870617821914" Properties=species:S:1:pos:R:3:forces:R:3 energy=-34.37690734863281 free_energy=-34.37690734863281 stress="5.5445110774599016e-05 3.652473601345463e-10 9.488673846647089e-09 3.652473601345463e-10 5.5435255490010604e-05 -1.1997887128245566e-08 9.488673846647089e-09 -1.1997887128245566e-08 5.5443397286580876e-05" pbc="T T T"
Ga       2.14539615       1.51702431       3.71593535      -0.00000008       0.00000030       0.00000014
Ga       6.43618888       4.55107266      11.14780593      -0.00000024      -0.00000015       0.00000036
Zr      -0.00000027       0.00000037      -0.00000019       0.00000229      -0.00000371       0.00000030
Te       2.31716249       1.63848126       7.43187039       0.00012147       0.00008592       0.00000071
Te       6.26442264       4.42961564       7.43187061      -0.00012093      -0.00008541       0.00000007
Te       5.27760764       1.63848132       5.72265690      -0.00006118       0.00008620       0.00010586
Te       3.30397753       4.42961555       9.14108436       0.00006048      -0.00008587      -0.00010450
Te       3.30397765       4.42961530       5.72265712       0.00005967      -0.00008398       0.00010338
Te       5.27760768       1.63848127       9.14108458      -0.00006148       0.00008672      -0.00010632
