9
Lattice="4.707985035705641 4.387069023279086e-07 2.718156581239853 1.569328628884487 4.438731935017025 2.718156806350252 2.524585914834719e-07 4.5421802176329206e-07 5.436312725208639" Properties=species:S:1:pos:R:3:forces:R:3 energy=-48.92698669433594 free_energy=-48.92698669433594 stress="-3.116206789854914e-05 -1.941693881235551e-07 -7.092052669577242e-07 -1.941693881235551e-07 -3.2180407288251445e-05 -5.734963224313105e-07 -7.092052669577242e-07 -5.734963224313105e-07 -3.198887134203687e-05" pbc="T T T"
Ga       1.56931754       1.10968628       2.71815291      -0.00017292       0.00005128      -0.00005787
Ga       4.70798062       3.32904799       8.15447946      -0.00007393      -0.00002876       0.00015562
Zr      -0.00000063      -0.00000003       0.00000042      -0.00001711       0.00000137       0.00000462
O        1.68895370       1.19426970       5.43631415      -0.00036085      -0.00027424       0.00002752
O        4.58836241       3.24446016       5.43630758       0.00041050       0.00021672      -0.00008283
O        3.86351587       1.19427374       4.18083380       0.00028697      -0.00021076      -0.00030380
O        2.41380476       3.24446083       6.69179416      -0.00019142       0.00024545       0.00032443
O        2.41380878       3.24446247       4.18083109      -0.00012159       0.00027281      -0.00034654
O        3.86351289       1.19427016       6.69179074       0.00024110      -0.00027353       0.00027847
