9
Lattice="5.97496231658323 1.1141040442540156e-07 3.4496462342827834 1.991654253463605 5.633248266400764 3.4496461599826707 1.0091563251598076e-07 -1.9640595866104358e-08 6.899292293774456" Properties=species:S:1:pos:R:3:forces:R:3 energy=-22.950714111328125 free_energy=-22.950714111328125 stress="0.0002569938078522682 3.3789561371122545e-08 -7.144090652388968e-09 3.3789561371122545e-08 0.0002568484633229673 1.7646048178221463e-08 -7.144090652388968e-09 1.7646048178221463e-08 0.0002569307398516685" pbc="T T T"
Ga       1.99165513       1.40830983       3.44964811       0.00000416      -0.00000509       0.00000432
Ga       5.97496134       4.22493421      10.34893995      -0.00000341      -0.00000520       0.00000282
Zn      -0.00000016       0.00000153      -0.00000035       0.00000298      -0.00001037      -0.00000003
Cl       1.98110115       1.40084990       6.89929228       0.00067377       0.00047410      -0.00000017
Cl       5.98551495       4.23240007       6.89929151      -0.00067186      -0.00047216       0.00000017
Cl       4.98441146       1.40085147       5.16532829      -0.00033644       0.00047895       0.00058365
Cl       2.98220548       4.23239816       8.63325412       0.00033367      -0.00047043      -0.00057817
Cl       2.98220504       4.23239824       5.16533039       0.00033298      -0.00046906       0.00057471
Cl       4.98441224       1.40085019       8.63325459      -0.00033638       0.00047940      -0.00058722
