9
Lattice="4.6530169377888155 6.049622869853195e-10 2.686420474693228 1.5510056216369263 4.386907116605554 2.6864205177573175 -2.0310285771780243e-08 3.838095513086399e-08 5.372840984564926" Properties=species:S:1:pos:R:3:forces:R:3 energy=-32.6047477722168 free_energy=-32.6047477722168 stress="-0.00013314747775439173 -3.8438866312162645e-08 6.350079928552077e-08 -3.8438866312162645e-08 -0.0001342305331490934 7.234174148607053e-08 6.350079928552077e-08 7.234174148607053e-08 -0.00013333387323655188" pbc="T T T"
Ga       1.55100765       1.09673006       2.68642004       0.00003498       0.00005110      -0.00000841
Ga       4.65302101       3.29016825       8.05925898       0.00006781      -0.00020193      -0.00003573
Zn       0.00000008      -0.00000025       0.00000026       0.00000341      -0.00000037      -0.00000877
F        1.58201029       1.11865624       5.37284285       0.00652945       0.00472713       0.00001441
F        4.62200960       3.26825473       5.37284225      -0.00658339      -0.00465822       0.00001546
F        3.86201079       1.11865540       4.05648213      -0.00328496       0.00470519       0.00567162
F        2.34201007       3.26825475       6.68919705       0.00325912      -0.00466549      -0.00570160
F        2.34200942       3.26825204       4.05648329       0.00325140      -0.00468105       0.00570196
F        3.86201125       1.11865726       6.68920101      -0.00327849       0.00472319      -0.00564885
