9
Lattice="6.234452016084182 -2.1323111909064106e-08 3.599462551755197 2.078150670089275 5.877897663885694 3.599462520292793 1.2756792664290062e-08 -2.951298360887663e-08 7.198925081414973" Properties=species:S:1:pos:R:3:forces:R:3 energy=-21.16962242126465 free_energy=-21.16962242126465 stress="-0.00018813894712366164 3.5971099432430265e-09 1.0606160394388553e-09 3.5971099432430265e-09 -0.00018814433133229613 -3.6061080788130084e-09 1.0606160394388553e-09 -3.6061080788130084e-09 -0.00018814807117450982" pbc="T T T"
Ga       2.07815071       1.46947434       3.59946248       0.00000007      -0.00000012      -0.00000027
Ga       6.23445201       4.40842327      10.79838759      -0.00000045       0.00000043      -0.00000003
Zn      -0.00000007       0.00000008       0.00000002       0.00000042      -0.00000040       0.00000106
Br       2.08547975       1.47465674       7.19892504      -0.00037962      -0.00026800      -0.00000006
Br       6.22712314       4.40324092       7.19892510       0.00037873       0.00026730       0.00000005
Br       5.19171219       1.47465656       5.40554081       0.00018963      -0.00026739      -0.00032803
Br       3.12089036       4.40324091       8.99230937      -0.00018929       0.00026824       0.00032794
Br       3.12089048       4.40324093       5.40554091      -0.00018901       0.00026758      -0.00032794
Br       5.19171217       1.47465665       8.99230932       0.00018948      -0.00026751       0.00032738
