9
Lattice="5.733069264698888 1.075839633179873e-08 3.3099890595286214 1.9110230488772573 5.405189384839531 3.309989145263026 1.460816445875615e-08 1.1533230553090273e-07 6.619978093755161" Properties=species:S:1:pos:R:3:forces:R:3 energy=-38.52539825439453 free_energy=-38.52539825439453 stress="-7.239040314743761e-06 -5.040225303787338e-08 -4.5873090215309276e-08 -5.040225303787338e-08 -7.229386483231792e-06 6.788834383542053e-08 -4.5873090215309276e-08 6.788834383542053e-08 -7.169881882873597e-06" pbc="T T T"
Ga       1.91102367       1.35129602       3.30998927       0.00000244      -0.00000458      -0.00000140
Ga       5.73306935       4.05389252       9.92996625      -0.00000014       0.00000109      -0.00000402
Zr       0.00000004       0.00000028       0.00000029       0.00000025      -0.00000269      -0.00000090
S        2.04317352       1.44474167       6.61997835      -0.00107244      -0.00075887      -0.00000021
S        5.60091813       3.96044802       6.61997851       0.00107279       0.00076129       0.00000181
S        4.71148193       1.44474199       5.07942961       0.00053443      -0.00076044      -0.00093004
S        2.93261051       3.96044717       8.16052648      -0.00053748       0.00076172       0.00093257
S        2.93260998       3.96044815       5.07942955      -0.00053638       0.00075981      -0.00092643
S        4.71148237       1.44474231       8.16052685       0.00053656      -0.00075728       0.00092867
