9
Lattice="5.5639802768843385 -1.0363607614537938e-07 3.212365499942539 1.8546599294030448 5.245771011887162 3.2123656128423583 -9.370209402019752e-08 7.201609231476375e-08 6.4247311621818985" Properties=species:S:1:pos:R:3:forces:R:3 energy=-34.324832916259766 free_energy=-34.324832916259766 stress="4.286447619961109e-06 3.8649541345137095e-09 7.688070624567445e-09 3.8649541345137095e-09 4.274287675798405e-06 -3.200776976797215e-09 7.688070624567445e-09 -3.200776976797215e-09 4.206282483210089e-06" pbc="T T T"
Ge       1.85466002       1.31144330       3.21236518      -0.00000154       0.00000650      -0.00000316
Ge       5.56397936       3.93432854       9.63709739      -0.00000549       0.00000223       0.00000713
As      -0.00000011       0.00000008       0.00000025       0.00000063       0.00000256      -0.00000191
S        1.89777297       1.34192749       6.42473081       0.00019997       0.00013727      -0.00000017
S        5.52086764       3.90384296       6.42473053      -0.00019956      -0.00014269      -0.00000339
S        4.61509466       1.34192830       4.85588507      -0.00009674       0.00014305       0.00017393
S        2.80354602       3.90384269       7.99357795       0.00010079      -0.00014424      -0.00017190
S        2.80354584       3.90384293       4.85588456       0.00010377      -0.00014460       0.00017309
S        4.61509395       1.34192766       7.99357750      -0.00010186       0.00014037      -0.00017345
