9
Lattice="4.8110509224849825 3.4810161570835977e-07 2.77766139125313 1.6036837918025653 4.535902022602708 2.7776616982056495 -7.365316049941742e-08 3.2385790496092157e-07 5.555322910077286" Properties=species:S:1:pos:R:3:forces:R:3 energy=-39.57255554199219 free_energy=-39.57255554199219 stress="9.473270438320469e-06 -6.280483688669847e-08 9.887580887379954e-08 -6.280483688669847e-08 9.591173693479504e-06 4.219151250595132e-08 9.887580887379954e-08 4.219151250595132e-08 9.256244084099308e-06" pbc="T T T"
Ge       1.60369030       1.13397031       2.77765902       0.00002934      -0.00002087      -0.00001400
Ge       4.81106629       3.40193038       8.33297377       0.00006080       0.00001230      -0.00004521
As      -0.00000083       0.00000011       0.00000035      -0.00000170       0.00000263      -0.00000679
F        1.58867647       1.12336870       5.55532390      -0.00045329      -0.00030164       0.00000742
F        4.82605570       3.41254235       5.55533031       0.00044469       0.00033846       0.00002840
F        4.01670823       1.12335799       4.15349739       0.00020886      -0.00034626      -0.00038395
F        2.39802007       3.41253705       6.95714607      -0.00023663       0.00031366       0.00037427
F        2.39801390       3.41254060       4.15350413      -0.00026096       0.00032515      -0.00035936
F        4.01670817       1.12336405       6.95714992       0.00020893      -0.00032348       0.00039911
