9
Lattice="4.559368071320658 8.178948831452914e-08 2.6323523424557216 1.5197893929472372 4.298613478168172 2.6323524139400996 -3.266141709912866e-08 6.445502577196406e-08 5.26470474148266" Properties=species:S:1:pos:R:3:forces:R:3 energy=-47.25789260864258 free_energy=-47.25789260864258 stress="2.5386385459569283e-05 -4.993367941352744e-09 4.825492894156014e-08 -4.993367941352744e-09 2.5415583877475e-05 8.53019255231402e-09 4.825492894156014e-08 8.53019255231402e-09 2.5438512238906696e-05" pbc="T T T"
Ge       1.51978972       1.07465357       2.63235290       0.00000327       0.00000279       0.00000206
Ge       4.55936820       3.22396031       7.89705651       0.00000187       0.00000024      -0.00000394
As      -0.00000000       0.00000011      -0.00000016      -0.00000062      -0.00000255       0.00000239
O        1.48913421       1.05297768       5.26470408       0.00026429       0.00019038      -0.00000476
O        4.59002302       3.24563599       5.26470507      -0.00026333      -0.00018942       0.00000448
O        3.81480065       1.05297755       3.92198065      -0.00013447       0.00018716       0.00022745
O        2.26435697       3.24563598       6.60742898       0.00013459      -0.00018942      -0.00022602
O        2.26435663       3.24563650       3.92198104       0.00013107      -0.00018382       0.00022995
O        3.81480017       1.05297686       6.60742876      -0.00013578       0.00018394      -0.00023031
