9
Lattice="6.30201947330837 -1.1681478562089263e-07 3.638472522028227 2.100673135114595 5.9416007474259285 3.638472370509873 1.6546816726366646e-07 -6.856766900284189e-08 7.276944757457165" Properties=species:S:1:pos:R:3:forces:R:3 energy=-21.610200881958008 free_energy=-21.610200881958008 stress="1.688571387603588e-06 -6.5059713172388456e-09 -3.2578875153177478e-09 -6.5059713172388456e-09 1.7083665397876757e-06 -7.836497672997211e-09 -3.2578875153177478e-09 -7.836497672997211e-09 1.6887013316591037e-06" pbc="T T T"
Ge       2.10067241       1.48539869       3.63847214      -0.00000180      -0.00000497      -0.00000183
Ge       6.30202007       4.45619937      10.91541715       0.00000174      -0.00000532      -0.00000207
B        0.00000021      -0.00000021      -0.00000007       0.00000016      -0.00000076      -0.00000053
I        2.02812492       1.43410110       7.27694456      -0.00070804      -0.00049868       0.00000012
I        6.37456777       4.50750008       7.27694504       0.00070716       0.00050123       0.00000125
I        5.28795732       1.43410106       5.39487964       0.00035411      -0.00049814      -0.00061182
I        3.11473572       4.50750040       9.15900984      -0.00035379       0.00050240       0.00061382
I        3.11473571       4.50750082       5.39488065      -0.00035382       0.00050275      -0.00061114
I        5.28795696       1.43410097       9.15900964       0.00035422      -0.00049853       0.00061204
