9
Lattice="4.573880215368581 1.1366855209825548e-07 2.640730836061698 1.5246267483723022 4.312296591475454 2.640731004506444 -1.696224670189726e-07 8.636065122171617e-08 5.281461965918134" Properties=species:S:1:pos:R:3:forces:R:3 energy=-43.75323486328125 free_energy=-43.75323486328125 stress="-0.00019093684386461973 3.8389287304596564e-09 -1.1797355625731143e-07 3.8389287304596564e-09 -0.00019124500977341086 -1.4839208972716733e-07 -1.1797355625731143e-07 -1.4839208972716733e-07 -0.00019086040265392512" pbc="T T T"
Ge       1.52462701       1.07807341       2.64073136      -0.00000156      -0.00000752       0.00000002
Ge       4.57387942       3.23422242       7.92219167      -0.00000181      -0.00000005      -0.00000534
B        0.00000035      -0.00000064      -0.00000104       0.00000500      -0.00000356      -0.00000319
F        1.34983702       0.95447894       5.28146150       0.00276768       0.00195847      -0.00000015
F        4.74866982       3.35781795       5.28146273      -0.00276534      -0.00195412      -0.00000228
F        3.89896134       0.95447954       3.80972435      -0.00138602       0.00196183       0.00239880
F        2.19954519       3.35781841       6.75320017       0.00138150      -0.00195547      -0.00238815
F        2.19954517       3.35781832       3.80972435       0.00138491      -0.00195634       0.00239308
F        3.89896175       0.95447893       6.75319969      -0.00138463       0.00195696      -0.00239258
