9
Lattice="5.418844663989101 -1.2139497113887269e-08 3.1285714706106376 1.8062815076514829 5.108935837214062 3.128571532213338 -5.413383590874892e-08 3.7169169998921695e-08 6.257143034983873" Properties=species:S:1:pos:R:3:forces:R:3 energy=-29.20697593688965 free_energy=-29.20697593688965 stress="1.6012518244679086e-05 1.1428189949924672e-08 1.0607226208492193e-08 1.1428189949924672e-08 1.5954343325574882e-05 -1.0529642047174548e-08 1.0607226208492193e-08 -1.0529642047174548e-08 1.5909949070191942e-05" pbc="T T T"
Ge       1.80628135       1.27723353       3.12857153      -0.00000023      -0.00000543      -0.00000002
Ge       5.41884447       3.83170233       9.38571509       0.00000306       0.00000396       0.00000598
B        0.00000076      -0.00000012       0.00000086       0.00000542      -0.00000433       0.00000661
Cl       1.66153643       1.17488338       6.25714277       0.00107005       0.00075848       0.00000091
Cl       5.56358992       3.93405254       6.25714264      -0.00107948      -0.00076251      -0.00000135
Cl       4.58807630       1.17488363       4.56750440      -0.00053367       0.00076080       0.00093052
Cl       2.63704943       3.93405231       7.94678145       0.00053867      -0.00075993      -0.00093379
Cl       2.63704956       3.93405234       4.56750415       0.00053528      -0.00075441       0.00092735
Cl       4.58807619       1.17488360       7.94678142      -0.00053918       0.00076342      -0.00093541
