9
Lattice="5.821565616697348 1.1990948279087947e-07 3.3610825246999676 1.9405219362130333 5.48862509698396 3.3610826096937303 5.0305243813412556e-08 1.3966685486244887e-07 6.72216496226867" Properties=species:S:1:pos:R:3:forces:R:3 energy=-25.287582397460938 free_energy=-25.287582397460938 stress="0.00020480179227888584 2.529128195760677e-08 3.4073273980084196e-08 2.529128195760677e-08 0.00020475838391575962 1.6121104451372048e-08 3.4073273980084196e-08 1.6121104451372048e-08 0.00020477594807744026" pbc="T T T"
Ge       1.94052229       1.37215757       3.36108257      -0.00000003       0.00000436       0.00000157
Ge       5.82156538       4.11646658      10.08324749      -0.00000303      -0.00000983       0.00000284
B       -0.00000173      -0.00000293      -0.00000047      -0.00002041      -0.00003715      -0.00000254
Br       1.85413296       1.31107050       6.72216511       0.00104547       0.00074407      -0.00000008
Br       5.90795637       4.17755684       6.72216522      -0.00102879      -0.00072455       0.00000121
Br       4.89449964       1.31107067       4.96680816      -0.00051743       0.00074021       0.00089736
Br       2.86758765       4.17755584       8.47752240       0.00052375      -0.00073271      -0.00089814
Br       2.86758795       4.17755590       4.96680786       0.00051845      -0.00072782       0.00089665
Br       4.89449983       1.31107054       8.47752208      -0.00051824       0.00074341      -0.00089893
