9
Lattice="4.689222831198132 1.4785183140375765e-07 2.7073240478480347 1.5630743343492501 4.421042184151554 2.707324190071638 -4.6489418223310953e-08 1.4131464157338023e-07 5.41464817621806" Properties=species:S:1:pos:R:3:forces:R:3 energy=-41.18583297729492 free_energy=-41.18583297729492 stress="-0.00010950155410682783 1.2138277050155466e-08 1.008488847986655e-09 1.2138277050155466e-08 -0.00010949977877316996 3.425859063099779e-08 1.008488847986655e-09 3.425859063099779e-08 -0.000109512620838359" pbc="T T T"
Ge       1.56307458       1.10526074       2.70732425       0.00000188      -0.00000080       0.00000017
Ge       4.68922269       3.31578178       8.12197226      -0.00000091       0.00000057      -0.00000009
Ga      -0.00000007      -0.00000010      -0.00000006      -0.00000127       0.00000655       0.00000074
F        1.54143687       1.08996061       5.41464806      -0.00390093      -0.00275836      -0.00000076
F        4.71086037       3.33108201       5.41464823       0.00389788       0.00275700       0.00000048
F        3.91850427       1.08996074       4.04224759       0.00195041      -0.00275914      -0.00337929
F        2.33379281       3.33108172       6.78704881      -0.00194882       0.00275647       0.00337476
F        2.33379275       3.33108152       4.04224749      -0.00194828       0.00275468      -0.00337365
F        3.91850417       1.08996094       6.78704894       0.00195004      -0.00275709       0.00337754
