9
Lattice="5.993703642770914 3.0372709335482506e-08 3.4604664545248296 1.997901256745739 5.650917877224173 3.460466430530574 4.971916500144766e-08 5.769907683739803e-09 6.920932822933562" Properties=species:S:1:pos:R:3:forces:R:3 energy=-24.172279357910156 free_energy=-24.172279357910156 stress="9.765702998265624e-05 2.019782385787039e-08 6.539671204564002e-08 2.019782385787039e-08 9.77473464445211e-05 1.8494372255872804e-08 6.539671204564002e-08 1.8494372255872804e-08 9.768609015736729e-05" pbc="T T T"
Ge       1.99790061       1.41273079       3.46046574      -0.00000156       0.00000387      -0.00000117
Ge       5.99370333       4.23818758      10.38140000      -0.00000049      -0.00000047      -0.00000029
Ga       0.00000021      -0.00000004       0.00000034      -0.00000150       0.00000207      -0.00000179
Br       2.03561024       1.43939366       6.92093294       0.00106575       0.00075667       0.00000222
Br       5.95599488       4.21152397       6.92093303      -0.00106604      -0.00075589      -0.00000244
Br       4.97589863       1.43939407       5.22335658      -0.00053055       0.00075626       0.00092132
Br       3.01570651       4.21152379       8.61850919       0.00052977      -0.00075617      -0.00092223
Br       3.01570664       4.21152396       5.22335640       0.00053616      -0.00075670       0.00092515
Br       4.97589877       1.43939391       8.61850855      -0.00053158       0.00075050      -0.00092068
