9
Lattice="5.464851401245602 -5.4680093893615376e-08 3.1551333198040985 1.8216171169852085 5.152311294635469 3.1551332595468353 -2.453871778762618e-09 -7.553494883717475e-08 6.310266643858461" Properties=species:S:1:pos:R:3:forces:R:3 energy=-32.6236572265625 free_energy=-32.6236572265625 stress="-0.00018080281734000891 3.125012781879377e-08 2.1767734281752382e-08 3.125012781879377e-08 -0.00018081087910104543 -3.149842697780514e-08 2.1767734281752382e-08 -3.149842697780514e-08 -0.00018084909243043512" pbc="T T T"
Ge       1.82161665       1.28807842       3.15513462      -0.00000231       0.00000509       0.00001273
Ge       5.46485066       3.86423323       9.46540125      -0.00000661      -0.00000150       0.00001097
Ga       0.00000030      -0.00000006       0.00000024      -0.00000307       0.00000068       0.00000119
S        1.91225809       1.35217061       6.31026618      -0.00106147      -0.00075321      -0.00000440
S        5.37421042       3.80014032       6.31026640       0.00106736       0.00075279      -0.00000531
S        4.50872200       1.35217073       4.81119660       0.00053008      -0.00075176      -0.00092517
S        2.77774601       3.80014028       7.80933556      -0.00053278       0.00074966       0.00091711
S        2.77774671       3.80014012       4.81119695      -0.00052795       0.00075030      -0.00092645
S        4.50872316       1.35217101       7.80933501       0.00053683      -0.00075197       0.00091930
