9
Lattice="6.1919534760731425 -8.90703864558537e-09 3.574926016080562 2.0639845114203674 5.837829613944218 3.5749259679405117 4.621110589674519e-08 -2.6283057525944068e-08 7.14985195212115" Properties=species:S:1:pos:R:3:forces:R:3 energy=-28.217517852783203 free_energy=-28.217517852783203 stress="0.00029440384241752326 -7.730011297724104e-09 3.317573549210806e-09 -7.730011297724104e-09 0.0002944052394013852 1.9686945407215717e-09 3.317573549210806e-09 1.9686945407215717e-09 0.0002944109437521547" pbc="T T T"
Ge       2.06398473       1.45945714       3.57492586       0.00000153      -0.00000142      -0.00000146
Ge       6.19195330       4.37837262      10.72477807      -0.00000130       0.00000260       0.00000129
Ga       0.00000025       0.00000022       0.00000004      -0.00000123       0.00000048       0.00000039
Te       2.24641585       1.58845567       7.14985216      -0.00205067      -0.00145109       0.00000032
Te       6.00952215       4.24937373       7.14985200       0.00205174       0.00145186      -0.00000085
Te       5.06874551       1.58845561       5.52037915       0.00102551      -0.00145153      -0.00177680
Te       3.18719257       4.24937358       8.77932460      -0.00102562       0.00145091       0.00177654
Te       3.18719244       4.24937395       5.52037902      -0.00102514       0.00145067      -0.00177624
Te       5.06874535       1.58845576       8.77932488       0.00102523      -0.00145250       0.00177678
