9
Lattice="6.518125830714879 6.22685026261349e-08 3.763241614991812 2.1727086589175983 6.14534795036182 3.76324163236083 -2.877458261479057e-08 9.259419916192816e-10 7.5264832798226315" Properties=species:S:1:pos:R:3:forces:R:3 energy=-20.337448120117188 free_energy=-20.337448120117188 stress="0.00012083078763680533 9.942107581650816e-09 7.884287001047596e-09 9.942107581650816e-09 0.00012081489694537595 -9.039994530724016e-09 7.884287001047596e-09 -9.039994530724016e-09 0.0001208073808811605" pbc="T T T"
Ge       2.17270837       1.53633687       3.76324202      -0.00000032       0.00000014       0.00000062
Ge       6.51812574       4.60901081      11.28972534      -0.00000144      -0.00000112       0.00000117
Ga      -0.00000014       0.00000022      -0.00000016       0.00000001      -0.00000073       0.00000079
I        2.23522050       1.58053968       7.52648315       0.00127168       0.00089898      -0.00000025
I        6.45561404       4.56480858       7.52648309      -0.00127091      -0.00089905      -0.00000045
I        5.40051586       1.58053935       5.69899879      -0.00063580       0.00090091       0.00110309
I        3.29031875       4.56480871       9.35396719       0.00063690      -0.00090007      -0.00110292
I        3.29031896       4.56480839       5.69899904       0.00063676      -0.00089951       0.00110105
I        5.40051571       1.58053943       9.35396757      -0.00063693       0.00090048      -0.00110306
