9
Lattice="5.66578159412773 3.039987004050353e-08 3.2711405421790416 1.888593882538663 5.341750000411718 3.2711405609403656 7.610935651046858e-08 7.679527640645095e-08 6.542280952532767" Properties=species:S:1:pos:R:3:forces:R:3 energy=-31.770919799804688 free_energy=-31.770919799804688 stress="2.470625076966826e-05 3.599193387771038e-09 -5.7079176940533216e-08 3.599193387771038e-09 2.4577297153882682e-05 -3.4862424058701436e-08 -5.7079176940533216e-08 -3.4862424058701436e-08 2.4565068088122644e-05" pbc="T T T"
Ge       1.88859379       1.33543783       3.27113991       0.00000183       0.00000357       0.00000022
Ge       5.66578106       4.00631237       9.81342179      -0.00000296      -0.00000405       0.00000500
Ir       0.00000015       0.00000002       0.00000009       0.00000189      -0.00000589       0.00000163
Cl       1.87426147       1.32530293       6.54228107       0.00362206       0.00256112       0.00000150
Cl       5.68011426       4.01644706       6.54228103      -0.00362182      -0.00256254      -0.00000260
Cl       4.72865109       1.32530292       4.89429830      -0.00181139       0.00256528       0.00313964
Cl       2.82572462       4.01644716       8.19026390       0.00181256      -0.00256367      -0.00313932
Cl       2.82572457       4.01644721       4.89429859       0.00181273      -0.00256076       0.00313681
Cl       4.72865121       1.32530297       8.19026356      -0.00181478       0.00256696      -0.00314260
