9
Lattice="4.817913445547244 3.394336444220269e-06 2.7816242792035073 1.6059718770621787 4.542399534432062 2.7816285602518325 1.4130785767161376e-06 6.242385966073934e-06 5.563246110882627" Properties=species:S:1:pos:R:3:forces:R:3 energy=-41.27969741821289 free_energy=-41.27969741821289 stress="0.0006189160048961639 -9.662181099656664e-08 -1.412340964179748e-07 -9.662181099656664e-08 0.0006178269977681339 2.2430882040680444e-07 -1.412340964179748e-07 2.2430882040680444e-07 0.0006186223472468555" pbc="T T T"
Ge       1.60599634       1.13563109       2.78158092       0.00005044       0.00006985      -0.00014679
Ge       4.81794666       3.40680938       8.34482988       0.00007123       0.00002256      -0.00013699
Ir      -0.00001781      -0.00000834       0.00001342       0.00004625       0.00002223      -0.00002383
F        1.63154610       1.15368845       5.56325509      -0.00474438      -0.00330909       0.00008605
F        4.79231778       3.38870071       5.56326785       0.00483395       0.00339745       0.00010150
F        4.00213721       1.15369327       4.19460813       0.00237678      -0.00346208      -0.00413366
F        2.42174526       3.38870803       6.93191581      -0.00243112       0.00325607       0.00416311
F        2.42174781       3.38871258       4.19460530      -0.00249185       0.00335894      -0.00409190
F        4.00213017       1.15369624       6.93190639       0.00228870      -0.00335584       0.00418249
