9
Lattice="6.42752192029977 -6.5251422432594156e-09 3.710931528911093 2.142507296643547 6.059925807911874 3.7109315357891894 -1.4006741244675548e-08 -1.4803212658487025e-09 7.42186308208256" Properties=species:S:1:pos:R:3:forces:R:3 energy=-26.09943199157715 free_energy=-26.09943199157715 stress="1.7779582776711322e-05 1.7762836534984672e-08 -8.574645438130801e-10 1.7762836534984672e-08 1.7764363292371854e-05 -9.471688322548744e-09 -8.574645438130801e-10 -9.471688322548744e-09 1.7753676729626022e-05" pbc="T T T"
Ge       2.14250720       1.51498132       3.71093167      -0.00000032       0.00000068       0.00000050
Ge       6.42752186       4.54494425      11.13279495      -0.00000049      -0.00000142       0.00000148
Ir       0.00000002      -0.00000006      -0.00000004      -0.00000139      -0.00000200       0.00000397
I        2.14942705       1.51987449       7.42186298       0.00102184       0.00072309      -0.00000034
I        6.42060211       4.54005120       7.42186289      -0.00101918      -0.00072074      -0.00000039
I        5.35280830       1.51987465       5.57238991      -0.00051142       0.00072222       0.00088448
I        3.21722087       4.54005138       9.27133610       0.00051155      -0.00072414      -0.00088757
I        3.21722103       4.54005139       5.57239001       0.00051152      -0.00072180       0.00088407
I        5.35280836       1.51987453       9.27133614      -0.00051197       0.00072410      -0.00088616
