9
Lattice="6.0544388255975585 -7.519529999268777e-08 3.4955321286038368 2.018146268170344 5.708179820642311 3.495532017984727 3.01958036494721e-08 -1.1412853107627761e-07 6.991064204907011" Properties=species:S:1:pos:R:3:forces:R:3 energy=-28.83450698852539 free_energy=-28.83450698852539 stress="6.537010631291196e-05 1.4207484966277661e-08 1.588391640439113e-08 1.4207484966277661e-08 6.537386798299849e-05 -2.1100968083942462e-08 1.588391640439113e-08 -2.1100968083942462e-08 6.538552406709641e-05" pbc="T T T"
Ge       2.01814656       1.42704446       3.49553224       0.00000050      -0.00000138      -0.00000010
Ge       6.05443867       4.28113477      10.48659692      -0.00000005      -0.00000061       0.00000353
Ir      -0.00000007      -0.00000002       0.00000011       0.00000345      -0.00000157       0.00000089
Br       1.99157039       1.40825293       6.99106407       0.00351105       0.00248158      -0.00000035
Br       6.08101465       4.29992713       6.99106380      -0.00351275      -0.00248324      -0.00000022
Br       5.05865372       1.40825286       5.22028261      -0.00175750       0.00248635       0.00304298
Br       3.01393123       4.29992678       8.76184553       0.00175710      -0.00248423      -0.00304185
Br       3.01393147       4.29992680       5.22028282       0.00175488      -0.00248161       0.00303764
Br       5.05865380       1.40825283       8.76184539      -0.00175671       0.00248475      -0.00304253
