9
Lattice="5.679013618534294 -1.1213261962450272e-07 3.2787801117822677 1.8930044015912262 5.354225481925161 3.278780167555337 -3.941398126475512e-08 4.0437818824825076e-08 6.55756029183162" Properties=species:S:1:pos:R:3:forces:R:3 energy=-34.61839294433594 free_energy=-34.61839294433594 stress="0.00019174444605596364 -8.76795596127522e-08 2.245423047497752e-08 -8.76795596127522e-08 0.0001918648777063936 4.165097777786286e-08 2.245423047497752e-08 4.165097777786286e-08 0.00019195253844372928" pbc="T T T"
Ge       1.89300398       1.33855567       3.27878133      -0.00000266      -0.00000493       0.00000833
Ge       5.67901387       4.01566806       9.83634030      -0.00000067      -0.00000949      -0.00000247
Mo      -0.00000016      -0.00000004       0.00000034      -0.00000028      -0.00000127      -0.00001364
Cl       1.92321144       1.35991731       6.55755984       0.00139943       0.00099352      -0.00000505
Cl       5.64880591       3.99430919       6.55756015      -0.00140116      -0.00098982      -0.00000074
Cl       4.71740692       1.35991663       4.94433108      -0.00069875       0.00099075       0.00120738
Cl       2.85461151       3.99430872       8.17078888       0.00069641      -0.00097574      -0.00120224
Cl       2.85461075       3.99430892       4.94433133       0.00069834      -0.00098795       0.00121045
Cl       4.71740766       1.35991710       8.17078895      -0.00069063       0.00098507      -0.00120200
