9
Lattice="6.574512809134493 5.4413740369422246e-08 3.795796577281182 2.191504340347487 6.198510003060243 3.7957965437933687 4.357114809851231e-09 -3.79331081846956e-08 7.591593147015571" Properties=species:S:1:pos:R:3:forces:R:3 energy=-27.462976455688477 free_energy=-27.462976455688477 stress="4.390436879475601e-05 1.5684239684787826e-08 -2.2061215076973895e-09 1.5684239684787826e-08 4.390694448375143e-05 8.353678304651169e-10 -2.2061215076973895e-09 8.353678304651169e-10 4.387570879771374e-05" pbc="T T T"
Ge       2.19150404       1.54962772       3.79579670       0.00000053       0.00000149       0.00000040
Ge       6.57451294       4.64888256      11.38738956      -0.00000054      -0.00000030      -0.00000196
Mo      -0.00000011      -0.00000008      -0.00000052       0.00000129       0.00000232       0.00000623
I        2.22798407       1.57542225       7.59159325      -0.00017877      -0.00012618       0.00000141
I        6.53803325       4.62308774       7.59159305       0.00017506       0.00012392       0.00000180
I        5.46052094       1.57542253       5.72528684       0.00008998      -0.00012662      -0.00015293
I        3.30549602       4.62308797       9.45789965      -0.00008509       0.00012079       0.00014812
I        3.30549627       4.62308748       5.72528661      -0.00008883       0.00012526      -0.00015180
I        5.46052119       1.57542188       9.45789984       0.00008643      -0.00012073       0.00014888
