9
Lattice="6.126175739276389 8.053331166016207e-08 3.536949601790517 2.0420586111719423 5.7758141465989885 3.536949678891736 -2.2973518732264724e-08 7.818459699018527e-08 7.073899243372304" Properties=species:S:1:pos:R:3:forces:R:3 energy=-30.924976348876953 free_energy=-30.924976348876953 stress="9.339384996565059e-05 -1.5500660310863168e-08 1.6342060149554527e-08 -1.5500660310863168e-08 9.340826363768429e-05 -1.3277289490076782e-08 1.6342060149554527e-08 -1.3277289490076782e-08 9.343749115942046e-05" pbc="T T T"
Ge       2.04205855       1.44395179       3.53695150       0.00000043      -0.00000524       0.00000818
Ge       6.12617636       4.33186116      10.61085198       0.00000207       0.00000074       0.00001253
Mo      -0.00000021       0.00000015      -0.00000028      -0.00000201       0.00000300      -0.00000371
Br       2.06322872       1.45892333       7.07389897       0.00038028       0.00027005      -0.00000265
Br       6.10500578       4.31689113       7.07389837      -0.00038262      -0.00026819      -0.00000539
Br       5.09456124       1.45892361       5.32375751      -0.00019056       0.00026941       0.00032645
Br       3.07367283       4.31689222       8.82403909       0.00018921      -0.00026642      -0.00033430
Br       3.07367293       4.31689091       5.32375782       0.00019143      -0.00026787       0.00032765
Br       5.09456119       1.45892291       8.82403917      -0.00018827       0.00026452      -0.00032878
