9
Lattice="3.554976810961915 -0.6339633150307616 3.8005585268959847 1.3589646620276212 3.3975384869151863 -0.033370293909268094 -1.0174954603933275 1.6988480124426253 2.7485300162683197" Properties=species:S:1:pos:R:3:forces:R:3 energy=-4847.447265625 free_energy=-4847.447265625 stress="-19.12029266357422 -53.28601837158203 -37.83379364013672 -53.28601837158203 -16.169612884521484 -32.3558235168457 -37.83379364013672 -32.3558235168457 -54.31446075439453" pbc="T T T"
Ge      -0.84668295       1.41450442       1.57622468   -1391.24365234   -2012.05737305   -1253.26879883
Ge       3.34422058       4.08031574       4.58507735    4056.61767578    -845.67010498    2368.61523438
Mo       0.00013879      -0.27447854       0.28368769    -444.61926270    2884.08740234    2587.18505859
F        0.86856923       1.59149200       2.65887584    -454.55749512    -377.12103271     107.14160156
F        3.39825162       2.22254423       3.02395246    -694.10156250       4.20819092   -1427.89929199
F        2.88333948       0.01884387       4.68345818     952.25842285    -420.96960449    -368.95202637
F        1.42887678       3.96355976       3.36358709    -463.78515625   -2804.38305664   -3003.14794922
F        2.43369097       2.78817100       1.04027561   -1158.89721680    4008.87744141    1232.56433105
F        2.06642058       2.04330960       4.85856790    -401.67169189    -436.97296143    -242.23577881
