9
Lattice="5.4971678650722415 -1.218428847241584e-07 3.1737912785928075 1.8323891274731428 5.1827791474388585 3.1737913582839345 4.3272326085178594e-09 1.0066109296444036e-07 6.347582549690659" Properties=species:S:1:pos:R:3:forces:R:3 energy=-25.13909149169922 free_energy=-25.13909149169922 stress="5.23571070516482e-05 -2.7031639149299735e-08 8.905436388317867e-09 -2.7031639149299735e-08 5.2406197937671095e-05 1.0254190385694528e-08 8.905436388317867e-09 1.0254190385694528e-08 5.234196942183189e-05" pbc="T T T"
Ge       1.83238898       1.29569475       3.17379149      -0.00000075      -0.00000059      -0.00000148
Ge       5.49716823       3.88708401       9.52137394       0.00000149      -0.00000200      -0.00000306
N        0.00000157       0.00000037      -0.00000160       0.00001253       0.00000280      -0.00001064
Cl       1.79555448       1.26964900       6.34758280       0.00360094       0.00254826      -0.00000028
Cl       5.53400160       3.91312964       6.34758273      -0.00361174      -0.00255258       0.00000096
Cl       4.59939003       1.26964910       4.72878799      -0.00180586       0.00255314       0.00312954
Cl       2.73016632       3.91313073       7.96637771       0.00180006      -0.00254884      -0.00311983
Cl       2.73016662       3.91313007       4.72878795       0.00180399      -0.00255009       0.00312635
Cl       4.59939015       1.26964886       7.96637762      -0.00180057       0.00254998      -0.00312157
