9
Lattice="4.260192393063573 3.242541968005278e-08 2.4596233477443836 1.4200641988762022 4.016548004503919 2.4596232831665743 -2.755148131211957e-08 -9.857321788701559e-08 4.919246743209376" Properties=species:S:1:pos:R:3:forces:R:3 energy=-43.2584342956543 free_energy=-43.2584342956543 stress="0.00029506240389309824 4.7434568273274635e-08 4.8470852220816596e-08 4.7434568273274635e-08 0.00029549977625720203 3.4124067127550006e-08 4.8470852220816596e-08 3.4124067127550006e-08 0.0002951913047581911" pbc="T T T"
Ge       1.42006259       1.00413529       2.45962326      -0.00004640      -0.00003240       0.00000164
Ge       4.26019103       3.01241088       7.37886980      -0.00004502      -0.00003668       0.00000060
N       -0.00002040      -0.00001576       0.00000076      -0.00035338      -0.00026745       0.00001307
O        1.32590648       0.93755884       4.91924682      -0.00193143      -0.00135994      -0.00000411
O        4.35436889       3.07900246       4.91924670       0.00226581       0.00159824       0.00000299
O        3.59724416       0.93755186       3.60788461       0.00107068      -0.00146461      -0.00181234
O        2.08301456       3.07899795       6.23060897      -0.00101024       0.00150836       0.00181067
O        2.08301473       3.07899847       3.60788397      -0.00101542       0.00151026      -0.00181794
O        3.59724405       0.93755200       6.23060875       0.00106788      -0.00145626       0.00180435
