9
Lattice="6.003051957690236 9.788021057136071e-08 3.465863696834679 2.001017353971182 5.659731749399767 3.465863796499056 1.5382931277596884e-08 1.3294080465924945e-07 6.9317273670252915" Properties=species:S:1:pos:R:3:forces:R:3 energy=-24.12142562866211 free_energy=-24.12142562866211 stress="0.00021128763910382986 1.100583801871835e-08 -1.0814289908012142e-08 1.100583801871835e-08 0.0002113911759806797 2.5031896555560706e-09 -1.0814289908012142e-08 2.5031896555560706e-09 0.00021137119620107114" pbc="T T T"
Ge       2.00101675       1.41493368       3.46586358       0.00000016       0.00000251       0.00000082
Ge       6.00305277       4.24479957      10.39758950       0.00000144       0.00000407      -0.00000196
P        0.00000018      -0.00000007       0.00000109      -0.00000005       0.00000046       0.00000091
Br       2.01824313       1.42711339       6.93172776       0.00400806       0.00283386       0.00000068
Br       5.98582600       4.23261829       6.93172746      -0.00400913      -0.00283652       0.00000040
Br       4.99393034       1.42711266       5.21371370      -0.00200473       0.00283333       0.00347364
Br       3.01013914       4.23261874       8.64974158       0.00200488      -0.00283738      -0.00347419
Br       3.01013847       4.23261803       5.21371350       0.00200242      -0.00283602       0.00347145
Br       4.99393051       1.42711370       8.64974127      -0.00200299       0.00283581      -0.00347175
