9
Lattice="6.515261858128026 -4.9000705837622085e-08 3.761588158353452 2.171753922017451 6.142647776734918 3.7615881314955297 -7.244017601636115e-08 -8.411702986660973e-08 7.5231764421769505" Properties=species:S:1:pos:R:3:forces:R:3 energy=-21.322967529296875 free_energy=-21.322967529296875 stress="1.8061226683130371e-06 6.071371738691766e-10 -6.6353353922465885e-09 6.071371738691766e-10 1.8214074088973575e-06 1.0366778546710975e-08 -6.6353353922465885e-09 1.0366778546710975e-08 1.8063574316329323e-06" pbc="T T T"
Ge       2.17175386       1.53566199       3.76158793      -0.00000098       0.00000020      -0.00000083
Ge       6.51526173       4.60698585      11.28476390       0.00000053       0.00000131      -0.00000210
P        0.00000003      -0.00000009      -0.00000003       0.00000028      -0.00000006      -0.00000034
I        2.23774061       1.58232135       7.52317656      -0.00018582      -0.00013269       0.00000126
I        6.44927552       4.56032641       7.52317654       0.00018518       0.00013153       0.00000039
I        5.39639150       1.58232119       5.69952859       0.00009373      -0.00013247      -0.00016063
I        3.29062396       4.56032627       9.34682465      -0.00009321       0.00013176       0.00016228
I        3.29062395       4.56032620       5.69952841      -0.00009286       0.00013174      -0.00016100
I        5.39639166       1.58232140       9.34682437       0.00009317      -0.00013136       0.00016104
