9
Lattice="4.866437770812615 -0.27253889186991004 2.0148981384774074 0.9309220998236376 7.577294515027391 2.2086035739730066 -0.14718047743132429 0.2698690274783937 4.50807123984671" Properties=species:S:1:pos:R:3:forces:R:3 energy=-44.562992095947266 free_energy=-44.562992095947266 stress="0.0017677957657724619 -0.0003434902464505285 -0.0007442279602400959 -0.0003434902464505285 -0.0002910601906478405 0.0009078067960217595 -0.0007442279602400959 0.0009078067960217595 -0.0013114133616909385" pbc="T T T"
Ge       1.53606878       3.88341160       2.16093040       0.01770396      -0.03812192       0.00026222
Ge       3.04217623       6.39654898       8.57857080      -0.00011119       0.02958243      -0.00046980
P       -0.74821291       0.89698046      -0.70538498      -0.01082292      -0.02479534       0.08089042
F        0.64046659       0.79124305       4.12358280      -0.07413869       0.02771528      -0.00002505
F        4.95919293       4.94204115       4.11955866       0.01292853       0.00688754      -0.00149393
F        4.27725336       2.21060992       1.57798556       0.02215195      -0.02160640      -0.03276915
F        2.78500243       5.60339143       6.55766050      -0.00376828      -0.00762051       0.02595398
F        1.92418761       4.56886530       4.24004596      -0.00094109       0.01473843      -0.02711694
F        4.17052997       0.99790752       4.22516292       0.03699792       0.01322064      -0.04523183
