9
Lattice="5.6175339100631945 -1.9301730031210868e-07 3.243284588347818 1.872511153751543 5.296261678081614 3.2432845322716792 8.87130537182904e-09 -6.240602467174757e-08 6.486569161330097" Properties=species:S:1:pos:R:3:forces:R:3 energy=-27.837764739990234 free_energy=-27.837764739990234 stress="0.00041970962774939835 4.183599244811376e-09 1.9475034918059464e-08 4.183599244811376e-09 0.0004196701920591295 -8.739569068438868e-09 1.9475034918059464e-08 -8.739569068438868e-09 0.0004196622467134148" pbc="T T T"
Ge       1.87251110       1.32406465       3.24328440       0.00000052      -0.00000562      -0.00000227
Ge       5.61753373       3.97219672       9.72985415      -0.00000030       0.00000496       0.00000445
P        0.00000009       0.00000007      -0.00000014       0.00000101      -0.00000098      -0.00000006
Cl       1.84077527       1.30162412       6.48656905       0.00119789       0.00084553       0.00000332
Cl       5.64926994       3.99463724       6.48656876      -0.00119896      -0.00084511       0.00000010
Cl       4.69714656       1.30162395       4.83744237      -0.00059875       0.00084832       0.00103937
Cl       2.79289831       3.99463748       8.13569598       0.00060024      -0.00084812      -0.00104214
Cl       2.79289866       3.99463762       4.83744248       0.00059982      -0.00084706       0.00103895
Cl       4.69714665       1.30162381       8.13569611      -0.00060152       0.00084804      -0.00104180
