9
Lattice="6.006593082657859 7.61112029434803e-08 3.4679082107329973 2.0021977523472865 5.663070413826376 3.4679082343414422 9.860400209436943e-08 9.863786624383804e-08 6.935816250678839" Properties=species:S:1:pos:R:3:forces:R:3 energy=-27.988792419433594 free_energy=-27.988792419433594 stress="0.00012009950296487659 -1.4352952604212987e-08 -5.426367355454431e-09 -1.4352952604212987e-08 0.00012005189637420699 -4.300638778431676e-08 -5.426367355454431e-09 -4.300638778431676e-08 0.00012020450958516449" pbc="T T T"
Ge       2.00219766       1.41576747       3.46790804       0.00000012      -0.00000229       0.00000101
Ge       6.00659319       4.24730489      10.40372388       0.00000205       0.00000909      -0.00000195
Rh       0.00000011      -0.00000020       0.00000000      -0.00000026      -0.00000001       0.00000008
Br       1.98148095       1.40111816       6.93581614       0.00361923       0.00255684       0.00000060
Br       6.02731014       4.26195206       6.93581682      -0.00362020      -0.00256034       0.00000077
Br       5.01585273       1.40111821       5.18392116      -0.00180897       0.00255651       0.00313269
Br       2.99293836       4.26195198       8.68771156       0.00180888      -0.00255869      -0.00313198
Br       2.99293792       4.26195191       5.18392130       0.00180809      -0.00255681       0.00313015
Br       5.01585266       1.40111788       8.68771178      -0.00180889       0.00255562      -0.00313145
