9
Lattice="4.843193753997516 7.116314764496105e-07 2.7962324103329315 1.614398841144572 4.566228929788336 2.796231973453717 1.2674119057569184e-05 8.426888853231076e-06 5.59244286840193" Properties=species:S:1:pos:R:3:forces:R:3 energy=-42.70892333984375 free_energy=-42.70892333984375 stress="-0.00010263830336043611 -8.622216114417824e-07 1.4408395543341612e-07 -8.622216114417824e-07 -0.00010086056863656268 4.738226877520901e-08 1.4408395543341612e-07 4.738226877520901e-08 -0.00010160719102714211" pbc="T T T"
Ge       1.61602603       1.14169292       2.79487365       0.00499115       0.00046781      -0.00422080
Ge       4.84483157       3.42485234       8.38731014       0.00500740       0.00047798      -0.00411910
Ru      -0.00028382      -0.00002633       0.00023839      -0.00526335      -0.00049541       0.00445144
F        1.60589607       1.13576169       5.59275200       0.00463077       0.00565346       0.00329765
F        4.85039891       3.42998218       5.59274098       0.00097392       0.00316242       0.00334106
F        4.03941284       1.13621763       4.18812195      -0.00116351      -0.00438862      -0.00153523
F        2.41715163       3.43042600       6.99794704       0.00062145      -0.00678866      -0.00460050
F        2.41736904       3.43013377       4.18791075      -0.00403474      -0.00025508       0.00322282
F        4.03961736       1.13591358       6.99773269      -0.00576314       0.00216614       0.00016256
