9
Lattice="6.418633303521811 -4.8276141292401514e-08 3.7057997437328187 2.1395443978055377 6.051545507035349 3.7057997284675004 3.534870603732744e-08 6.299178357971496e-09 7.411599426239846" Properties=species:S:1:pos:R:3:forces:R:3 energy=-25.123682022094727 free_energy=-25.123682022094727 stress="3.5837303585140035e-05 -5.592710294877179e-09 -5.90275814338348e-11 -5.592710294877179e-09 3.5840992495650426e-05 5.73286040861376e-09 -5.90275814338348e-11 5.73286040861376e-09 3.585594822652638e-05" pbc="T T T"
Ge       2.13954430       1.51288618       3.70579973      -0.00000037      -0.00000016       0.00000030
Ge       6.41863331       4.53865931      11.11739901       0.00000008      -0.00000001      -0.00000009
Rh      -0.00000010      -0.00000003       0.00000021      -0.00000146      -0.00000172      -0.00000190
I        2.14157781       1.51432397       7.41159948       0.00131818       0.00093182      -0.00000014
I        6.41659995       4.53722144       7.41159953      -0.00131586      -0.00093051       0.00000007
I        5.34784438       1.51432423       5.56046065      -0.00065884       0.00093165       0.00114040
I        3.21033354       4.53722116       9.26273824       0.00065740      -0.00092996      -0.00113903
I        3.21033342       4.53722128       5.56046063       0.00065848      -0.00093160       0.00114041
I        5.34784439       1.51432434       9.26273814      -0.00065765       0.00093051      -0.00114011
