9
Lattice="6.433306256206895 6.977950557050967e-08 3.7142710902974714 2.144435462646202 6.0653794176036735 3.7142711281916005 -1.1615089551157326e-08 3.819752208609811e-08 7.428542200712894" Properties=species:S:1:pos:R:3:forces:R:3 energy=-26.030208587646484 free_energy=-26.030208587646484 stress="5.8622124925022945e-05 1.419167450222858e-08 -1.970071217272107e-09 1.419167450222858e-08 5.861378667759709e-05 6.77373712676399e-10 -1.970071217272107e-09 6.77373712676399e-10 5.860384408151731e-05" pbc="T T T"
Ge       2.14443539       1.51634490       3.71427097       0.00000091       0.00000040       0.00000007
Ge       6.43330647       4.54903447      11.14281351       0.00000137      -0.00000085       0.00000121
Ru       0.00000013      -0.00000001       0.00000010       0.00000002      -0.00000009       0.00000114
I        2.15236965       1.52195521       7.42854227       0.00204640       0.00144745      -0.00000007
I        6.42537209       4.54342438       7.42854210      -0.00204834      -0.00144801      -0.00000056
I        5.35712159       1.52195529       5.57827771      -0.00102336       0.00144869       0.00177336
I        3.22061996       4.54342431       9.27880681       0.00102331      -0.00144815      -0.00177442
I        3.22062002       4.54342429       5.57827754       0.00102359      -0.00144785       0.00177351
I        5.35712154       1.52195525       9.27880666      -0.00102391       0.00144833      -0.00177418
