9
Lattice="5.645137125094738 -3.407761128164012e-08 3.259221365047694 1.8817122967712099 5.3222866372362905 3.259221444950126 -1.3473511069961552e-07 2.5879841163523462e-09 6.518442963463438" Properties=species:S:1:pos:R:3:forces:R:3 energy=-32.0399284362793 free_energy=-32.0399284362793 stress="0.0001733241369947791 3.1497314978423674e-08 7.768537813035437e-08 3.1497314978423674e-08 0.00017333906725980341 -2.1127732896530915e-09 7.768537813035437e-08 -2.1127732896530915e-09 0.00017337995814159513" pbc="T T T"
Ge       1.88171232       1.33057235       3.25922253       0.00000368       0.00000664       0.00001022
Ge       5.64513647       3.99171424       9.77766155      -0.00000422      -0.00000519      -0.00002535
Ru       0.00000004      -0.00000006      -0.00000006      -0.00000298      -0.00000124       0.00000388
Cl       1.88653244       1.33398021       6.51844230       0.00348714       0.00246799      -0.00000196
Cl       5.64031664       3.98830637       6.51844423      -0.00348261      -0.00246659       0.00000975
Cl       4.70187068       1.33397967       4.89300675      -0.00174792       0.00246456       0.00302252
Cl       2.82497922       3.98830675       8.14387964       0.00174914      -0.00246888      -0.00302067
Cl       2.82497847       3.98830600       4.89300660       0.00174141      -0.00246915       0.00302055
Cl       4.70187094       1.33398089       8.14387963      -0.00174381       0.00247198      -0.00301933
