9
Lattice="4.755977467252017 -2.7164368825717495e-08 2.745864873121041 1.5853258620221287 4.4839776625589085 2.745864760164298 1.7054495492190578e-07 -1.7749687987209065e-08 5.491729450849552" Properties=species:S:1:pos:R:3:forces:R:3 energy=-41.08028793334961 free_energy=-41.08028793334961 stress="0.0003445166803430766 -7.76689148551668e-08 2.7764786025841204e-08 -7.76689148551668e-08 0.00034462715848349035 -4.218983917780861e-08 2.7764786025841204e-08 -4.218983917780861e-08 0.0003446518094278872" pbc="T T T"
Ge       1.58532564       1.12099358       2.74586460      -0.00000101      -0.00000433      -0.00000042
Ge       4.75597725       3.36298374       8.23759413      -0.00000269       0.00000265       0.00000026
Rh       0.00000002       0.00000012       0.00000000       0.00000549      -0.00001018      -0.00000303
F        1.61417090       1.14138996       5.49172930      -0.00325547      -0.00230438       0.00000078
F        4.72713271       3.34258752       5.49172964       0.00325640       0.00230482      -0.00000067
F        3.94889253       1.14139045       4.14377753       0.00162926      -0.00230227      -0.00281959
F        2.39241145       3.34258703       6.83968172      -0.00163191       0.00230967       0.00282711
F        2.39241121       3.34258731       4.14377762      -0.00163098       0.00231057      -0.00282744
F        3.94889237       1.14139055       6.83968174       0.00163085      -0.00230658       0.00282301
