9
Lattice="5.629503248691887 -7.37861559804671e-08 3.2501951622871506 1.8765010249758816 5.307546365160291 3.250195142117699 -3.932039340366123e-08 -5.25061270748376e-08 6.5003903926791855" Properties=species:S:1:pos:R:3:forces:R:3 energy=-30.83365821838379 free_energy=-30.83365821838379 stress="0.00015617402095813304 -1.412680994405946e-08 2.8939025398244667e-08 -1.412680994405946e-08 0.00015631337009835988 -1.835789831261536e-08 2.8939025398244667e-08 -1.835789831261536e-08 0.00015619020268786699" pbc="T T T"
Ge       1.87650201       1.32688531       3.25019513       0.00000530      -0.00001214      -0.00000090
Ge       5.62950345       3.98066130       9.75058546       0.00000088       0.00001547      -0.00000103
Rh      -0.00000009       0.00000011      -0.00000026      -0.00000015      -0.00000215      -0.00000144
Cl       1.87040280       1.32257443       6.50039045       0.00330946       0.00233607      -0.00000049
Cl       5.63560111       3.98497191       6.50039038      -0.00330791      -0.00233448       0.00000075
Cl       4.69430139       1.32257381       4.87001155      -0.00165898       0.00233623       0.00286737
Cl       2.81170243       3.98497199       8.13076914       0.00165297      -0.00233430      -0.00286427
Cl       2.81170246       3.98497217       4.87001160       0.00165518      -0.00233577       0.00286350
Cl       4.69430133       1.32257396       8.13076915      -0.00165682       0.00233106      -0.00286397
