9
Lattice="6.1116214666156505 7.879602557757936e-08 3.5285463324632147 2.0372071956234423 5.762092311083449 3.5285463917075104 -4.4514344176265275e-08 4.108274334282748e-08 7.057092742027556" Properties=species:S:1:pos:R:3:forces:R:3 energy=-34.293556213378906 free_energy=-34.293556213378906 stress="0.00014993504737503827 -1.962230600227599e-09 6.24282847638824e-10 -1.962230600227599e-09 0.0001499497302575037 -4.518578844425747e-09 6.24282847638824e-10 -4.518578844425747e-09 0.00014994114462751895" pbc="T T T"
Ge       2.03720709       1.44052324       3.52854641       0.00000036      -0.00000025      -0.00000032
Ge       6.11162174       4.32156870      10.58563873       0.00000075      -0.00000229      -0.00000012
Ta      -0.00000008       0.00000025       0.00000006      -0.00000088      -0.00000222       0.00000128
Br       2.05080579       1.45013887       7.05709279      -0.00678527      -0.00479630       0.00000013
Br       6.09802265       4.31195347       7.05709282       0.00678748       0.00479898       0.00000083
Br       5.08621855       1.45013892       5.30459631       0.00339323      -0.00479856      -0.00587702
Br       3.06261009       4.31195368       8.80958936      -0.00339381       0.00479823       0.00587592
Br       3.06261005       4.31195352       5.30459628      -0.00339484       0.00479910      -0.00587705
Br       5.08621853       1.45013901       8.80958915       0.00339289      -0.00479671       0.00587630
