9
Lattice="5.7241803452384525 9.280061291826991e-08 3.304857160490962 1.9080602106379692 5.396809608950799 3.304857146521619 3.7896648060607794e-08 9.688060397983932e-09 6.6097142553430075" Properties=species:S:1:pos:R:3:forces:R:3 energy=-38.45920181274414 free_energy=-38.45920181274414 stress="0.0004337700956966728 2.6330098990001716e-08 5.1875897355557754e-08 2.6330098990001716e-08 0.00043369794730097055 -1.5283948329170016e-08 5.1875897355557754e-08 -1.5283948329170016e-08 0.0004337351128924638" pbc="T T T"
Ge       1.90805988       1.34920338       3.30485735      -0.00000447       0.00000907       0.00000091
Ge       5.72418119       4.04760573       9.91457198       0.00000545      -0.00001102       0.00000548
Ta       0.00000023      -0.00000016      -0.00000029       0.00000070       0.00000177       0.00000009
Cl       1.93137365       1.36568863       6.60971452      -0.00694194      -0.00490683      -0.00000240
Cl       5.70086669       4.03112177       6.60971411       0.00694031       0.00490648      -0.00000256
Cl       4.75849356       1.36568823       4.97747568       0.00347199      -0.00490600      -0.00601172
Cl       2.87374645       4.03112164       8.24195239      -0.00346953       0.00490552       0.00600913
Cl       2.87374696       4.03112167       4.97747611      -0.00347383       0.00490916      -0.00601274
Cl       4.75849373       1.36568806       8.24195239       0.00347129      -0.00490820       0.00601432
