9
Lattice="6.666648622282809 -3.902557767141005e-09 3.848991272399734 2.2222161943989396 6.285376531377013 3.848991288593205 -4.762498633163452e-08 -1.3843084551029878e-08 7.697982627288404" Properties=species:S:1:pos:R:3:forces:R:3 energy=-29.805946350097656 free_energy=-29.805946350097656 stress="0.0002164936304325238 3.819157878837132e-09 -3.904645051733269e-09 3.819157878837132e-09 0.00021648222173098475 8.28050961132476e-09 -3.904645051733269e-09 8.28050961132476e-09 0.00021648227993864566" pbc="T T T"
Ge       2.22221604       1.57134404       3.84899145      -0.00000011      -0.00000082       0.00000079
Ge       6.66664882       4.71403239      11.54697468       0.00000089      -0.00000015       0.00000263
Ta       0.00000013       0.00000016       0.00000017      -0.00000007       0.00000017      -0.00000203
I        2.23257411       1.57866825       7.69798252      -0.00087135      -0.00061607      -0.00000046
I        6.65629065       4.70670846       7.69798225       0.00087063       0.00061619      -0.00000126
I        5.55036168       1.57866815       5.78245690       0.00043543      -0.00061475      -0.00075409
I        3.33850297       4.70670818       9.61350789      -0.00043681       0.00061625       0.00075437
I        3.33850312       4.70670825       5.78245687      -0.00043405       0.00061500      -0.00075319
I        5.55036156       1.57866820       9.61350796       0.00043543      -0.00061579       0.00075327
