9
Lattice="4.270973315495412 7.777642949768146e-08 2.465847557516647 1.423657826464672 4.026712368117733 2.4658475898981638 1.3585969300483666e-08 4.926583222624356e-08 4.931695091501722" Properties=species:S:1:pos:R:3:forces:R:3 energy=-70.42862701416016 free_energy=-70.42862701416016 stress="-1.7015012417687103e-05 1.4404498926978704e-07 -9.983667581536793e-08 1.4404498926978704e-07 -1.6922860595514067e-05 -5.851673989809569e-08 -9.983667581536793e-08 -5.851673989809569e-08 -1.7339878468192182e-05" pbc="T T T"
Hf       1.42365792       1.00667817       2.46584732       0.00000143       0.00000185      -0.00000277
Hf       4.27097358       3.02003460       7.39754285       0.00000292      -0.00000101      -0.00000027
As       0.00000010       0.00000009      -0.00000028       0.00000466      -0.00000623       0.00002254
O        1.46728543       1.03752732       4.93169509      -0.00083604      -0.00059785      -0.00000023
O        4.22734554       2.98918524       4.93169527       0.00083560       0.00059757      -0.00000126
O        3.53733105       1.03752753       3.73655364       0.00041977      -0.00058781      -0.00071919
O        2.15730006       2.98918498       6.12683666      -0.00041878       0.00058278       0.00071347
O        2.15729999       2.98918493       3.73655375      -0.00041915       0.00059405      -0.00072408
O        3.53733098       1.03752729       6.12683657       0.00040983      -0.00058316       0.00071207
