9
Lattice="5.393218762373639 1.0718878692809591e-09 3.1137763471868354 1.7977396086672628 5.084775341321203 3.113776312201488 4.4274704359742333e-08 -1.154117513338193e-08 6.22755261768763" Properties=species:S:1:pos:R:3:forces:R:3 energy=-48.95500183105469 free_energy=-48.95500183105469 stress="0.00039483330328948796 7.236491939011103e-08 1.2928267345557742e-08 7.236491939011103e-08 0.0003948808298446238 -1.7954604913938965e-08 1.2928267345557742e-08 -1.7954604913938965e-08 0.0003947940422222018" pbc="T T T"
Hf       1.79773956       1.27119389       3.11377638      -0.00000123       0.00000166       0.00000131
Hf       5.39321876       3.81358155       9.34132870       0.00000081      -0.00000144      -0.00000266
As       0.00000005       0.00000008       0.00000018       0.00000288      -0.00000410       0.00000190
S        1.85682543       1.31297383       6.22755256       0.00616419       0.00435996      -0.00000115
S        5.33413304       3.77180153       6.22755274      -0.00616348      -0.00435996       0.00000107
S        4.46480608       1.31297367       4.72183433      -0.00308543       0.00436151       0.00534415
S        2.72615239       3.77180152       7.73327100       0.00308451      -0.00436056      -0.00534177
S        2.72615232       3.77180141       4.72183428       0.00308302      -0.00435984       0.00533962
S        4.46480606       1.31297386       7.73327098      -0.00308520       0.00436264      -0.00534213
