9
Lattice="4.269350041812897 8.204136513043181e-08 2.464910344740283 1.423116728631335 4.025181940492327 2.4649103955280083 2.7408171955826522e-08 8.158251263793443e-08 4.929820642008201" Properties=species:S:1:pos:R:3:forces:R:3 energy=-68.0095443725586 free_energy=-68.0095443725586 stress="-3.570804983610287e-05 -2.6870573321957636e-08 -4.1694811159231904e-08 -2.6870573321957636e-08 -3.589246989577077e-05 7.586202599441094e-08 -4.1694811159231904e-08 7.586202599441094e-08 -3.6024361179443076e-05" pbc="T T T"
Hf       1.42311643       1.00629576       2.46491046      -0.00000029      -0.00000088      -0.00000154
Hf       4.26935028       3.01888681       7.39473119      -0.00000268       0.00000360       0.00000211
Ga       0.00000002      -0.00000013      -0.00000005       0.00000140       0.00000754      -0.00000060
O        1.48186129       1.04783397       4.92982079       0.00048751       0.00034723       0.00000271
O        4.21060573       2.97734791       4.92982048      -0.00048858      -0.00035167      -0.00000159
O        3.52841934       1.04783413       3.74823960      -0.00024396       0.00034341       0.00042319
O        2.16404746       2.97734808       6.11140168       0.00024584      -0.00034663      -0.00042260
O        2.16404725       2.97734790       3.74823965       0.00024226      -0.00034916       0.00042778
O        3.52841943       1.04783410       6.11140169      -0.00024167       0.00034815      -0.00042820
