9
Lattice="5.407173485400508 -3.815126707523209e-08 3.1218330952185864 1.8023911189533575 5.097932123031729 3.1218331071306804 6.763585102662998e-09 1.9371849715374316e-08 6.243666178722305" Properties=species:S:1:pos:R:3:forces:R:3 energy=-48.46654510498047 free_energy=-48.46654510498047 stress="-6.834227679064497e-05 1.3088521377824236e-08 -5.19049114799941e-09 1.3088521377824236e-08 -6.828568439232185e-05 1.1368816998924558e-08 -5.19049114799941e-09 1.1368816998924558e-08 -6.830428173998371e-05" pbc="T T T"
Hf       1.80239120       1.27448270       3.12183293       0.00000041      -0.00000412      -0.00000094
Hf       5.40717349       3.82344957       9.36549996       0.00000153       0.00000228       0.00000576
Ga      -0.00000053       0.00000021       0.00000070       0.00001133      -0.00000924      -0.00001299
S        1.86985284       1.32218541       6.24366603      -0.00505275      -0.00357708      -0.00000023
S        5.33971189       3.77574696       6.24366585       0.00505078       0.00357205      -0.00000313
S        4.47224724       1.32218546       4.74117249       0.00252089      -0.00356391      -0.00436777
S        2.73731767       3.77574608       7.74615877      -0.00253373       0.00358003       0.00438428
S        2.73731757       3.77574677       4.74117349      -0.00252637       0.00357395      -0.00437677
S        4.47224701       1.32218527       7.74615926       0.00252798      -0.00357428       0.00437146
