9
Lattice="3.981200294316873 -8.576310113012413e-09 2.2985471004585425 1.327066797131116 3.7535113257396224 2.2985470304064264 7.274288566576488e-08 -3.4359029487712084e-08 4.5970940749227465" Properties=species:S:1:pos:R:3:forces:R:3 energy=-69.0072250366211 free_energy=-69.0072250366211 stress="-0.0001352923281956464 -5.974100503181035e-08 -6.647423589356549e-08 -5.974100503181035e-08 -0.00013525027316063643 1.0255160276528841e-07 -6.647423589356549e-08 1.0255160276528841e-07 -0.00013527377450373024" pbc="T T T"
Hf       1.32706642       0.93837863       2.29854618      -0.00000175       0.00000104      -0.00000155
Hf       3.98120019       2.81513245       6.89564247      -0.00000155       0.00000065      -0.00000092
N       -0.00000154       0.00000118      -0.00000223      -0.00001157       0.00000795      -0.00001530
O        1.36638191       0.96617748       4.59709442      -0.00044906      -0.00032443      -0.00000350
O        3.94188617       2.78733392       4.59709408       0.00044900       0.00032103       0.00000176
O        3.29801009       0.96617767       3.48186824       0.00022510      -0.00032106      -0.00038725
O        2.01025746       2.78733356       5.71231997      -0.00022355       0.00032556       0.00039691
O        2.01025797       2.78733304       3.48186875      -0.00021839       0.00031334      -0.00038648
O        3.29801002       0.96617724       5.71232076       0.00023162      -0.00032380       0.00039744
