9
Lattice="5.579909215025557 -6.617027077089215e-08 3.221561988044349 1.8599696944793975 5.260788886183802 3.2215619559608055 -8.077923097206978e-09 -4.50061632326478e-08 6.443123990080112" Properties=species:S:1:pos:R:3:forces:R:3 energy=-46.83961868286133 free_energy=-46.83961868286133 stress="8.16002138890326e-05 4.6061877867487055e-08 -2.3910169844043594e-08 4.6061877867487055e-08 8.167431224137545e-05 2.0131961875335946e-08 -2.3910169844043594e-08 2.0131961875335946e-08 8.16168831079267e-05" pbc="T T T"
Hf       1.85997257       1.31519882       3.22156179       0.00003490       0.00001963      -0.00000477
Hf       5.57990758       3.94559226       9.66468563      -0.00002328       0.00000710      -0.00000496
Sb       0.00000021       0.00000022       0.00000009       0.00000067      -0.00000327      -0.00000243
S        1.97052549       1.39337135       6.44312486       0.00069016       0.00047779       0.00000778
S        5.46935391       3.86741671       6.44312346      -0.00068164      -0.00048518      -0.00000209
S        4.59464505       1.39337113       4.92808639      -0.00035995       0.00047934       0.00058690
S        2.84523298       3.86741649       7.95816166       0.00034913      -0.00049093      -0.00057894
S        2.84523213       3.86741615       4.92808627       0.00034234      -0.00049311       0.00058296
S        4.59464576       1.39337199       7.95816164      -0.00035229       0.00048840      -0.00058419
