9
Lattice="5.858435825851776 -9.883563200065189e-08 3.3823696324356685 1.952811933412933 5.5233863569646555 3.3823694858254285 1.729258404813254e-07 -5.728311029764738e-08 6.764738965354974" Properties=species:S:1:pos:R:3:forces:R:3 energy=-42.139617919921875 free_energy=-42.139617919921875 stress="4.941044608131051e-05 -2.313282010391049e-08 -1.1905355989938471e-07 -2.313282010391049e-08 4.933389573125169e-05 -5.597706476123676e-08 -1.1905355989938471e-07 -5.597706476123676e-08 4.9399593990528956e-05" pbc="T T T"
Hf       1.95281327       1.38084742       3.38236527       0.00001599       0.00001766      -0.00005968
Hf       5.85843834       4.14253809      10.14711151       0.00003450      -0.00002395       0.00004630
Sb       0.00000058      -0.00000008      -0.00000022      -0.00000159      -0.00000257       0.00000275
Se       2.06499996       1.46017743       6.76474084       0.00055335       0.00041269       0.00002460
Se       5.74624692       4.06321028       6.76473699      -0.00056242      -0.00039805      -0.00001971
Se       4.82593582       1.46017644       5.17071257      -0.00027221       0.00040396       0.00048693
Se       2.98531082       4.06320917       8.35876586       0.00025848      -0.00041165      -0.00049012
Se       2.98531193       4.06321034       5.17071309       0.00027643      -0.00039431       0.00049003
Se       4.82593411       1.46017578       8.35876640      -0.00030273       0.00039613      -0.00048111
