9
Lattice="4.3541895309705545 2.0725270797627877e-08 2.5138925598009583 1.4513965235706074 4.1051693895648 2.5138925707005484 2.7441950994155836e-08 3.275360516442112e-08 5.0277850720710715" Properties=species:S:1:pos:R:3:forces:R:3 energy=-67.22554779052734 free_energy=-67.22554779052734 stress="2.306380520167295e-05 -4.53109727516221e-08 -7.978351135307094e-08 -4.53109727516221e-08 2.3089018213795498e-05 7.682299951738969e-08 -7.978351135307094e-08 7.682299951738969e-08 2.302481880178675e-05" pbc="T T T"
Hf       1.45139666       1.02629222       2.51389236      -0.00000044      -0.00000242      -0.00000002
Hf       4.35418994       3.07887705       7.54167747       0.00000496      -0.00000104      -0.00000166
Sb      -0.00000015      -0.00000026       0.00000016       0.00002206       0.00001912      -0.00001679
O        1.55918732       1.10251185       5.02778506       0.00398013       0.00281391      -0.00000292
O        4.24639895       3.00265789       5.02778521      -0.00401004      -0.00283311       0.00000456
O        3.57459604       1.10251206       3.86418837      -0.00199433       0.00282834       0.00345600
O        2.23098980       3.00265728       6.19138183       0.00199334      -0.00282072      -0.00344973
O        2.23098995       3.00265786       3.86418839       0.00199931      -0.00282725       0.00346434
O        3.57459592       1.10251181       6.19138192      -0.00199527       0.00282302      -0.00345376
