9
Lattice="6.6521999467120905 -9.801539688051281e-08 3.8406494791690724 2.2173999331737284 6.271754082769867 3.840649404091198 3.932396372499279e-08 -6.414484875655065e-08 7.681298890226906" Properties=species:S:1:pos:R:3:forces:R:3 energy=-17.28856086730957 free_energy=-17.28856086730957 stress="-5.895901995245367e-05 -6.995463319725559e-09 1.9400541173553165e-09 -6.995463319725559e-09 -5.895454887649976e-05 6.642150163216343e-10 1.9400541173553165e-09 6.642150163216343e-10 -5.8962457842426375e-05" pbc="T T T"
Hg       2.21739983       1.56793842       3.84064940       0.00000013       0.00000015      -0.00000009
Hg       6.65220001       4.70381539      11.52194833      -0.00000018      -0.00000023       0.00000018
As      -0.00000011      -0.00000027       0.00000081       0.00000433       0.00000282      -0.00000542
Br       2.13372133       1.50876873       7.68129862       0.00214273       0.00151545       0.00000020
Br       6.73587897       4.76298585       7.68129885      -0.00214741      -0.00151859       0.00000019
Br       5.58533930       1.50876833       5.68850619      -0.00107287       0.00151753       0.00185890
Br       3.28426057       4.76298535       9.67409119       0.00107183      -0.00151554      -0.00185627
Br       3.28426046       4.76298541       5.68850627       0.00107309      -0.00151743       0.00185877
Br       5.58533942       1.50876848       9.67409132      -0.00107166       0.00151584      -0.00185645
