9
Lattice="4.742305662497934 -1.7772205864102745e-07 2.7379711087870398 1.5807684017090389 4.471087935041627 2.737971082631396 1.8259203319906775e-08 -1.9122854119246997e-08 5.475942185948243" Properties=species:S:1:pos:R:3:forces:R:3 energy=-29.661821365356445 free_energy=-29.661821365356445 stress="-0.00010583909170236439 -9.942662693163129e-09 4.8741355840320466e-08 -9.942662693163129e-09 -0.00010585249401628971 -1.0333944544527185e-07 4.8741355840320466e-08 -1.0333944544527185e-07 -0.00010586118878563866" pbc="T T T"
Hg       1.58076842       1.11777189       2.73797120       0.00000128      -0.00000023      -0.00000015
Hg       4.74230564       3.35331594       8.21391387      -0.00000166       0.00000043      -0.00000233
As      -0.00000030       0.00000009      -0.00000071       0.00000803      -0.00000119       0.00000987
F        1.54476600       1.09231456       5.47594234       0.00070411       0.00049725      -0.00000024
F        4.77830825       3.37877325       5.47594201      -0.00070755      -0.00049925       0.00000074
F        3.96992282       1.09231413       4.07577749      -0.00035483       0.00049998       0.00061245
F        2.35315139       3.37877316       6.87610695       0.00035477      -0.00050099      -0.00061433
F        2.35315161       3.37877327       4.07577797       0.00034914      -0.00049405       0.00060457
F        3.96992240       1.09231456       6.87610645      -0.00035340       0.00049797      -0.00061044
