9
Lattice="7.002253629834115 -5.707284857636367e-08 4.042752951377787 2.3340844121100583 6.6017882453527355 4.04275308536755 -2.399972978837872e-07 -5.600555535633578e-09 8.085506318442897" Properties=species:S:1:pos:R:3:forces:R:3 energy=-14.828583717346191 free_energy=-14.828583717346191 stress="5.869072629138827e-05 3.45722739325538e-08 -1.3822829991738672e-08 3.45722739325538e-08 5.8670160797191784e-05 1.6281681780583313e-08 -1.3822829991738672e-08 1.6281681780583313e-08 5.8646415709517896e-05" pbc="T T T"
Hg       2.33408473       1.65044706       4.04275292      -0.00000028      -0.00000010      -0.00000017
Hg       7.00225301       4.95134114      12.12825935       0.00000028       0.00000008      -0.00000002
As       0.00000030      -0.00000041      -0.00000204      -0.00000194       0.00000278       0.00001032
I        2.31231703       1.63505458       8.08550568      -0.00159229      -0.00112580       0.00000022
I        7.02402068       4.96673335       8.08550627       0.00159226       0.00112613       0.00000010
I        5.84609534       1.63505548       6.04527812       0.00079763      -0.00112714      -0.00138016
I        3.49024140       4.96673409      10.12573587      -0.00079345       0.00112091       0.00137261
I        3.49024265       4.96673359       6.04527768      -0.00079533       0.00112469      -0.00137678
I        5.84609596       1.63505385      10.12573564       0.00079318      -0.00112160       0.00137387
