9
Lattice="6.330601127173826 2.463545705603528e-07 3.6549738031363037 2.1102005876923435 5.968547404149966 3.6549738382930754 6.122904039327079e-08 8.635339565064106e-08 7.309947500220933" Properties=species:S:1:pos:R:3:forces:R:3 energy=-19.873504638671875 free_energy=-19.873504638671875 stress="7.591906614834443e-05 1.225558321493736e-08 7.376813049297937e-11 1.225558321493736e-08 7.585446292068809e-05 -1.2327848075699421e-08 7.376813049297937e-11 -1.2327848075699421e-08 7.585476851090789e-05" pbc="T T T"
Hg       2.11020016       1.49213667       3.65497355      -0.00000020       0.00000031       0.00000022
Hg       6.33060171       4.47641107      10.96492124       0.00000019      -0.00000017       0.00000013
As      -0.00000043      -0.00000050       0.00000141       0.00000221       0.00000231      -0.00000450
Cl       1.99264319       1.40900983       7.30994685      -0.00110602      -0.00078049      -0.00000004
Cl       6.44815814       4.55953803       7.30994696       0.00110519       0.00077832      -0.00000014
Cl       5.33428115       1.40901012       5.38065182       0.00055037      -0.00077584      -0.00095296
Cl       3.10652271       4.55953647       9.23924307      -0.00055520       0.00077951       0.00095475
Cl       3.10652105       4.55953797       5.38065230      -0.00055116       0.00077683      -0.00095201
Cl       5.33427959       1.40901164       9.23924320       0.00055453      -0.00078085       0.00095442
