9
Lattice="6.638298096317668 -2.634117428525328e-08 3.832623532757593 2.212766031252504 6.258648076510649 3.8326234912205486 1.998278365106072e-07 9.042744498320365e-08 7.665246719403288" Properties=species:S:1:pos:R:3:forces:R:3 energy=-17.288375854492188 free_energy=-17.288375854492188 stress="-0.00012116735160816461 -6.967037169403056e-09 -4.570572809114992e-09 -6.967037169403056e-09 -0.0001211741691804491 2.6135738018240318e-09 -4.570572809114992e-09 2.6135738018240318e-09 -0.00012115751451347023" pbc="T T T"
Hg       2.21276606       1.56466234       3.83262369       0.00000010      -0.00000010      -0.00000016
Hg       6.63829806       4.69398591      11.49786986      -0.00000006      -0.00000020      -0.00000004
As      -0.00000031       0.00000113       0.00000393       0.00000136      -0.00000466      -0.00002820
Br       2.13485902       1.50957257       7.66524617      -0.00240314      -0.00169733       0.00000068
Br       6.71620534       4.74907444       7.66524686       0.00240453       0.00170039       0.00000035
Br       5.57086915       1.50957306       5.68146527       0.00119830      -0.00169425      -0.00207561
Br       3.28019670       4.74907451       9.64902749      -0.00120749       0.00170562       0.00208914
Br       3.28019508       4.74907556       5.68146453      -0.00119863       0.00169444      -0.00207438
Br       5.57086825       1.50957316       9.64902720       0.00120525      -0.00170398       0.00208811
