9
Lattice="7.0027114304829885 2.4930966871724804e-08 4.043017622550395 2.334237305675486 6.60221957208734 4.043017382356635 1.484832038243494e-07 -1.8918262332229356e-07 8.086034987920309" Properties=species:S:1:pos:R:3:forces:R:3 energy=-14.828580856323242 free_energy=-14.828580856323242 stress="6.743794801877812e-05 3.821801541903369e-09 1.2071291743964707e-09 3.821801541903369e-09 6.743918493157253e-05 4.362103178667809e-10 1.2071291743964707e-09 4.362103178667809e-10 6.743735866621137e-05" pbc="T T T"
Hg       2.33423714       1.65055462       4.04301743      -0.00000016       0.00000045       0.00000014
Hg       7.00271168       4.95166469      12.12905260       0.00000030      -0.00000052      -0.00000001
As       0.00000083       0.00000036       0.00000123      -0.00000372      -0.00000280      -0.00000516
I        2.31232715       1.63506208       8.08603550      -0.00168239      -0.00118987      -0.00000031
I        7.02462110       4.96715706       8.08603517       0.00168587       0.00119220      -0.00000019
I        5.84654831       1.63506171       6.04555155       0.00084079      -0.00118958      -0.00145736
I        3.49040093       4.96715712      10.12651743      -0.00084248       0.00119212       0.00146039
I        3.49040054       4.96715789       6.04555197      -0.00084113       0.00118940      -0.00145699
I        5.84654794       1.63506207      10.12651722       0.00084288      -0.00119153       0.00145964
