9
Lattice="5.729930084394575 2.2860575389295276e-08 3.308176746625297 1.9099767075301555 5.402230086365616 3.3081767619037827 4.4575062430205844e-08 5.0231649628204606e-08 6.616353416044265" Properties=species:S:1:pos:R:3:forces:R:3 energy=-29.563722610473633 free_energy=-29.563722610473633 stress="-1.0852387276827358e-05 8.511297977520371e-08 -1.6790519197229514e-08 8.511297977520371e-08 -1.0893634680542164e-05 3.392386815903592e-09 -1.6790519197229514e-08 3.392386815903592e-09 -1.0997962817782536e-05" pbc="T T T"
Hg       1.90997649       1.35055783       3.30817630      -0.00000026       0.00000029      -0.00000002
Hg       5.72993010       4.05167240       9.92453085      -0.00000033       0.00000008       0.00000018
Bi      -0.00000000      -0.00000019      -0.00000004      -0.00000338      -0.00000018       0.00001281
F        1.71588048       1.21331061       6.61635274      -0.00003046      -0.00002208       0.00000019
F        5.92402622       4.18891931       6.61635322       0.00003326       0.00002351       0.00000031
F        4.87199004       1.21331112       4.79417295       0.00001496      -0.00002113      -0.00002500
F        2.76791674       4.18891969       8.43853447      -0.00001040       0.00001445       0.00001779
F        2.76791722       4.18891966       4.79417291      -0.00001305       0.00001961      -0.00002322
F        4.87199021       1.21331054       8.43853448       0.00000969      -0.00001448       0.00001729
