9
Lattice="6.468480109503066 2.2754255479832076e-07 3.7345786126693143 2.1561602814452185 6.098541585944754 3.7345785599889014 1.8162988138458097e-07 6.391170466157414e-08 7.469156910746431" Properties=species:S:1:pos:R:3:forces:R:3 energy=-20.01688003540039 free_energy=-20.01688003540039 stress="-6.882529851282015e-05 8.828925501802587e-08 1.447194986070599e-08 8.828925501802587e-08 -6.888483767397702e-05 -1.7836745414001598e-08 1.447194986070599e-08 -1.7836745414001598e-08 -6.89515654812567e-05" pbc="T T T"
Hg       2.15615999       1.52463560       3.73457855       0.00000013       0.00000024       0.00000004
Hg       6.46848075       4.57390655      11.20373611      -0.00000004      -0.00000011       0.00000017
Bi      -0.00000019       0.00000007      -0.00000246       0.00000554       0.00000129       0.00003516
Cl       2.13996067       1.51318087       7.46915671      -0.00280020      -0.00197999      -0.00000077
Cl       6.48468064       4.58536166       7.46915687       0.00279531       0.00197750      -0.00000167
Cl       5.39850011       1.51318046       5.58783822       0.00139874      -0.00197908      -0.00242367
Cl       3.22613942       4.58536236       9.35047715      -0.00139049       0.00196780       0.00240687
Cl       3.22614007       4.58536092       5.58783793      -0.00140005       0.00197971      -0.00242320
Cl       5.39850082       1.51317914       9.35047722       0.00139108      -0.00196730       0.00240713
