9
Lattice="7.344787418485537 -2.2230617522854194e-07 4.240515124039679 2.448262413326548 6.924731835559939 4.240514864075437 1.8417780600767166e-07 -1.8815641950352442e-07 8.481029929074275" Properties=species:S:1:pos:R:3:forces:R:3 energy=-14.866448402404785 free_energy=-14.866448402404785 stress="-7.018426549620926e-05 5.3862305726681825e-09 9.182753224479256e-09 5.3862305726681825e-09 -7.01890530763194e-05 -1.695005558133289e-08 9.182753224479256e-09 -1.695005558133289e-08 -7.019581971690059e-05" pbc="T T T"
Hg       2.44826224       1.73118298       4.24051507       0.00000020       0.00000018       0.00000018
Hg       7.34478773       5.19354845      12.72154463      -0.00000028       0.00000026      -0.00000055
Bi      -0.00000009       0.00000143      -0.00000061       0.00000054      -0.00000727       0.00000595
I        2.51124647       1.77571915       8.48102974       0.00284186       0.00201114      -0.00000185
I        7.28180351       5.14901174       8.48103010      -0.00283968      -0.00200924       0.00000089
I        6.08916468       1.77571854       6.41531880      -0.00142194       0.00200894       0.00246255
I        3.70388528       5.14901279      10.54674130       0.00142166      -0.00200781      -0.00246297
I        3.70388578       5.14901146       6.41531870       0.00142138      -0.00200762       0.00245792
I        6.08916444       1.77571927      10.54674198      -0.00142364       0.00201143      -0.00246203
