9
Lattice="6.709203374357852 -5.951076167473663e-07 3.8735606098774613 2.236400416841806 6.3254980870121775 3.8735608642658836 -2.459287862868604e-07 1.376630634074225e-07 7.7471216457160885" Properties=species:S:1:pos:R:3:forces:R:3 energy=-17.335439682006836 free_energy=-17.335439682006836 stress="2.9872391678509302e-05 -1.5130717656575143e-07 -8.89165630013622e-09 -1.5130717656575143e-07 2.9993520001880825e-05 1.5188875934768475e-08 -8.89165630013622e-09 1.5188875934768475e-08 3.0098837669356726e-05" pbc="T T T"
Hg       2.23640058       1.58137435       3.87356079      -0.00000015       0.00000007       0.00000015
Hg       6.70920296       4.74412322      11.62068249      -0.00000010      -0.00000014       0.00000048
Bi      -0.00000171      -0.00000058       0.00000478       0.00001470       0.00000144      -0.00003807
Br       2.31180890       1.63469645       7.74712173      -0.00065060      -0.00046010       0.00000111
Br       6.63379515       4.69080183       7.74712092       0.00064190       0.00045472       0.00000118
Br       5.55329813       1.63469679       5.87564792       0.00032626      -0.00046310      -0.00056568
Br       3.39230726       4.69079927       9.61859227      -0.00033750       0.00047702       0.00058582
Br       3.39230592       4.69080078       5.87564848      -0.00032810       0.00046343      -0.00056688
Br       5.55329697       1.63469826       9.61859316       0.00033353      -0.00047326       0.00058188
