9
Lattice="6.479317793157759 7.140306392206842e-08 3.7408359798908273 2.159772697336634 6.108759384417688 3.740835923948765 2.4654255116381472e-08 -5.108151087358241e-08 7.481671917079045" Properties=species:S:1:pos:R:3:forces:R:3 energy=-20.01694107055664 free_energy=-20.01694107055664 stress="6.322190893115476e-05 2.2163757051885113e-08 5.820807835732467e-09 2.2163757051885113e-08 6.321102409856394e-05 -1.3190144088071065e-08 5.820807835732467e-09 -1.3190144088071065e-08 6.318486703094095e-05" pbc="T T T"
Hg       2.15977275       1.52719006       3.74083591      -0.00000010      -0.00000013       0.00000001
Hg       6.47931778       4.58156950      11.22250802       0.00000008       0.00000010      -0.00000008
Bi      -0.00000011       0.00000001      -0.00000009       0.00000119      -0.00000187       0.00000115
Cl       2.13977940       1.51305252       7.48167187      -0.00074792      -0.00052902       0.00000014
Cl       6.49931099       4.59570698       7.48167192       0.00074834       0.00052856       0.00000026
Cl       5.40942834       1.51305224       5.59393873       0.00037187      -0.00052603      -0.00064430
Cl       3.22966239       4.59570714       9.36940448      -0.00037216       0.00052680       0.00064564
Cl       3.22966248       4.59570670       5.59393974      -0.00037426       0.00052840      -0.00064808
Cl       5.40942806       1.51305234       9.36940467       0.00037286      -0.00052691       0.00064528
