9
Lattice="7.2442233269485845 -5.086068056638984e-07 4.182455032526232 2.414740718640873 6.829920206969708 4.182454878066953 2.955581879355547e-07 1.9818124088800994e-08 8.364909553130584" Properties=species:S:1:pos:R:3:forces:R:3 energy=-17.916095733642578 free_energy=-17.916095733642578 stress="-4.171545697317924e-06 -1.3106479457292153e-08 -3.7090404081396855e-09 -1.3106479457292153e-08 -4.066522706125397e-06 1.0233049824170948e-10 -3.7090404081396855e-09 1.0233049824170948e-10 -4.186626938462723e-06" pbc="T T T"
Hg       2.41474087       1.70747997       4.18245451      -0.00000019      -0.00000017      -0.00000014
Hg       7.24422301       5.12243983      12.54736430       0.00000007      -0.00000009      -0.00000015
B        0.00000282       0.00000041       0.00000133      -0.00000375       0.00000247      -0.00000166
Br       1.83310621       1.29620235       8.36490926       0.00017374       0.00012199      -0.00000033
Br       7.82585967       5.53371625       8.36491010      -0.00018082      -0.00011735      -0.00000148
Br       6.32766909       1.29620293       5.76997194      -0.00008496       0.00011744       0.00014800
Br       3.33129345       5.53371694      10.95984875       0.00008909      -0.00011899      -0.00015914
Br       3.33129254       5.53371668       5.76996890       0.00009150      -0.00012099       0.00016159
Br       6.32766950       1.29620381      10.95984844      -0.00008468       0.00011570      -0.00014699
