9
Lattice="5.730403194293343 -2.013615716436037e-07 3.3084499477678007 1.9101342649851432 5.402676109332259 3.308449849503538 -1.2806665130946868e-07 -2.109053742644577e-07 6.616900117353558" Properties=species:S:1:pos:R:3:forces:R:3 energy=-29.563720703125 free_energy=-29.563720703125 stress="-1.329825317952782e-05 -2.1140353467785644e-08 -2.1071253186732974e-08 -2.1140353467785644e-08 -1.3272160686028656e-05 2.1971588992641955e-09 -2.1071253186732974e-08 2.1971588992641955e-09 -1.3250446500023827e-05" pbc="T T T"
Hg       1.91013436       1.35066918       3.30844914      -0.00000022      -0.00000057       0.00000080
Hg       5.73040286       4.05200676       9.92535016       0.00000035       0.00000044       0.00000015
Bi       0.00000014      -0.00000006       0.00000008      -0.00000652       0.00000183      -0.00001067
F        1.71584499       1.21328560       6.61690010       0.00035483       0.00025123       0.00000003
F        5.92469304       4.18938989       6.61689960      -0.00035262      -0.00024879      -0.00000012
F        4.87248057       1.21328511       4.79441533      -0.00017539       0.00024885       0.00030428
F        2.76805680       4.18939031       8.43938469       0.00017464      -0.00024673      -0.00030228
F        2.76805647       4.18939077       4.79441561       0.00017828      -0.00025171       0.00030828
F        4.87247998       1.21328520       8.43938468      -0.00017339       0.00024608      -0.00030026
