9
Lattice="4.525973782733868 3.713482072915005e-08 2.61307205850178 1.5086579513058864 4.267129133961568 2.6130720780446963 -3.18895378001148e-08 1.385777442711504e-09 5.226144172237855" Properties=species:S:1:pos:R:3:forces:R:3 energy=-32.880191802978516 free_energy=-32.880191802978516 stress="4.958800127496943e-05 -7.926926315349192e-08 6.179921285820456e-08 -7.926926315349192e-08 4.947344496031292e-05 3.1351967688664217e-09 6.179921285820456e-08 3.1351967688664217e-09 4.9271166062681004e-05" pbc="T T T"
Hg       1.50865789       1.06678224       2.61307210      -0.00000096      -0.00000023      -0.00000007
Hg       4.52597379       3.20034696       7.83921650       0.00000051       0.00000008      -0.00000184
B       -0.00000010      -0.00000008       0.00000018      -0.00000191      -0.00000109      -0.00000118
F        1.29183691       0.91346669       5.22614406      -0.00066113      -0.00046465       0.00000192
F        4.74279485       3.35366269       5.22614403       0.00066030       0.00046444       0.00000208
F        3.88005528       0.91346682       3.73183511       0.00033569      -0.00047016      -0.00056952
F        2.15457652       3.35366226       6.72045299      -0.00033155       0.00046813       0.00056982
F        2.15457650       3.35366247       3.73183516      -0.00033474       0.00047085      -0.00057042
F        3.88005521       0.91346674       6.72045292       0.00033325      -0.00046739       0.00056887
