9
Lattice="7.109425324919903 1.0575345239047983e-07 4.104628798073929 2.369808602696355 6.702830354513497 4.104628691811429 8.921469307183457e-08 -6.706015996644397e-08 8.209257441624183" Properties=species:S:1:pos:R:3:forces:R:3 energy=-14.166322708129883 free_energy=-14.166322708129883 stress="7.416903099510819e-05 6.534694119153528e-09 -1.773232116697443e-09 6.534694119153528e-09 7.417574670398608e-05 -4.494351557582377e-09 -1.773232116697443e-09 -4.494351557582377e-09 7.421412010444328e-05" pbc="T T T"
Hg       2.36980821       1.67570700       4.10462971      -0.00000020      -0.00000015      -0.00000005
Hg       7.10942661       5.02712380      12.31388522       0.00000004      -0.00000003       0.00000023
B       -0.00000156      -0.00000041      -0.00000066      -0.00000125      -0.00000025      -0.00000228
I        2.01322424       1.42356231       8.20925731      -0.00398782      -0.00281696      -0.00000028
I        7.46601034       5.27926524       8.20925743       0.00399023       0.00282562      -0.00000107
I        6.10281540       1.42356270       5.84813338       0.00199263      -0.00282013      -0.00346161
I        3.37641888       5.27926813      10.57038269      -0.00199488       0.00281829       0.00345406
I        3.37641854       5.27926821       5.84813294      -0.00199266       0.00281665      -0.00345172
I        6.10281553       1.42356439      10.57038147       0.00199392      -0.00282307       0.00346285
