9
Lattice="4.89155930625312 -1.2980582739809648e-07 2.824142746087026 1.6305196746604815 4.611806632711771 2.8241426970846732 -2.86024977405908e-08 -8.024045524856742e-08 5.648285541715058" Properties=species:S:1:pos:R:3:forces:R:3 energy=-30.010908126831055 free_energy=-30.010908126831055 stress="1.2616584172064904e-05 2.910046070780936e-08 4.666936703756619e-08 2.910046070780936e-08 1.2675932339334395e-05 6.284076592422139e-10 4.666936703756619e-08 6.284076592422139e-10 1.2725206943287048e-05" pbc="T T T"
Hg       1.63051888       1.15295327       2.82414310      -0.00000562       0.00000272      -0.00000027
Hg       4.89155801       3.45885418       8.47242926      -0.00000283      -0.00000134       0.00000289
Ga      -0.00000028      -0.00000038      -0.00000012       0.00000719       0.00000209      -0.00000300
F        1.55250769       1.09778783       5.64828688      -0.00035754      -0.00025538      -0.00000306
F        4.96957145       3.51401723       5.64828549       0.00036266       0.00025636      -0.00000195
F        4.11530662       1.09778842       4.16865370       0.00017555      -0.00025317      -0.00031045
F        2.40677333       3.51401865       7.12791611      -0.00018090       0.00025630       0.00031534
F        2.40677372       3.51401754       4.16865287      -0.00017990       0.00024888      -0.00031528
F        4.11530623       1.09778861       7.12791668       0.00018130      -0.00025597       0.00031599
