9
Lattice="6.832734398889292 2.7375143175206565e-07 3.9448807473336918 2.277578429185572 6.4419636721418145 3.944880681295507 7.44983248420012e-08 -2.8201604580732386e-08 7.88976136563247" Properties=species:S:1:pos:R:3:forces:R:3 energy=-13.743393898010254 free_energy=-13.743393898010254 stress="9.957439033314586e-05 3.0372253601029797e-09 -1.912382918689559e-09 3.0372253601029797e-09 9.955760469892994e-05 3.8347347519618324e-09 -1.912382918689559e-09 3.8347347519618324e-09 9.956206486094743e-05" pbc="T T T"
Hg       2.27757813       1.61049126       3.94488065      -0.00000034       0.00000026      -0.00000002
Hg       6.83273479       4.83147293      11.83464216       0.00000025      -0.00000016      -0.00000002
Ga      -0.00000016      -0.00000048       0.00000004      -0.00000086       0.00000220      -0.00000074
I        2.27606774       1.60942290       7.88976149      -0.00320353      -0.00226344       0.00000008
I        6.83424577       4.83254108       7.88976134       0.00320239       0.00226368      -0.00000023
I        5.69470028       1.60942260       5.91601324       0.00160158      -0.00226389      -0.00277475
I        3.41561244       4.83254132       9.86350997      -0.00160101       0.00226347       0.00277244
I        3.41561239       4.83254162       5.91601286      -0.00160026       0.00226270      -0.00277132
I        5.69470019       1.60942248       9.86350939       0.00160191      -0.00226486       0.00277454
