9
Lattice="6.06847942055211 8.281815230844746e-08 3.50363912215456 2.022826552090687 5.7214170016832755 3.5036391213031326 -9.646325056960672e-08 -6.92525900911556e-08 7.007278411388315" Properties=species:S:1:pos:R:3:forces:R:3 energy=-19.47400665283203 free_energy=-19.47400665283203 stress="6.534419662784785e-05 -1.0323251586896731e-08 -7.477020780299881e-09 -1.0323251586896731e-08 6.538548768730834e-05 2.405649901504603e-09 -7.477020780299881e-09 2.405649901504603e-09 6.554569699801505e-05" pbc="T T T"
Hg       2.02282641       1.43035402       3.50363921      -0.00000029      -0.00000050       0.00000034
Hg       6.06847947       4.29106319      10.51091741       0.00000048       0.00000031       0.00000010
Ga       0.00000037       0.00000008       0.00000074      -0.00000203       0.00000243      -0.00000845
Cl       1.93442268       1.36784276       7.00727851      -0.00130588      -0.00092447      -0.00000017
Cl       6.15688390       4.35357367       7.00727826       0.00130385       0.00092351      -0.00000016
Cl       5.10126819       1.36784362       5.17890108       0.00065245      -0.00092196      -0.00113940
Cl       2.99003706       4.35357354       8.83565492      -0.00065361       0.00092551       0.00114173
Cl       2.99003694       4.35357350       5.17890132      -0.00065064       0.00092161      -0.00113738
Cl       5.10126837       1.36784349       8.83565522       0.00065550      -0.00092646       0.00114366
