9
Lattice="6.830537275803767 -3.6138607956219816e-07 3.94361257900428 2.276845679500523 6.4398914400229055 3.9436121258698793 3.6099170918110757e-07 -2.997145662922712e-07 7.887224532752756" Properties=species:S:1:pos:R:3:forces:R:3 energy=-13.743410110473633 free_energy=-13.743410110473633 stress="-2.5897899831761606e-05 -7.51040563073957e-09 4.1175862719455836e-10 -7.51040563073957e-09 -2.5891706172842532e-05 8.07120065227096e-11 4.1175862719455836e-10 8.07120065227096e-11 -2.587367271189578e-05" pbc="T T T"
Hg       2.27684587       1.60997274       3.94361225      -0.00000012      -0.00000003       0.00000037
Hg       6.83053741       4.82991826      11.83083687       0.00000011       0.00000010      -0.00000000
Ga      -0.00000027      -0.00000028       0.00000180       0.00000133       0.00000208      -0.00001124
I        2.27535536       1.60891778       7.88722515       0.00059082       0.00041781      -0.00000253
I        6.83202856       4.83097320       7.88722525      -0.00059439      -0.00041994      -0.00000191
I        5.69286035       1.60891688       5.91412673      -0.00029894       0.00042318       0.00051589
I        3.41452400       4.83097197       9.86032128       0.00029285      -0.00041351      -0.00050905
I        3.41452233       4.83097347       5.91412630       0.00029989      -0.00042395       0.00051667
I        5.69285976       1.60891916       9.86032136      -0.00029160       0.00041431      -0.00050822
