9
Lattice="4.892801547389842 4.043597660791229e-08 2.8248604731692692 1.6309338422676434 4.612977762491289 2.8248605510868865 -2.0298473506172122e-08 8.107600878026425e-08 5.649720981496593" Properties=species:S:1:pos:R:3:forces:R:3 energy=-30.01089859008789 free_energy=-30.01089859008789 stress="0.00025064751389436424 8.810758345134673e-09 -5.004556413723549e-08 8.810758345134673e-09 0.0002506388700567186 5.252389456700257e-08 -5.004556413723549e-08 5.252389456700257e-08 0.00025064311921596527" pbc="T T T"
Hg       1.63093374       1.15324451       2.82486061      -0.00000020      -0.00000001      -0.00000336
Hg       4.89280168       3.45973315       8.47458131       0.00000080       0.00000050      -0.00000426
Ga      -0.00000011       0.00000015      -0.00000231      -0.00000836      -0.00000786       0.00004476
F        1.55276464       1.09797030       5.64972135      -0.00352678      -0.00249359      -0.00000164
F        4.97096986       3.51500696       5.64972143       0.00354019       0.00250402      -0.00000235
F        4.11641936       1.09797085       4.16959507       0.00177102      -0.00250626      -0.00307089
F        2.40731651       3.51500698       7.12984771      -0.00176643       0.00249380       0.00305462
F        2.40731599       3.51500757       4.16959474      -0.00177090       0.00250158      -0.00306705
F        4.11641948       1.09797095       7.12984781       0.00176062      -0.00249225       0.00305077
