9
Lattice="6.349870371283797 6.74409699664349e-08 3.6660993364123287 2.116623488898297 5.986715387341194 3.666099391457145 -1.0902088325461215e-08 5.970694168334027e-08 7.332198691707619" Properties=species:S:1:pos:R:3:forces:R:3 energy=-16.545087814331055 free_energy=-16.545087814331055 stress="0.00023221748415380716 2.199014970116764e-09 -1.553121853348216e-09 2.199014970116764e-09 0.00023221253650262952 7.916158284437813e-10 -1.553121853348216e-09 7.916158284437813e-10 0.00023219861031975597" pbc="T T T"
Hg       2.11662353       1.49667880       3.66609938       0.00000017       0.00000019       0.00000031
Hg       6.34987024       4.49003664      10.99829810      -0.00000001      -0.00000028      -0.00000044
Ga       0.00000010      -0.00000010       0.00000030       0.00000063       0.00000076      -0.00000183
Br       2.07936454       1.47033320       7.33219866      -0.00609154      -0.00430772      -0.00000004
Br       6.38712921       4.51638239       7.33219880       0.00609067       0.00430715       0.00000028
Br       5.31018798       1.47033296       5.46688179       0.00304554      -0.00430727      -0.00527459
Br       3.15630595       4.51638238       9.19751530      -0.00304602       0.00430802       0.00527522
Br       3.15630589       4.51638246       5.46688195      -0.00304566       0.00430718      -0.00527418
Br       5.31018794       1.47033326       9.19751562       0.00304611      -0.00430804       0.00527534
