9
Lattice="6.068222259136395 -6.466029666151752e-08 3.5034898264684937 2.022740783828651 5.721175317822972 3.503489667560623 -1.9175621146754875e-07 -3.302137687765984e-07 7.006979985068506" Properties=species:S:1:pos:R:3:forces:R:3 energy=-19.474000930786133 free_energy=-19.474000930786133 stress="9.257897909265012e-05 1.9311098498064894e-08 5.700541372277712e-09 1.9311098498064894e-08 9.261241211788729e-05 -1.0185928545070055e-08 5.700541372277712e-09 -1.0185928545070055e-08 9.262665116693825e-05" pbc="T T T"
Hg       2.02274052       1.43029383       3.50349025      -0.00000025      -0.00000007      -0.00000023
Hg       6.06822195       4.29088110      10.51046902       0.00000008       0.00000001      -0.00000005
Ga       0.00000027      -0.00000006      -0.00000122      -0.00000563       0.00000208       0.00001280
Cl       1.93456379       1.36794359       7.00698048      -0.00288713      -0.00204408       0.00000062
Cl       6.15639844       4.35323142       7.00698023       0.00289232       0.00204971       0.00000124
Cl       5.10094036       1.36794454       5.17887195       0.00144744      -0.00205061      -0.00251058
Cl       2.99002185       4.35323083       8.83508855      -0.00144103       0.00203791       0.00249723
Cl       2.99002315       4.35323119       5.17887171      -0.00144753       0.00204781      -0.00250450
Cl       5.10094129       1.36794335       8.83508688       0.00144176      -0.00204268       0.00250313
