9
Lattice="5.786070423300722 2.401866249433752e-07 3.3405890643147207 1.928690291928736 5.455159264671952 3.3405891952956184 -1.2826686301480084e-07 6.971967240909716e-08 6.681178350794324" Properties=species:S:1:pos:R:3:forces:R:3 energy=-32.30194854736328 free_energy=-32.30194854736328 stress="-6.642875086981803e-05 -1.216234313261566e-08 -2.6426004495760935e-08 -1.216234313261566e-08 -6.643040251219645e-05 5.0417046537631904e-08 -2.6426004495760935e-08 5.0417046537631904e-08 -6.6432636231184e-05" pbc="T T T"
Hg       1.92869186       1.36379056       3.34058815      -0.00000030      -0.00000013       0.00000039
Hg       5.78607051       4.09136940      10.02176989      -0.00000002       0.00000022      -0.00000039
Ir      -0.00000014       0.00000080      -0.00000027      -0.00000695      -0.00005008       0.00000757
F        1.57144198       1.11117735       6.68117825       0.00118259       0.00083750      -0.00000024
F        6.14331782       4.34398221       6.68117762      -0.00116065      -0.00082035       0.00000060
F        5.00034909       1.11117809       4.70149764      -0.00058661       0.00083224       0.00101778
F        2.71441105       4.34398141       8.66085849       0.00058123      -0.00081970      -0.00100547
F        2.71441153       4.34398141       4.70149784       0.00058118      -0.00081943       0.00100543
F        5.00034865       1.11117704       8.66085875      -0.00059080       0.00083970      -0.00102557
