9
Lattice="6.225455155838561 -2.0424422154644883e-08 3.5942683674872127 2.075151723474758 5.8694152948371725 3.594268325713043 -3.2957527300001945e-08 -7.446724427736193e-08 7.188536792058732" Properties=species:S:1:pos:R:3:forces:R:3 energy=-24.103975296020508 free_energy=-24.103975296020508 stress="-1.2196406942166504e-06 1.5264395969438738e-08 -3.092359479595075e-09 1.5264395969438738e-08 -1.24156690617383e-06 -4.269487874353217e-09 -3.092359479595075e-09 -4.269487874353217e-09 -1.2202931429783348e-06" pbc="T T T"
Hg       2.07515191       1.46735337       3.59426825      -0.00000009      -0.00000000       0.00000004
Hg       6.22545511       4.40206180      10.78280514       0.00000003       0.00000004      -0.00000002
Ir       0.00000010      -0.00000008       0.00000009      -0.00000375      -0.00000429       0.00000017
Cl       1.90649092       1.34809267       7.18853732       0.00482914       0.00341550      -0.00000054
Cl       6.39411507       4.52132232       7.18853704      -0.00482264      -0.00341173      -0.00000023
Cl       5.27220957       1.34809246       5.24533796      -0.00241476       0.00341468       0.00418165
Cl       3.02839748       4.52132285       9.13173489       0.00241287      -0.00341442      -0.00418022
Cl       3.02839765       4.52132290       5.24533840       0.00241275      -0.00341386       0.00417992
Cl       5.27220960       1.34809241       9.13173493      -0.00241348       0.00341396      -0.00418085
