9
Lattice="6.356548644511209 4.36331369791035e-08 3.6699550031075603 2.118849483410853 5.9930117138998495 3.6699551865272237 -1.1109171758743707e-07 1.4608859900432676e-07 7.339910198631625" Properties=species:S:1:pos:R:3:forces:R:3 energy=-21.34545135498047 free_energy=-21.34545135498047 stress="0.0001771226670825854 5.524241508680916e-09 -1.0056554700099696e-08 5.524241508680916e-09 0.00017712439876049757 1.517541292628266e-08 -1.0056554700099696e-08 1.517541292628266e-08 0.00017709530948195606" pbc="T T T"
Hg       2.11884966       1.49825299       3.66995517       0.00000001       0.00000013      -0.00000010
Hg       6.35654837       4.49475887      11.00986514       0.00000014      -0.00000001       0.00000009
Ir       0.00000095      -0.00000067      -0.00000090      -0.00001949       0.00000835       0.00002258
Br       2.03312606       1.43763767       7.33991026      -0.00202307      -0.00143164       0.00000007
Br       6.44227117       4.55537424       7.33991026       0.00203230       0.00143571      -0.00000023
Br       5.33998496       1.43763810       5.43069440       0.00101959      -0.00144155      -0.00176445
Br       3.13541275       4.55537448       9.24912608      -0.00100869       0.00142689       0.00174676
Br       3.13541277       4.55537437       5.43069463      -0.00101377       0.00143433      -0.00175679
Br       5.33998540       1.43763761       9.24912645       0.00101300      -0.00143215       0.00175206
