9
Lattice="6.642196424957803 -3.225061383179398e-08 3.834873977302316 2.214065455653908 6.262322768487894 3.83487395812116 1.3209804409786299e-08 -1.4151204848688947e-08 7.669747931724501" Properties=species:S:1:pos:R:3:forces:R:3 energy=-18.859434127807617 free_energy=-18.859434127807617 stress="-3.3001637348206714e-05 -2.6310429390719037e-08 -6.89007739751446e-09 -2.6310429390719037e-08 -3.298796582384966e-05 1.3873417081811112e-08 -6.89007739751446e-09 1.3873417081811112e-08 -3.296032082289457e-05" pbc="T T T"
Hg       2.21406550       1.56558058       3.83487404      -0.00000007      -0.00000003       0.00000016
Hg       6.64219645       4.69674202      11.50462177      -0.00000003       0.00000011       0.00000006
Ir      -0.00000029       0.00000006       0.00000060       0.00000291      -0.00000265      -0.00000678
I        2.18893797       1.54781288       7.66974802       0.00429689       0.00303844      -0.00000018
I        6.66732390       4.71451008       7.66974787      -0.00429771      -0.00303945       0.00000016
I        5.54772748       1.54781272       5.73055016      -0.00214830       0.00303815       0.00372117
I        3.30853479       4.71450954       9.60894522       0.00214518      -0.00303349      -0.00371538
I        3.30853461       4.71451000       5.73055017       0.00214842      -0.00303801       0.00371990
I        5.54772720       1.54781303       9.60894561      -0.00214734       0.00303696      -0.00371913
