9
Lattice="6.934884631168511 1.0689109030060893e-07 4.003857552417309 2.311628338446885 6.538272030724859 4.003857505167647 1.3214806526631406e-07 3.557418095203794e-08 8.007714875947235" Properties=species:S:1:pos:R:3:forces:R:3 energy=-21.0239315032959 free_energy=-21.0239315032959 stress="6.731082976330072e-05 -1.327519605354155e-08 1.0624281898685695e-08 -1.327519605354155e-08 6.732546171406284e-05 -2.7791697831958118e-09 1.0624281898685695e-08 -2.7791697831958118e-09 6.732524343533441e-05" pbc="T T T"
Hg       2.31162835       1.63456821       4.00385765       0.00000009      -0.00000019      -0.00000026
Hg       6.93488484       4.90370388      12.01157230      -0.00000017       0.00000008      -0.00000027
Mo       0.00000015      -0.00000026      -0.00000281      -0.00000383       0.00000412       0.00002881
I        2.26315009       1.60028847       8.00771493      -0.00134999      -0.00095436       0.00000048
I        6.98336300       4.93798361       8.00771461       0.00135052       0.00095561       0.00000172
I        5.80330940       1.60028997       5.96380396       0.00068100      -0.00096416      -0.00117968
I        3.44320261       4.93798381      10.05162791      -0.00066949       0.00094731       0.00116055
I        3.44320395       4.93798241       5.96380358      -0.00068124       0.00096262      -0.00117759
I        5.80331018       1.60028871      10.05162753       0.00067313      -0.00095119       0.00116614
