9
Lattice="6.087221062289733 4.4351621713863116e-07 3.5144592245417594 2.0290740257081326 5.7390881191325445 3.5144593628859924 2.265389902905592e-07 3.296232013887435e-07 7.028918056706625" Properties=species:S:1:pos:R:3:forces:R:3 energy=-35.62628936767578 free_energy=-35.62628936767578 stress="-0.00028865976491943 -3.694274752774618e-08 -2.5865441344308238e-08 -3.694274752774618e-08 -0.0002886228612624109 3.973281081925961e-08 -2.5865441344308238e-08 3.973281081925961e-08 -0.00028860766906291246" pbc="T T T"
Hg       2.02907177       1.43477130       3.51446006       0.00000134       0.00000103      -0.00000150
Hg       6.08722349       4.30431569      10.54338271      -0.00000081       0.00000067      -0.00000258
Mo      -0.00000002       0.00000046      -0.00000086       0.00001511      -0.00001421       0.00001089
F        1.57677679       1.11495056       7.02891736      -0.00552283      -0.00390555      -0.00000023
F        6.53951888       4.62413909       7.02891681       0.00551724       0.00390235       0.00000119
F        5.29883315       1.11495012       4.87998754       0.00276127      -0.00390594      -0.00478457
F        2.81746183       4.62413934       9.17784716      -0.00276349       0.00391054       0.00479028
F        2.81746271       4.62413900       4.87998790      -0.00276488       0.00390952      -0.00478984
F        5.29883293       1.11495008       9.17784756       0.00275718      -0.00389837       0.00477642
