9
Lattice="6.763967979222672 1.8921571986054755e-07 3.9051787036711496 2.2546561736335056 6.377130077559214 3.905178699921235 1.910902073521008e-09 -3.241364747759591e-09 7.81035740403257" Properties=species:S:1:pos:R:3:forces:R:3 energy=-24.328691482543945 free_energy=-24.328691482543945 stress="-0.00013052405847702175 3.0327274913588553e-08 -5.346516562809711e-09 3.0327274913588553e-08 -0.00013056007446721196 1.637291191514123e-08 -5.346516562809711e-09 1.637291191514123e-08 -0.00013057573232799768" pbc="T T T"
Hg       2.25465607       1.59428254       3.90517889       0.00000010      -0.00000012      -0.00000032
Hg       6.76396794       4.78284761      11.71553605       0.00000017       0.00000002       0.00000039
Mo       0.00000020      -0.00000027       0.00000044       0.00000072       0.00000335       0.00000186
Br       2.05027272       1.44976176       7.81035692       0.00471634       0.00333503       0.00000037
Br       6.96835160       4.92736891       7.81035730      -0.00471863      -0.00333746       0.00000083
Br       5.73883136       1.44976178       5.68076635      -0.00235935       0.00333674       0.00408792
Br       3.27979216       4.92736894       9.93994805       0.00236165      -0.00333980      -0.00408950
Br       3.27979245       4.92736849       5.68076662       0.00236100      -0.00333876       0.00408948
Br       5.73883208       1.44976138       9.93994869      -0.00236196       0.00334098      -0.00409108
