9
Lattice="4.8722342712266276 8.097632395502572e-08 2.8129859103816073 1.624078238241305 4.593586647166997 2.81298578656214 -2.0228634624944337e-08 -1.6595109825321006e-07 5.6259718558002545" Properties=species:S:1:pos:R:3:forces:R:3 energy=-23.723478317260742 free_energy=-23.723478317260742 stress="-0.00016478740144520998 2.6112326168004074e-07 2.7189585694031848e-08 2.6112326168004074e-07 -0.00016464205691590905 -4.672748588063769e-08 2.7189585694031848e-08 -4.672748588063769e-08 -0.00016479175246786326" pbc="T T T"
Hg       1.62407905       1.14839652       2.81298519      -0.00000003       0.00000000      -0.00000052
Hg       4.87223419       3.44518997       8.43895703       0.00000161      -0.00000087      -0.00000055
N        0.00000008      -0.00000061       0.00000040      -0.00000290       0.00001319      -0.00000176
F        1.38665936       0.98051698       5.62597121       0.00462615       0.00326395       0.00000390
F        5.10965398       3.61307006       5.62597167      -0.00463188      -0.00326839       0.00000089
F        4.17890530       0.98051518       4.01386858      -0.00232464       0.00328371       0.00401360
F        2.31740664       3.61307070       7.23807737       0.00232542      -0.00328305      -0.00402308
F        2.31740612       3.61307108       4.01386732       0.00232786      -0.00328287       0.00401759
F        4.17890511       0.98051641       7.23807506      -0.00232175       0.00327462      -0.00401038
