9
Lattice="6.989298564317434 9.981069436852015e-07 4.035273678870754 2.3297661793965205 6.589575346950476 4.035275323857966 -1.3522168349501588e-06 1.0585274849071054e-06 8.070549699849247" Properties=species:S:1:pos:R:3:forces:R:3 energy=-16.52135467529297 free_energy=-16.52135467529297 stress="-0.00010338050196878612 -6.55118128634058e-08 2.242079411018949e-08 -6.55118128634058e-08 -0.00010329206270398572 -5.193431107386459e-08 2.242079411018949e-08 -5.193431107386459e-08 -0.00010336744890082628" pbc="T T T"
Hg       2.32976788       1.64739101       4.03527482      -0.00000028       0.00000025      -0.00000023
Hg       6.98929491       4.94218556      12.10582465       0.00000025      -0.00000009       0.00000001
N        0.00000024       0.00000295      -0.00000060      -0.00000232      -0.00001232       0.00000566
Cl       1.75138903       1.23841996       8.07055200       0.00552781       0.00391755      -0.00000165
Cl       7.56767980       5.35115545       8.07054895      -0.00555223      -0.00391251      -0.00000367
Cl       6.11360307       1.23841791       5.55202442      -0.00275975       0.00391279       0.00478674
Cl       3.20545802       5.35115996      10.58907574       0.00277312      -0.00391039      -0.00480643
Cl       3.20546225       5.35115082       5.55201802       0.00276960      -0.00390136       0.00479923
Cl       6.11359895       1.23842560      10.58907665      -0.00275628       0.00390601      -0.00477973
