9
Lattice="4.872331698120534 -1.0164419109667376e-07 2.813041871397857 1.6241103537811032 4.59367735184578 2.8130420730573475 -4.630449826345691e-09 2.43707122338121e-07 5.626083750815875" Properties=species:S:1:pos:R:3:forces:R:3 energy=-23.723480224609375 free_energy=-23.723480224609375 stress="-2.8256046789465472e-05 1.764349222277417e-10 6.558297371839217e-08 1.764349222277417e-10 -2.8341552024357952e-05 6.328254187337734e-08 6.558297371839217e-08 6.328254187337734e-08 -2.8179185392218642e-05" pbc="T T T"
Hg       1.62411025       1.14842072       2.81304354       0.00000082       0.00000162      -0.00000017
Hg       4.87233279       3.44526048       8.43912398      -0.00000004       0.00000122       0.00000176
N       -0.00000068       0.00000023      -0.00000051       0.00000972      -0.00000676      -0.00000519
F        1.38684479       0.98064847       5.62608397       0.00073409       0.00051019       0.00000375
F        5.10959497       3.61302927       5.62608307      -0.00072223      -0.00051820       0.00000487
F        4.17890823       0.98064750       4.01408430      -0.00036624       0.00050986       0.00063986
F        2.31753353       3.61302970       7.23808061       0.00036454      -0.00051785      -0.00062275
F        2.31753423       3.61302667       4.01408771       0.00035349      -0.00050616       0.00061786
F        4.17891025       0.98064636       7.23808391      -0.00037405       0.00052518      -0.00064069
