9
Lattice="6.84569759268982 1.0124431256672325e-07 3.9523651097144255 2.2818991432081956 6.454185037994895 3.952365369192246 -1.761450992128557e-07 1.9324036730078003e-07 7.904730524521411" Properties=species:S:1:pos:R:3:forces:R:3 energy=-20.681318283081055 free_energy=-20.681318283081055 stress="-7.522680971305817e-05 2.9571296522590274e-08 2.8026759579802274e-08 2.9571296522590274e-08 -7.524091779487208e-05 -5.488655752117211e-09 2.8026759579802274e-08 -5.488655752117211e-09 -7.527868001488969e-05" pbc="T T T"
Hg       2.28189928       1.61354615       3.95236479      -0.00000006      -0.00000006       0.00000040
Hg       6.84569726       4.84063872      11.85709559       0.00000006       0.00000036      -0.00000016
P       -0.00000012       0.00000024       0.00000012       0.00000415      -0.00000975      -0.00000466
Cl       1.78681780       1.26347071       7.90472997      -0.00284430      -0.00201082       0.00000001
Cl       7.34077899       5.19071445       7.90473001       0.00284749       0.00201488       0.00000206
Cl       5.95228949       1.26347069       5.49979467       0.00141658      -0.00200599      -0.00245804
Cl       3.17530767       5.19071398      10.30966677      -0.00142317       0.00201237       0.00246248
Cl       3.17530775       5.19071498       5.49979483      -0.00142258       0.00200996      -0.00246352
Cl       5.95228856       1.26347157      10.30966701       0.00142178      -0.00201115       0.00246137
