9
Lattice="6.9084312204244185 7.922356106319386e-08 3.9885848402646884 2.3028105687505884 6.513331139176198 3.9885846891440297 1.1820010880510308e-07 -1.015042858020659e-07 7.977169475800814" Properties=species:S:1:pos:R:3:forces:R:3 energy=-16.89638900756836 free_energy=-16.89638900756836 stress="-0.00014619631110690534 1.3759351880082704e-08 9.517147070425835e-09 1.3759351880082704e-08 -0.00014625105541199446 -3.552713401244745e-10 9.517147070425835e-09 -3.552713401244745e-10 -0.00014615028339903802" pbc="T T T"
Hg       2.30281024       1.62833268       3.98858490       0.00000036       0.00000025       0.00000004
Hg       6.90843159       4.88499887      11.96575423      -0.00000022      -0.00000027      -0.00000038
P        0.00000033      -0.00000026      -0.00000062      -0.00000097       0.00000243       0.00000136
Br       1.97486925       1.39644296       7.97717007       0.00544792       0.00385192      -0.00000074
Br       7.23637180       5.11688781       7.97716968      -0.00544417      -0.00385171       0.00000017
Br       5.92099668       1.39644362       5.69887272      -0.00272474       0.00385186       0.00471443
Br       3.29024520       5.11688785      10.25546560       0.00272328      -0.00385368      -0.00471187
Br       3.29024562       5.11688776       5.69887339       0.00272276      -0.00385353       0.00471181
Br       5.92099685       1.39644309      10.25546630      -0.00272416       0.00385287      -0.00471464
