9
Lattice="6.776735246579521 -6.38983969530317e-08 3.912549999955206 2.258911726363441 6.389167144154313 3.912549934574118 4.510046647557124e-08 -4.81841110270172e-08 7.825099921793692" Properties=species:S:1:pos:R:3:forces:R:3 energy=-14.48253059387207 free_energy=-14.48253059387207 stress="6.594580190721899e-05 -1.2990406084156803e-08 -8.289521069571038e-09 -1.2990406084156803e-08 6.596094317501411e-05 5.6432818418272745e-09 -8.289521069571038e-09 5.6432818418272745e-09 6.595940794795752e-05" pbc="T T T"
Hg       2.25891167       1.59729163       3.91255018       0.00000014       0.00000000       0.00000005
Hg       6.77673527       4.79187539      11.73764983       0.00000000       0.00000002      -0.00000007
P        0.00000017       0.00000032      -0.00000009      -0.00000036      -0.00000043      -0.00000006
I        2.27122163       1.60599630       7.82509984      -0.00488974      -0.00345747       0.00000018
I        6.76442538       4.78317055       7.82510007       0.00488934       0.00345787      -0.00000010
I        5.64112400       1.60599638       5.87948595       0.00244615      -0.00345863      -0.00423597
I        3.39452277       4.78317067       9.77071393      -0.00244538       0.00345831       0.00423533
I        3.39452274       4.78317039       5.87948575      -0.00244543       0.00345877      -0.00423515
I        5.64112447       1.60599640       9.77071405       0.00244524      -0.00345835       0.00423583
