9
Lattice="6.302312048071907 2.1351125412810113e-08 3.638641443563464 2.1007706978551726 5.941876739533934 3.6386414521639168 -2.168459054045826e-08 -4.799936735757085e-09 7.277282924685715" Properties=species:S:1:pos:R:3:forces:R:3 energy=-20.318201065063477 free_energy=-20.318201065063477 stress="8.73944372870028e-05 5.137169356572713e-09 -6.400119323402009e-10 5.137169356572713e-09 8.740279008634388e-05 8.209166679762347e-09 -6.400119323402009e-10 8.209166679762347e-09 8.739944314584136e-05" pbc="T T T"
Hg       2.10077076       1.48546918       3.63864141      -0.00000012       0.00000009      -0.00000027
Hg       6.30231197       4.45640754      10.91592449       0.00000007       0.00000015       0.00000000
Rh      -0.00000006       0.00000027      -0.00000038       0.00000155      -0.00000250       0.00000567
Br       2.02929403       1.43492746       7.27728302      -0.00053300      -0.00037706      -0.00000008
Br       6.37378916       4.50694924       7.27728290       0.00053180       0.00037650       0.00000010
Br       5.28766512       1.43492741       5.39606122       0.00026667      -0.00037693      -0.00046190
Br       3.11541734       4.50694922       9.15850465      -0.00026493       0.00037635       0.00046008
Br       3.11541742       4.50694937       5.39606122      -0.00026688       0.00037766      -0.00046220
Br       5.28766520       1.43492734       9.15850463       0.00026483      -0.00037425       0.00045857
