9
Lattice="5.885730888981274 -1.9501205892160463e-08 3.398128283534131 1.9619102643867017 5.549120815197344 3.39812830701109 6.074311972486602e-08 7.170532955520688e-08 6.796256461858284" Properties=species:S:1:pos:R:3:forces:R:3 energy=-34.15216827392578 free_energy=-34.15216827392578 stress="-0.00038761578616686165 2.8575373178796326e-08 -2.4946629206823445e-09 2.8575373178796326e-08 -0.0003876357222907245 -7.074390850903001e-09 -2.4946629206823445e-09 -7.074390850903001e-09 -0.00038768735248595476" pbc="T T T"
Hg       1.96191057       1.38728010       3.39812863       0.00000010       0.00000025      -0.00000072
Hg       5.88573217       4.16184016      10.19438317      -0.00000104       0.00000023      -0.00000063
Ru      -0.00000032      -0.00000002      -0.00000057       0.00000944       0.00000366       0.00003013
F        1.56292247       1.10515366       6.79625665       0.00515944       0.00364831      -0.00000124
F        6.28471837       4.44396797       6.79625711      -0.00516793      -0.00365357      -0.00000183
F        5.10426937       1.10515275       4.75165937      -0.00258141       0.00365107       0.00446874
F        2.74337128       4.44396756       8.84085460       0.00258627      -0.00365660      -0.00448254
F        2.74337100       4.44396795       4.75165905       0.00258147      -0.00364998       0.00446942
F        5.10426942       1.10515348       8.84085419      -0.00258662       0.00365657      -0.00448126
