9
Lattice="5.103269735544711 4.418452775202222e-08 2.946374165963165 1.7010898837797856 4.811409142879164 2.946374286732153 -6.506564952436797e-08 1.0190288624382131e-07 5.892748444623453" Properties=species:S:1:pos:R:3:forces:R:3 energy=-31.01315689086914 free_energy=-31.01315689086914 stress="0.0003240492660552263 -4.2487130258450634e-08 1.5199622893646847e-08 -4.2487130258450634e-08 0.00032401326461695135 -2.5335758380151674e-08 1.5199622893646847e-08 -2.5335758380151674e-08 0.0003240838705096394" pbc="T T T"
Hg       1.70109020       1.20285229       2.94637402       0.00000019      -0.00000016      -0.00000120
Hg       5.10326966       3.60855677       8.83912255       0.00000019       0.00000024      -0.00000058
Rh      -0.00000001       0.00000015      -0.00000037      -0.00000059      -0.00000101       0.00000930
F        1.60083451       1.13196082       5.89274860      -0.00172433      -0.00121896      -0.00000130
F        5.20352521       3.67944840       5.89274847       0.00172475       0.00122021      -0.00000135
F        4.30285246       1.13196068       4.33273792       0.00086295      -0.00122124      -0.00149781
F        2.50150736       3.67944800       7.45275930      -0.00086428       0.00122237       0.00149509
F        2.50150687       3.67944855       4.33273780      -0.00086399       0.00122182      -0.00149885
F        4.30285188       1.13196157       7.45275940       0.00086519      -0.00122322       0.00149673
