9
Lattice="6.6442338183767085 1.1246916723157362e-07 3.83605013144388 2.214744693739434 6.264243874845149 3.8360501633534825 -1.4026330491206346e-08 2.916307784591876e-08 7.672100287182122" Properties=species:S:1:pos:R:3:forces:R:3 energy=-17.923049926757812 free_energy=-17.923049926757812 stress="-1.2706032975984272e-05 -8.434031806281439e-10 -3.456124719747322e-09 -8.434031806281439e-10 -1.2695877558144275e-05 -4.825188582024964e-10 -3.456124719747322e-09 -4.825188582024964e-10 -1.270127177122049e-05" pbc="T T T"
Hg       2.21474500       1.56606110       3.83605008      -0.00000014       0.00000015       0.00000012
Hg       6.64423361       4.69818284      11.50815050       0.00000009      -0.00000016      -0.00000027
Rh       0.00000001      -0.00000004       0.00000004       0.00000094       0.00000005       0.00000118
I        2.18774976       1.54697260       7.67210015       0.00056673       0.00040084      -0.00000007
I        6.67122867       4.71727139       7.67210045      -0.00056757      -0.00040131      -0.00000015
I        5.55035902       1.54697268       5.73069696      -0.00028360       0.00040090       0.00049076
I        3.30861955       4.71727139       9.61350359       0.00028371      -0.00040101      -0.00049124
I        3.30861967       4.71727156       5.73069695       0.00028351      -0.00040061       0.00049073
I        5.55035875       1.54697258       9.61350363      -0.00028363       0.00040121      -0.00049102
