9
Lattice="6.357082670774438 -2.7338074240291316e-08 3.6702633884344515 2.119027337606379 5.993515548002654 3.6702637236624693 -2.7188582997094486e-07 2.1831628176396662e-07 7.3405272477889385" Properties=species:S:1:pos:R:3:forces:R:3 energy=-24.57680892944336 free_energy=-24.57680892944336 stress="0.00010647473391145468 -3.3851879521762385e-08 -2.7958579451592414e-08 -3.3851879521762385e-08 0.0001064659736584872 5.125392021909647e-08 -2.7958579451592414e-08 5.125392021909647e-08 0.00010649466275935993" pbc="T T T"
Hg       2.11902731       1.49837908       3.67026369      -0.00000019      -0.00000023      -0.00000022
Hg       6.35708205       4.49513672      11.01079073       0.00000015      -0.00000004       0.00000022
Ru      -0.00000031      -0.00000035      -0.00000013       0.00000214       0.00000299       0.00000478
Cl       1.90656101       1.34814213       7.34052708       0.00263044       0.00186044       0.00000057
Cl       6.56954848       4.64537401       7.34052699      -0.00263047      -0.00186217       0.00000047
Cl       5.40380190       1.34814278       5.32139439      -0.00131361       0.00185806       0.00227445
Cl       3.07230821       4.64537341       9.35965988       0.00131342      -0.00186139      -0.00227585
Cl       3.07230836       4.64537314       5.32139477       0.00131397      -0.00185981       0.00227627
Cl       5.40380173       1.34814241       9.35965999      -0.00131616       0.00186247      -0.00228068
