9
Lattice="6.650340425985151 1.4186300833669417e-07 3.8395757644626274 2.2167802674037125 6.270001094144156 3.8395757789098535 1.2761440386736773e-08 2.671789257777295e-08 7.67915150682176" Properties=species:S:1:pos:R:3:forces:R:3 energy=-18.783113479614258 free_energy=-18.783113479614258 stress="8.084997534751892e-05 1.4160707273447315e-08 -7.81485098855228e-09 1.4160707273447315e-08 8.08310869615525e-05 1.0377785741866319e-08 -7.81485098855228e-09 1.0377785741866319e-08 8.082737622316927e-05" pbc="T T T"
Hg       2.21678012       1.56750036       3.83957575      -0.00000006       0.00000006       0.00000004
Hg       6.65034056       4.70250076      11.51872732       0.00000009       0.00000025       0.00000019
Ru       0.00000006       0.00000063       0.00000047       0.00000028      -0.00000611      -0.00000225
I        2.20195316       1.55701626       7.67915143      -0.00275997      -0.00195209       0.00000010
I        6.66516707       4.71298479       7.67915173       0.00276428       0.00195374      -0.00000039
I        5.54936406       1.55701610       5.74652283       0.00137874      -0.00195048      -0.00238827
I        3.31775707       4.71298475       9.61177955      -0.00138213       0.00195356       0.00239335
I        3.31775673       4.71298518       5.74652328      -0.00138021       0.00195162      -0.00239098
I        5.54936398       1.55701626       9.61177991       0.00137899      -0.00195056       0.00238827
