9
Lattice="6.123423966994944 -6.683949552801708e-08 3.535360110866788 2.0411412695386466 5.77321949735285 3.535360093158947 1.907085649108108e-09 -2.0339221885047272e-08 7.070720218430539" Properties=species:S:1:pos:R:3:forces:R:3 energy=-22.77035140991211 free_energy=-22.77035140991211 stress="6.720510282320902e-05 3.496733924635009e-08 -9.607225237573402e-09 3.496733924635009e-08 6.719028169754893e-05 1.4762870925721927e-08 -9.607225237573402e-09 1.4762870925721927e-08 6.715360359521583e-05" pbc="T T T"
Hg       2.04114134       1.44330481       3.53536008      -0.00000002       0.00000008      -0.00000001
Hg       6.12342399       4.32991456      10.60608028       0.00000017       0.00000002      -0.00000013
Rh      -0.00000002       0.00000022       0.00000044      -0.00000059      -0.00000249      -0.00000416
Cl       1.91498173       1.35409696       7.07071984      -0.00154620      -0.00109403       0.00000068
Cl       6.24958332       4.41912229       7.07071965       0.00154793       0.00109559       0.00000060
Cl       5.16593322       1.35409661       5.19378272       0.00077155      -0.00109194      -0.00133558
Cl       2.99863211       4.41912240       8.94765777      -0.00077334       0.00109392       0.00133760
Cl       2.99863192       4.41912274       5.19378300      -0.00077115       0.00109129      -0.00133528
Cl       5.16593328       1.35409691       8.94765795       0.00077169      -0.00109251       0.00133584
