9
Lattice="7.152011912257766 4.5294438720775244e-08 4.129215994053851 2.3840038454024897 6.742981598062302 4.129216285132173 -1.3368991767889004e-07 2.619635175414417e-07 8.25843221966538" Properties=species:S:1:pos:R:3:forces:R:3 energy=-14.833392143249512 free_energy=-14.833392143249512 stress="8.871890167938545e-05 -5.141516545847935e-09 -4.862522828830151e-09 -5.141516545847935e-09 8.872160833561793e-05 6.453175327436611e-09 -4.862522828830151e-09 6.453175327436611e-09 8.871962199918926e-05" pbc="T T T"
Hg       2.38400402       1.68574535       4.12921673       0.00000050      -0.00000032      -0.00000064
Hg       7.15201182       5.05723655      12.38764796      -0.00000050       0.00000057       0.00000054
Sb      -0.00000033       0.00000143      -0.00000072       0.00000354      -0.00000959       0.00000464
I        2.43965305       1.72509556       8.25843264      -0.00305922      -0.00216368      -0.00000052
I        7.09636229       5.01788637       8.25843214       0.00306024       0.00216536       0.00000004
I        5.93218489       1.72509572       6.24201867       0.00153038      -0.00216480      -0.00265130
I        3.60383074       5.01788568      10.27484555      -0.00153179       0.00216757       0.00265242
I        3.60383099       5.01788576       6.24201828      -0.00153088       0.00216654      -0.00265341
I        5.93218503       1.72509522      10.27484666       0.00152772      -0.00216167       0.00264832
