9
Lattice="6.370885055195232 -6.32858067706047e-07 3.6782322193908996 2.123628236989777 6.0065273538836275 3.67823138467687 1.7354982280309828e-07 -8.995934112147306e-07 7.356464138184461" Properties=species:S:1:pos:R:3:forces:R:3 energy=-32.169090270996094 free_energy=-32.169090270996094 stress="-4.949211870552972e-06 -1.6927733881288987e-08 -2.548629307597139e-09 -1.6927733881288987e-08 -4.955059466738021e-06 1.728085941010704e-08 -2.548629307597139e-09 1.728085941010704e-08 -4.964299478160683e-06" pbc="T T T"
Hg       2.12362664       1.50162994       3.67822870       0.00000048       0.00000017       0.00000103
Hg       6.37088479       4.50489382      11.03469754      -0.00000020       0.00000063      -0.00000046
Sb       0.00000026       0.00000057       0.00000044       0.00001728      -0.00001366      -0.00001138
F        1.57528217       1.11389235       7.35646466       0.00065541       0.00046319      -0.00000157
F        6.91923179       4.89263430       7.35646356      -0.00066188      -0.00046787       0.00000076
F        5.58324501       1.11389200       5.04246671      -0.00033313       0.00047001       0.00057659
F        2.91127005       4.89263354       9.67046136       0.00032391      -0.00045612      -0.00056222
F        2.91127016       4.89263547       5.04246560       0.00032726      -0.00046399       0.00056985
F        5.58324399       1.11389102       9.67046244      -0.00032920       0.00046763      -0.00057268
