9
Lattice="6.736977975747653 6.313583492632059e-08 3.8895959774161435 2.2456593655348533 6.351683587760794 3.8895960107396577 3.835667068485971e-08 6.79350735644526e-08 7.779191888396451" Properties=species:S:1:pos:R:3:forces:R:3 energy=-20.71101188659668 free_energy=-20.71101188659668 stress="0.0001375176216242835 -2.322475101124155e-09 -1.2285441997050839e-08 -2.322475101124155e-09 0.00013747750199399889 2.6801421526556624e-08 -1.2285441997050839e-08 2.6801421526556624e-08 0.0001374659186694771" pbc="T T T"
Hg       2.24565909       1.58792089       3.88959592       0.00000007       0.00000013      -0.00000010
Hg       6.73697827       4.76376260      11.66878765       0.00000022      -0.00000000       0.00000001
Sb      -0.00000267      -0.00000246       0.00000027       0.00004653       0.00004392      -0.00000165
Cl       1.97967497       1.39984062       7.77919184      -0.00467652      -0.00330450       0.00000018
Cl       7.00296513       4.95184478       7.77919153       0.00462662       0.00326999       0.00000117
Cl       5.74714067       1.39984081       5.60404336       0.00232738      -0.00329135      -0.00402988
Cl       3.23549642       4.95184354       9.95434106      -0.00232571       0.00328648       0.00402518
Cl       3.23549654       4.95184369       5.60404266      -0.00232459       0.00328378      -0.00402161
Cl       5.74714115       1.39984034       9.95434107       0.00232595      -0.00328836       0.00402684
