9
Lattice="6.729375725781745 3.3783977409676567e-08 3.8852072254710084 2.2431252952339085 6.344516290282571 3.8852071883102157 -7.254523510403332e-09 -5.064218287556192e-08 7.770414463507105" Properties=species:S:1:pos:R:3:forces:R:3 energy=-20.711023330688477 free_energy=-20.711023330688477 stress="-0.00011874795745825395 6.073327085687197e-08 -2.432413026554059e-08 6.073327085687197e-08 -0.00011878903751494363 3.496939626757012e-08 -2.432413026554059e-08 3.496939626757012e-08 -0.00011880707461386919" pbc="T T T"
Hg       2.24312536       1.58612925       3.88520722       0.00000018      -0.00000034       0.00000005
Hg       6.72937604       4.75838785      11.65562136      -0.00000020      -0.00000015      -0.00000000
Sb       0.00000026      -0.00000033       0.00000006      -0.00000530       0.00000316       0.00000348
Cl       1.97849564       1.39900775       7.77041466       0.00495362       0.00350256      -0.00000024
Cl       6.99400515       4.94550819       7.77041470      -0.00495098      -0.00350104      -0.00000021
Cl       5.74012794       1.39900723       5.59863468      -0.00247758       0.00350343       0.00429033
Cl       3.23237254       4.94550944       9.94219388       0.00247994      -0.00350731      -0.00429379
Cl       3.23237241       4.94550931       5.59863421       0.00248148      -0.00350934       0.00429682
Cl       5.74012873       1.39900635       9.94219475      -0.00248124       0.00350910      -0.00429653
