9
Lattice="7.145142346912532 1.125036770866023e-07 4.125249802610562 2.381714230229566 6.736504551532413 4.125249787848975 7.88216684316145e-08 3.765618370060335e-08 8.250499468697987" Properties=species:S:1:pos:R:3:forces:R:3 energy=-14.833377838134766 free_energy=-14.833377838134766 stress="-4.6731552174605895e-06 1.089714007918019e-08 5.7102726991331565e-09 1.089714007918019e-08 -4.675256150221685e-06 -1.2996489218153329e-08 5.7102726991331565e-09 -1.2996489218153329e-08 -4.6754580580454785e-06" pbc="T T T"
Hg       2.38171422       1.68412624       4.12524986      -0.00000028       0.00000036       0.00000017
Hg       7.14514241       5.05237846      12.37574922       0.00000043      -0.00000026      -0.00000019
Sb      -0.00000047      -0.00000039      -0.00000146       0.00000194       0.00000244       0.00001091
I        2.43951731       1.72499980       8.25049955      -0.00341146      -0.00241089      -0.00000054
I        7.08733962       5.01150562       8.25049942       0.00340995       0.00240955      -0.00000093
I        5.92538351       1.72499942       6.23793374       0.00170494      -0.00241204      -0.00295421
I        3.60147258       5.01150610      10.26306607      -0.00170296       0.00240836       0.00294940
I        3.60147290       5.01150528       6.23793412      -0.00170621       0.00241235      -0.00295493
I        5.92538455       1.72499833      10.26306576       0.00170378      -0.00240982       0.00295028
