9
Lattice="6.7202159829391865 -2.6898715800949504e-09 3.8799188189855283 2.2400720826316403 6.335880483349792 3.879918661620707 1.447246253920794e-07 -9.039590065319844e-08 7.759837387300915" Properties=species:S:1:pos:R:3:forces:R:3 energy=-17.541858673095703 free_energy=-17.541858673095703 stress="-0.00010439304605824873 -3.188358743688724e-10 5.377408296425301e-09 -3.188358743688724e-10 -0.00010439473408041522 8.927084849119638e-09 5.377408296425301e-09 8.927084849119638e-09 -0.00010436875891173258" pbc="T T T"
Hg       2.24007216       1.58397007       3.87991880       0.00000010       0.00000010      -0.00000002
Hg       6.72021602       4.75191034      11.63975606      -0.00000014       0.00000007      -0.00000012
Sb       0.00000021      -0.00000076       0.00001274      -0.00000504       0.00000919      -0.00014156
Br       2.15783536       1.52581913       7.75983743      -0.00672741      -0.00475644       0.00000068
Br       6.80245263       4.81006015       7.75983668       0.00672811       0.00475746       0.00000222
Br       5.64130021       1.52581805       5.74865681       0.00334483      -0.00473200      -0.00579421
Br       3.31899132       4.81005843       9.77101251      -0.00338090       0.00478113       0.00585861
Br       3.31898822       4.81006373       5.74865614      -0.00334393       0.00472662      -0.00578989
Br       5.64129667       1.52582241       9.77101219       0.00338442      -0.00478615       0.00586428
