9
Lattice="6.369438856246294 2.1445038603728757e-07 3.6773971103575027 2.1231462763825686 6.005165954233777 3.677397476199414 -1.4545334687416535e-07 3.4521163586633456e-07 7.354794472647435" Properties=species:S:1:pos:R:3:forces:R:3 energy=-32.16908645629883 free_energy=-32.16908645629883 stress="1.1579077181522734e-05 1.202093926622183e-07 -2.8691484743603723e-08 1.202093926622183e-07 1.1537684258655645e-05 2.13718038821753e-08 -2.8691484743603723e-08 2.13718038821753e-08 1.1435864507802762e-05" pbc="T T T"
Hg       2.12314687       1.50128890       3.67739212      -0.00000022       0.00000065      -0.00000026
Hg       6.36943588       4.50387588      11.03219018       0.00000050      -0.00000036      -0.00000072
Sb       0.00000023      -0.00000042      -0.00000106       0.00000744       0.00002547       0.00005951
F        1.57536118       1.11395034       7.35479550      -0.00119030      -0.00084335      -0.00000265
F        6.91722383       4.89121737       7.35479532       0.00117728       0.00083172      -0.00000354
F        5.58175937       1.11394760       5.04170127       0.00059085      -0.00083795      -0.00103027
F        2.91082782       4.89121849       9.66789088      -0.00057931       0.00081694       0.00099823
F        2.91082669       4.89121883       5.04170104      -0.00058557       0.00082853      -0.00102088
F        5.58175746       1.11394957       9.66789037       0.00057931      -0.00082162       0.00100079
