9
Lattice="7.08020820370008 1.2198039111209094e-07 4.087760382490409 2.3600696204803766 6.675284252788772 4.0877602019366135 8.335699653550443e-08 -1.6218993742138482e-07 8.175520620602182" Properties=species:S:1:pos:R:3:forces:R:3 energy=-28.13794708251953 free_energy=-28.13794708251953 stress="-6.617264261876699e-06 -1.5075057868685349e-09 9.059121452992258e-09 -1.5075057868685349e-09 -6.6149696067441255e-06 -1.1186077841784936e-08 9.059121452992258e-09 -1.1186077841784936e-08 -6.598053914785851e-06" pbc="T T T"
Hg       2.36006881       1.66882066       4.08776052      -0.00000025       0.00000010      -0.00000031
Hg       7.08020889       5.00646325      12.26328053      -0.00000000      -0.00000027       0.00000019
Ta      -0.00000004      -0.00000000       0.00000020       0.00000206      -0.00000099       0.00000156
Br       2.06698289       1.46157750       8.17552065       0.00052050       0.00036789       0.00000029
Br       7.37329521       5.21370659       8.17552070      -0.00052117      -0.00036798      -0.00000028
Br       6.04671703       1.46157794       5.87782031      -0.00026070       0.00036814       0.00044987
Br       3.39356076       5.21370695      10.47322087       0.00026099      -0.00036878      -0.00045067
Br       3.39356109       5.21370655       5.87782023       0.00025929      -0.00036652       0.00044908
Br       6.04671705       1.46157742      10.47322096      -0.00026071       0.00036839      -0.00044976
