9
Lattice="7.512727313812552 1.8119735229973088e-07 4.337475512449502 2.5042427075925606 7.083067416931516 4.337475341287249 2.233983630471303e-07 -5.1663725526447044e-08 8.674950637961693" Properties=species:S:1:pos:R:3:forces:R:3 energy=-23.9808406829834 free_energy=-23.9808406829834 stress="-1.179750597657403e-05 3.0693820818328277e-09 5.928557200718387e-09 3.0693820818328277e-09 -1.1792623809014913e-05 -8.413500118820139e-09 5.928557200718387e-09 -8.413500118820139e-09 -1.1792850273195654e-05" pbc="T T T"
Hg       2.50424228       1.77076681       4.33747472       0.00000006      -0.00000004      -0.00000016
Hg       7.51272772       5.31230075      13.01242701      -0.00000023       0.00000016       0.00000021
Ta      -0.00000065       0.00000066       0.00000044       0.00000789      -0.00000377       0.00000025
I        2.25958120       1.59776541       8.67495010       0.00042380       0.00029922       0.00000072
I        7.75738994       5.48530218       8.67495011      -0.00042827      -0.00030211       0.00000060
I        6.38293748       1.59776481       6.29433025      -0.00021418       0.00030261       0.00037092
I        3.63403276       5.48530286      11.05557166       0.00021345      -0.00030100      -0.00036807
I        3.63403267       5.48530219       6.29433017       0.00021191      -0.00029824       0.00036596
I        6.38293764       1.59776431      11.05557129      -0.00021440       0.00030320      -0.00037049
