9
Lattice="6.268342166680702 -4.404424898010701e-07 3.6190295571287603 2.0894472810314824 5.909849088778467 3.619029024711792 1.3485829282114648e-07 -5.567158032251004e-07 7.238058880676133" Properties=species:S:1:pos:R:3:forces:R:3 energy=-45.266536712646484 free_energy=-45.266536712646484 stress="-2.6848776997212553e-06 -1.2382518121967223e-08 -2.8086814651828718e-08 -1.2382518121967223e-08 -2.7069697807746707e-06 5.0988468558443856e-08 -2.8086814651828718e-08 5.0988468558443856e-08 -2.66969550466456e-06" pbc="T T T"
Hg       2.08944728       1.47746133       3.61902911      -0.00000042      -0.00000011      -0.00000005
Hg       6.26834145       4.43238562      10.85708299       0.00000042       0.00000070       0.00000186
Ta       0.00000021       0.00000014       0.00000044       0.00000618      -0.00000433       0.00000566
F        1.56956617       1.10984982       7.23805952       0.00025651       0.00018223      -0.00000027
F        6.78822297       4.79999904       7.23806002      -0.00025785      -0.00018440      -0.00000233
F        5.48355963       1.10984978       4.97831424      -0.00012670       0.00018135       0.00022069
F        2.87423108       4.79999766       9.49780472       0.00012383      -0.00017823      -0.00021899
F        2.87422969       4.79999822       4.97831339       0.00012888      -0.00018223       0.00022227
F        5.48355934       1.10985055       9.49780569      -0.00013083       0.00018498      -0.00022894
