9
Lattice="6.8970471572892045 1.7452016312473138e-07 3.9820119972332213 2.299015715643059 6.5025988840444775 3.9820122882050253 -1.8929080937401022e-07 2.2251734467068356e-07 7.9640243223278695" Properties=species:S:1:pos:R:3:forces:R:3 energy=-32.2301025390625 free_energy=-32.2301025390625 stress="-3.612468935898505e-05 -5.577264761136291e-10 -7.925647693696192e-09 -5.577264761136291e-10 -3.612156797316857e-05 4.3745664868311e-09 -7.925647693696192e-09 4.3745664868311e-09 -3.60801859642379e-05" pbc="T T T"
Hg       2.29901526       1.62564972       3.98201159       0.00000007       0.00000009       0.00000005
Hg       6.89704731       4.87694988      11.94603649      -0.00000038      -0.00000052      -0.00000024
Ta      -0.00000013       0.00000017      -0.00000067      -0.00000027       0.00000083       0.00000446
Cl       1.93249813       1.36648261       7.96402480       0.00103836       0.00073438      -0.00000082
Cl       7.26356477       5.13611631       7.96402492      -0.00103840      -0.00073403      -0.00000115
Cl       5.93079818       1.36648251       5.65560497      -0.00051869       0.00073408       0.00089516
Cl       3.26526458       5.13611635      10.27244368       0.00051919      -0.00073418      -0.00089735
Cl       3.26526459       5.13611675       5.65560537       0.00051972      -0.00073504       0.00089694
Cl       5.93079797       1.36648285      10.27244326      -0.00051950       0.00073438      -0.00089704
