9
Lattice="6.444934386457416 -1.6156812139573114e-07 3.7209843863305943 2.1483114152249057 6.076342045372709 3.72098420377189 8.106747497706508e-08 -1.662644769088828e-07 7.441968632248069" Properties=species:S:1:pos:R:3:forces:R:3 energy=-14.15635871887207 free_energy=-14.15635871887207 stress="0.0001815819850889966 5.715249606907946e-09 -5.8425775328885265e-09 5.715249606907946e-09 0.00018157409795094281 1.29150059535732e-08 -5.8425775328885265e-09 1.29150059535732e-08 0.00018158458988182247" pbc="T T T"
Hg       2.14831142       1.51908554       3.72098445       0.00000003       0.00000023       0.00000002
Hg       6.44493446       4.55725630      11.16295293      -0.00000017      -0.00000021       0.00000045
Tl       0.00000005      -0.00000022       0.00000056      -0.00000258      -0.00000191      -0.00000316
Br       2.22345500       1.57222013       7.44196856      -0.00511453      -0.00361636       0.00000006
Br       6.36978972       4.50412098       7.44196848       0.00512051       0.00362089      -0.00000051
Br       5.33320676       1.57222054       5.64655317       0.00255756      -0.00361854      -0.00443124
Br       3.26003929       4.50412187       9.23738408      -0.00256024       0.00361909       0.00443253
Br       3.26003951       4.50412171       5.64655267      -0.00255845       0.00361702      -0.00443009
Br       5.33320731       1.57222003       9.23738403       0.00255802      -0.00362019       0.00443198
