9
Lattice="6.297214198661003 -1.3486792697741923e-07 3.6356982489743617 2.099071246181056 5.937070545355664 3.635698294385024 -7.400544726029495e-08 3.286866848606246e-09 7.2713966261298895" Properties=species:S:1:pos:R:3:forces:R:3 energy=-16.955869674682617 free_energy=-16.955869674682617 stress="-0.0001297106355195865 3.0961275765406526e-09 4.235414685638261e-09 3.0961275765406526e-09 -0.0001297237613471225 1.4181121166245703e-08 4.235414685638261e-09 1.4181121166245703e-08 -0.0001297197595704347" pbc="T T T"
Hg       2.09907128       1.48426747       3.63569823      -0.00000031       0.00000007       0.00000011
Hg       6.29721400       4.45280263      10.90709470       0.00000014       0.00000004      -0.00000010
Tl      -0.00000015       0.00000031      -0.00000020       0.00000134       0.00000205       0.00000166
Cl       2.11755914       1.49734051       7.27139680       0.00383349       0.00270914       0.00000036
Cl       6.27872631       4.43972996       7.27139641      -0.00383425      -0.00271226       0.00000028
Cl       5.23843447       1.49734083       5.46955905      -0.00191610       0.00271008       0.00331827
Cl       3.15785074       4.43972985       9.07323447       0.00191699      -0.00271057      -0.00331968
Cl       3.15785095       4.43972978       5.46955840       0.00191659      -0.00271007       0.00332040
Cl       5.23843469       1.49734033       9.07323485      -0.00191782       0.00271145      -0.00332131
