9
Lattice="5.530484949492702 1.1886978491275266e-07 3.19302682705681 1.8434950516477349 5.21419126878008 3.1930269025534526 -4.8761125385378033e-08 5.798484085076041e-08 6.386053738570452" Properties=species:S:1:pos:R:3:forces:R:3 energy=-37.192230224609375 free_energy=-37.192230224609375 stress="-2.723276793403784e-06 -2.4679996712961838e-08 1.0789997340054924e-08 -2.4679996712961838e-08 -2.676120175237884e-06 1.727884857416484e-08 1.0789997340054924e-08 1.727884857416484e-08 -2.7182202302356018e-06" pbc="T T T"
Hg       1.84349458       1.30354529       3.19302831      -0.00000078      -0.00000642       0.00000429
Hg       5.53048401       3.91064304       9.57908172      -0.00000260      -0.00000164       0.00000233
Y       -0.00000018      -0.00000000       0.00000007       0.00000020       0.00000198      -0.00000253
F        1.77757423       1.25693466       6.38605295       0.00013059       0.00009307      -0.00000031
F        5.59640592       3.95725709       6.38605295      -0.00013289      -0.00009301      -0.00000234
F        4.64169755       1.25693554       4.73245056      -0.00006469       0.00009203       0.00010890
F        2.73228316       3.95725774       8.03965569       0.00006558      -0.00008571      -0.00011277
F        2.73228259       3.95725748       4.73245180       0.00006561      -0.00008947       0.00011358
F        4.64169799       1.25693518       8.03965588      -0.00006120       0.00008902      -0.00011045
