9
Lattice="7.984047144604429 -1.7950144276381935e-06 4.6095929112490674 2.661347139248266 7.527432153919295 4.609593286406357 -2.849604887541133e-07 2.579744894110924e-07 9.219186316063935" Properties=species:S:1:pos:R:3:forces:R:3 energy=-22.05502700805664 free_energy=-22.05502700805664 stress="-2.6205195808870485e-06 -9.998530714483422e-08 -5.665994784465056e-09 -9.998530714483422e-08 -2.5494293822703185e-06 3.9844319510429216e-10 -5.665994784465056e-09 3.9844319510429216e-10 -2.4202865915867733e-06" pbc="T T T"
Hg       2.66134826       1.88185865       4.60959253      -0.00000014       0.00000000       0.00000002
Hg       7.98404581       5.64557290      13.82878023       0.00000020      -0.00000005       0.00000009
Y       -0.00000121      -0.00000262       0.00000136       0.00000945       0.00001871      -0.00000809
I        2.48054494       1.75401551       9.21918606       0.00013831       0.00009868       0.00000059
I        8.16485266       5.77341555       9.21918660      -0.00015578      -0.00010975      -0.00000046
I        6.74376915       1.75401003       6.75781655      -0.00006391       0.00009218       0.00010690
I        3.90162388       5.77342119      11.68055618       0.00006627      -0.00009269      -0.00010957
I        3.90162347       5.77342095       6.75781641       0.00006873      -0.00009574       0.00011390
I        6.74376937       1.75401015      11.68055403      -0.00006310       0.00008863      -0.00010346
