9
Lattice="7.38457651561242 -8.300873014884166e-09 4.263486837993892 2.4615253533584496 6.962245193569452 4.263487087442877 -2.807048139135208e-07 1.0702345918550525e-07 8.526974162182526" Properties=species:S:1:pos:R:3:forces:R:3 energy=-28.001203536987305 free_energy=-28.001203536987305 stress="9.857286386250053e-06 5.5254009367899926e-08 -3.0205813406070092e-09 5.5254009367899926e-08 9.83972040558001e-06 -7.281223624033828e-09 -3.0205813406070092e-09 -7.281223624033828e-09 9.779961146705318e-06" pbc="T T T"
Hg       2.46152430       1.74056112       4.26348693      -0.00000007      -0.00000018       0.00000013
Hg       7.38457652       5.22168370      12.79046143      -0.00000010      -0.00000018       0.00000007
Y       -0.00000065      -0.00000014       0.00000092       0.00000555       0.00000355      -0.00000231
Cl       2.15427358       1.52330149       8.52697387      -0.00098613      -0.00069763       0.00000123
Cl       7.69182815       5.43894370       8.52697385       0.00098234       0.00069545       0.00000030
Cl       6.30744092       1.52330152       6.12914125       0.00048789      -0.00069095      -0.00084487
Cl       3.53866174       5.43894604      10.92480740      -0.00048840       0.00068915       0.00084433
Cl       3.53866091       5.43894350       6.12914068      -0.00048859       0.00069141      -0.00084484
Cl       6.30744094       1.52330036      10.92480624       0.00048761      -0.00069071       0.00084600
