9
Lattice="6.918049549579212 -3.455720028600988e-10 3.994137779047321 2.3060165238402988 6.522399680830407 3.994137765815052 -1.7887594053964013e-08 -2.885468615749111e-08 7.988275589076829" Properties=species:S:1:pos:R:3:forces:R:3 energy=-21.883811950683594 free_energy=-21.883811950683594 stress="8.405643893638626e-05 -3.740102449967253e-09 2.0327144412135567e-09 -3.740102449967253e-09 8.406871347688138e-05 -5.2930664296013674e-09 2.0327144412135567e-09 -5.2930664296013674e-09 8.406895358348265e-05" pbc="T T T"
In       2.30601659       1.63059993       3.99413780       0.00000010       0.00000006       0.00000025
In       6.91804934       4.89179971      11.98241336       0.00000019       0.00000018      -0.00000003
As       0.00000004       0.00000029      -0.00000019       0.00000068      -0.00000208      -0.00000015
I        2.31924586       1.63995438       7.98827524      -0.00237824      -0.00168134       0.00000044
I        6.90482023       4.88244530       7.98827570       0.00237815       0.00168239      -0.00000025
I        5.75842651       1.63995445       6.00266348       0.00118892      -0.00168165      -0.00205947
I        3.46563949       4.88244519       9.97388779      -0.00118921       0.00168198       0.00205994
I        3.46563947       4.88244494       6.00266362      -0.00118946       0.00168245      -0.00206063
I        5.75842669       1.63995442       9.97388776       0.00118888      -0.00168201       0.00205988
