9
Lattice="6.550287789380033 3.437055238943834e-08 3.7818104645807 2.1834293012100146 6.17567055549039 3.7818104547453384 5.2181266108557286e-08 2.4851919184639925e-08 7.5636208387808885" Properties=species:S:1:pos:R:3:forces:R:3 energy=-24.70859718322754 free_energy=-24.70859718322754 stress="-1.0542864401941188e-05 9.386972088520906e-09 -1.0843757003442533e-08 9.386972088520906e-09 -1.0547454621701036e-05 1.872591415263969e-09 -1.0843757003442533e-08 1.872591415263969e-09 -1.0547917554504238e-05" pbc="T T T"
In       2.18342896       1.54391743       3.78180995      -0.00000036      -0.00000004      -0.00000006
In       6.55028763       4.63175317      11.34543139       0.00000009       0.00000000      -0.00000014
As       0.00000007      -0.00000017       0.00000039       0.00000034      -0.00000076      -0.00000325
Br       2.14739438       1.51843726       7.56362087      -0.00593956      -0.00419975      -0.00000073
Br       6.58632288       4.65723342       7.56362094       0.00593916       0.00420007      -0.00000048
Br       5.47659097       1.51843672       5.64150837       0.00296809      -0.00419762      -0.00514223
Br       3.25712653       4.65723355       9.48573347      -0.00296985       0.00420066       0.00514370
Br       3.25712644       4.65723382       5.64150827      -0.00296824       0.00419753      -0.00514149
Br       5.47659071       1.51843726       9.48573341       0.00297028      -0.00420018       0.00514469
