9
Lattice="6.919686875034809 -2.107785332804039e-08 3.995083101841772 2.3065622922258098 6.5239433483958 3.995083066473303 1.253330320673833e-08 -3.44549588867658e-08 7.990166181975211" Properties=species:S:1:pos:R:3:forces:R:3 energy=-21.883787155151367 free_energy=-21.883787155151367 stress="0.0001760651357471943 -1.356663670293301e-08 -2.3185970920991394e-09 -1.356663670293301e-08 0.00017607644258532673 2.856350933555518e-09 -2.3185970920991394e-09 2.856350933555518e-09 0.0001760775048751384" pbc="T T T"
In       2.30656228       1.63098585       3.99508302      -0.00000015       0.00000008       0.00000007
In       6.91968685       4.89295745      11.98524923      -0.00000025       0.00000024      -0.00000000
As       0.00000003      -0.00000023       0.00000008       0.00000022       0.00000056      -0.00000080
I        2.31936652       1.64003973       7.99016613      -0.00253974      -0.00179586       0.00000009
I        6.90688284       4.88390364       7.99016617       0.00253901       0.00179538      -0.00000025
I        5.76000361       1.64003974       6.00371339       0.00127051      -0.00179670      -0.00220010
I        3.46624549       4.88390370       9.97661912      -0.00127037       0.00179681       0.00220072
I        3.46624543       4.88390360       6.00371324      -0.00126978       0.00179603      -0.00219984
I        5.76000365       1.64003970       9.97661902       0.00127053      -0.00179655       0.00220004
