9
Lattice="6.555739390118858 1.8723568621566e-08 3.784957847662319 2.1852464846705333 6.180810269736794 3.7849578413494154 -1.0932427308464583e-08 -1.546207051930138e-08 7.569915714260149" Properties=species:S:1:pos:R:3:forces:R:3 energy=-24.70861053466797 free_energy=-24.70861053466797 stress="0.00017155520617961884 3.6394260938266143e-09 -1.7659962381344485e-09 3.6394260938266143e-09 0.00017155447858385742 1.2528627024721573e-09 -1.7659962381344485e-09 1.2528627024721573e-09 0.00017155034583993256" pbc="T T T"
In       2.18524644       1.54520262       3.78495790       0.00000003      -0.00000023      -0.00000009
In       6.55573939       4.63560769      11.35487347       0.00000004       0.00000033       0.00000005
As       0.00000012      -0.00000002       0.00000072      -0.00000063       0.00000035      -0.00000780
Br       2.14680999       1.51802379       7.56991586      -0.00129309      -0.00091405       0.00000003
Br       6.59417589       4.66278645       7.56991574       0.00129297       0.00091445       0.00000020
Br       5.48233456       1.51802352       5.64414958       0.00064543      -0.00091275      -0.00111794
Br       3.25865152       4.66278634       9.49568141      -0.00064736       0.00091547       0.00112106
Br       3.25865126       4.66278677       5.64414953      -0.00064469       0.00091186      -0.00111689
Br       5.48233425       1.51802395       9.49568132       0.00064730      -0.00091540       0.00112137
