9
Lattice="6.240268230201936 9.377355334837071e-08 3.6028205105563127 2.0800894906111225 5.883381063717628 3.602820524182014 3.129875441618956e-08 3.881945925435618e-08 7.205640966901545" Properties=species:S:1:pos:R:3:forces:R:3 energy=-27.547935485839844 free_energy=-27.547935485839844 stress="8.998844714369625e-05 1.8145762226140505e-08 1.2366908386240993e-08 1.8145762226140505e-08 8.992502989713103e-05 -3.993331443297166e-09 1.2366908386240993e-08 -3.993331443297166e-09 8.992700895760208e-05" pbc="T T T"
In       2.08008924       1.47084494       3.60282070       0.00000009      -0.00000017       0.00000013
In       6.24026881       4.41253687      10.80846112      -0.00000011       0.00000060      -0.00000003
As      -0.00000014       0.00000007       0.00000066      -0.00000051      -0.00000054      -0.00000934
Cl       2.00555878       1.41814428       7.20564098      -0.00196466      -0.00138932       0.00000155
Cl       6.31479848       4.46523638       7.20564099       0.00196770       0.00139190       0.00000044
Cl       5.23748881       1.41814431       5.33968505       0.00098155      -0.00138947      -0.00169930
Cl       3.08286928       4.46523660       9.07159638      -0.00098355       0.00138934       0.00170323
Cl       3.08286900       4.46523663       5.33968550      -0.00098309       0.00138931      -0.00170022
Cl       5.23748879       1.41814475       9.07159660       0.00098251      -0.00139156       0.00170368
