9
Lattice="6.2413927523765045 -2.882881468118086e-07 3.6034697748878353 2.080464007214576 5.88444136220002 3.6034697260041573 6.537489681250306e-08 -1.3643078444386322e-08 7.20693943654296" Properties=species:S:1:pos:R:3:forces:R:3 energy=-27.547927856445312 free_energy=-27.547927856445312 stress="0.00011466357682365924 -5.3629509721986324e-08 -2.3004000926363233e-09 -5.3629509721986324e-08 0.00011471135076135397 -6.472636315812963e-10 -2.3004000926363233e-09 -6.472636315812963e-10 0.00011474683560663834" pbc="T T T"
In       2.08046403       1.47111047       3.60346889      -0.00000020      -0.00000031      -0.00000069
In       6.24139275       4.41333036      10.81040782       0.00000010       0.00000026      -0.00000089
As      -0.00000121      -0.00000052       0.00000082       0.00000874       0.00000435      -0.00000359
Cl       2.00535712       1.41800096       7.20693971      -0.00031564      -0.00022203       0.00000031
Cl       6.31650069       4.46644026       7.20693978       0.00030971       0.00021866       0.00000111
Cl       5.23871397       1.41800136       5.34016077       0.00015868      -0.00022498      -0.00027466
Cl       3.08314309       4.46643980       9.07371849      -0.00016031       0.00022542       0.00027746
Cl       3.08314304       4.46644004       5.34016084      -0.00016022       0.00022395      -0.00027606
Cl       5.23871389       1.41800154       9.07371867       0.00015917      -0.00022534       0.00027707
