9
Lattice="5.2295260356050495 -2.2643593933045743e-07 3.0192679672886715 1.7431752877585829 4.930443555878791 3.0192676970146324 1.4152139624820987e-07 -2.309459586557108e-07 6.03853568945508" Properties=species:S:1:pos:R:3:forces:R:3 energy=-38.8736686706543 free_energy=-38.8736686706543 stress="-5.397763743530959e-05 -8.294915865292296e-10 2.2763282814253216e-08 -8.294915865292296e-10 -5.398059875005856e-05 -4.067071301960823e-08 2.2763282814253216e-08 -4.067071301960823e-08 -5.402673195931129e-05" pbc="T T T"
In       1.74317549       1.23261074       3.01926758       0.00000033       0.00000042      -0.00000006
In       5.22952589       3.69783244       9.05780304      -0.00000007       0.00000039      -0.00000023
As       0.00000010      -0.00000003      -0.00000015      -0.00000331       0.00000129      -0.00000492
F        1.60352507       1.13386290       6.03853602       0.00263435       0.00186288       0.00000041
F        5.36917647       3.79658031       6.03853603      -0.00263342      -0.00186321       0.00000037
F        4.42776358       1.13386266       4.40796109      -0.00131828       0.00186527       0.00228480
F        2.54493819       3.79658008       7.66911057       0.00131842      -0.00186497      -0.00228354
F        2.54493745       3.79658049       4.40796097       0.00131686      -0.00186238       0.00228149
F        4.42776358       1.13386297       7.66911044      -0.00131460       0.00186023      -0.00227821
