9
Lattice="5.358089928624209 9.30935528032262e-08 3.093494756979664 1.7860300909142848 5.0516556427129276 3.093494710323949 4.5928667465648836e-08 -2.4664997096262067e-08 6.186989434408636" Properties=species:S:1:pos:R:3:forces:R:3 energy=-38.23529815673828 free_energy=-38.23529815673828 stress="0.00021215275046415627 -2.4380535368351275e-09 1.3953621591511478e-09 -2.4380535368351275e-09 0.00021212917636148632 5.36224797897944e-09 1.3953621591511478e-09 5.36224797897944e-09 0.0002121765137417242" pbc="T T T"
In       1.78602951       1.26291384       3.09349467      -0.00000044      -0.00000055       0.00000030
In       5.35809026       3.78874171       9.28048418      -0.00000049      -0.00000034      -0.00000094
Bi      -0.00000013      -0.00000012      -0.00000010      -0.00000042      -0.00000205      -0.00000340
F        1.78598099       1.26287907       6.18698952       0.00071532       0.00050616       0.00000019
F        5.35813896       3.78877643       6.18698965      -0.00071388      -0.00050509      -0.00000021
F        4.46509974       1.26287926       4.64019959      -0.00035691       0.00050598       0.00062037
F        2.67902086       3.78877641       7.73377907       0.00035527      -0.00050318      -0.00061762
F        2.67902053       3.78877658       4.64019956       0.00035805      -0.00050575       0.00062019
F        4.46509953       1.26287972       7.73377931      -0.00035661       0.00050479      -0.00061905
