9
Lattice="6.13907189703689 2.832296778504983e-07 3.544394876670589 2.046357473607357 5.787972662441401 3.5443950367751733 7.017490658239231e-08 2.457083861514679e-07 7.088789631794765" Properties=species:S:1:pos:R:3:forces:R:3 energy=-27.93929100036621 free_energy=-27.93929100036621 stress="3.6059307603864e-05 2.660823383848765e-08 2.5220508348411386e-08 2.660823383848765e-08 3.6078388802707195e-05 1.967694984728041e-08 2.5220508348411386e-08 1.967694984728041e-08 3.611067950259894e-05" pbc="T T T"
In       2.04635857       1.44699319       3.54439442       0.00000075       0.00000011      -0.00000016
In       6.13907283       4.34097942      10.63318429       0.00000042       0.00000009      -0.00000025
B        0.00000019       0.00000372       0.00000020       0.00000790       0.00002615      -0.00000012
Cl       1.69379549       1.19769546       7.08878990       0.00123799       0.00087318      -0.00000227
Cl       6.49163207       4.59027655       7.08878974      -0.00125101      -0.00088091      -0.00000055
Cl       5.29217378       1.19769518       5.01126579      -0.00062503       0.00087492       0.00107196
Cl       2.89325560       4.59027720       9.16631392       0.00062440      -0.00088194      -0.00108147
Cl       2.89325515       4.59027708       5.01126641       0.00062601      -0.00088413       0.00108323
Cl       5.29217403       1.19769542       9.16631359      -0.00062132       0.00087255      -0.00106987
