9
Lattice="6.350708435707991 -1.2631570359650666e-07 3.666583357851702 2.1169027156717224 5.987505262358009 3.6665833182559444 1.9517112990297686e-08 -3.469400187110991e-08 7.333166681898807" Properties=species:S:1:pos:R:3:forces:R:3 energy=-27.71046257019043 free_energy=-27.71046257019043 stress="0.0003204912063665688 -2.6220623894346318e-08 -1.3076962845914863e-09 -2.6220623894346318e-08 0.00032052089227363467 -1.5616864246226214e-08 -1.3076962845914863e-09 -1.5616864246226214e-08 0.0003205480461474508" pbc="T T T"
In       2.11690274       1.49687621       3.66658333       0.00000037       0.00000030      -0.00000021
In       6.35070836       4.49062880      10.99975035       0.00000011      -0.00000012       0.00000029
Bi      -0.00000081       0.00000017       0.00000112       0.00001070      -0.00000017      -0.00001013
Cl       2.15864610       1.52639338       7.33316656      -0.00520910      -0.00368331      -0.00000013
Cl       6.30896585       4.46111242       7.33316645       0.00520152       0.00367829       0.00000035
Cl       5.27138553       1.52639298       5.53602564       0.00260128      -0.00367941      -0.00450635
Cl       3.19622599       4.46111125       9.13030673      -0.00260630       0.00368595       0.00451434
Cl       3.19622587       4.46111159       5.53602620      -0.00260406       0.00368313      -0.00451066
Cl       5.27138506       1.52639358       9.13030709       0.00260559      -0.00368471       0.00451259
