9
Lattice="7.071389198109476 -1.631167105426214e-07 4.082668527271061 2.357129600929045 6.666969677581997 4.082668489142058 -7.798021057624908e-08 -1.0183862432432439e-07 8.16533718960778" Properties=species:S:1:pos:R:3:forces:R:3 energy=-21.787935256958008 free_energy=-21.787935256958008 stress="4.662058927351609e-05 -2.225413098244644e-08 -4.512095586051146e-09 -2.225413098244644e-08 4.663488289224915e-05 1.1254062570742462e-08 -4.512095586051146e-09 1.1254062570742462e-08 4.665892993216403e-05" pbc="T T T"
In       2.35712982       1.66674238       4.08266880       0.00000013      -0.00000008      -0.00000004
In       7.07138900       5.00022705      12.24800538      -0.00000043      -0.00000017      -0.00000020
Bi      -0.00000030      -0.00000080       0.00000022       0.00000215       0.00000554       0.00000027
I        2.48719653       1.75871341       8.16533707      -0.00129803      -0.00091846       0.00000001
I        6.94132261       4.90825612       8.16533704       0.00129515       0.00091609      -0.00000014
I        5.82779055       1.75871350       6.23664419       0.00064991      -0.00091940      -0.00112616
I        3.60072818       4.90825606      10.09403023      -0.00064952       0.00091816       0.00112446
I        3.60072775       4.90825631       6.23664376      -0.00064856       0.00091775      -0.00112356
I        5.82779073       1.75871357      10.09403016       0.00064912      -0.00091945       0.00112531
