9
Lattice="7.0728062348152205 2.0644490314905998e-08 4.083486534980491 2.3576020929453603 6.6683057843082105 4.083486543277372 6.402085979991532e-09 1.4688511750870567e-08 8.16697305887224" Properties=species:S:1:pos:R:3:forces:R:3 energy=-21.787919998168945 free_energy=-21.787919998168945 stress="0.00012995413271710277 6.168593635891284e-09 -4.067733261337025e-09 6.168593635891284e-09 0.00012994205462746322 9.217537844108392e-09 -4.067733261337025e-09 9.217537844108392e-09 0.00012994665303267539" pbc="T T T"
In       2.35760212       1.66707648       4.08348654      -0.00000006       0.00000024       0.00000005
In       7.07280624       5.00122934      12.25045955       0.00000004      -0.00000020      -0.00000011
Bi       0.00000006       0.00000023       0.00000040      -0.00000040      -0.00000138      -0.00000179
I        2.48743888       1.75888521       8.16697305      -0.00153083      -0.00108187       0.00000016
I        6.94296915       4.90942052       8.16697309       0.00153142       0.00108226       0.00000019
I        5.82908677       1.75888494       6.23767183       0.00076477      -0.00108142      -0.00132464
I        3.60132176       4.90942066      10.09627402      -0.00076529       0.00108238       0.00132589
I        3.60132157       4.90942082       6.23767181      -0.00076438       0.00108220      -0.00132418
I        5.82908675       1.75888507      10.09627427       0.00076472      -0.00108227       0.00132445
