9
Lattice="4.896417539916862 1.6152414817745263e-07 2.826947870127106 1.6321393414625587 4.616386603673744 2.826947854185554 1.3528996939783301e-07 7.614013354656102e-08 5.653895505925101" Properties=species:S:1:pos:R:3:forces:R:3 energy=-41.56936264038086 free_energy=-41.56936264038086 stress="0.0003507574729155749 3.6562276761742396e-08 -2.8595435352940513e-08 3.6562276761742396e-08 0.000350835791323334 -1.507894697994061e-09 -2.8595435352940513e-08 -1.507894697994061e-09 0.000350802467437461" pbc="T T T"
In       1.63213913       1.15409671       2.82694812      -0.00000031      -0.00000050      -0.00000154
In       4.89641778       3.46229009       8.48084301      -0.00000010      -0.00000019       0.00000042
B       -0.00000006      -0.00000031      -0.00000046      -0.00000044      -0.00000374      -0.00000358
F        1.34548999       0.95140495       5.65389556       0.00048524       0.00034419       0.00000154
F        5.18306716       3.66498190       5.65389564      -0.00048274      -0.00034130      -0.00000013
F        4.22367278       0.95140503       3.99217625      -0.00024289       0.00034386       0.00041813
F        2.30488404       3.66498219       7.31561528       0.00024104      -0.00034320      -0.00041562
F        2.30488399       3.66498174       3.99217605       0.00024214      -0.00034213       0.00041676
F        4.22367314       0.95140484       7.31561539      -0.00024250       0.00034279      -0.00041568
