9
Lattice="6.346020259782786 -4.236832229478825e-08 3.663876458275773 2.115340061595916 5.98308515461364 3.66387643238703 -2.6733126058547194e-08 -5.061033279794721e-08 7.327752962854712" Properties=species:S:1:pos:R:3:forces:R:3 energy=-27.71053123474121 free_energy=-27.71053123474121 stress="4.010631164419465e-05 1.135936145146843e-08 1.0104304948299614e-08 1.135936145146843e-08 4.011627970612608e-05 -1.4256931635259207e-08 1.0104304948299614e-08 -1.4256931635259207e-08 4.008470205008052e-05" pbc="T T T"
In       2.11533995       1.49577130       3.66387652       0.00000009       0.00000005       0.00000013
In       6.34602024       4.48731391      10.99162944      -0.00000005      -0.00000006      -0.00000001
Bi      -0.00000011       0.00000004       0.00000028       0.00000188      -0.00000130      -0.00000097
Cl       2.15803410       1.52596036       7.32775316      -0.00450556      -0.00318523      -0.00000117
Cl       6.30332624       4.45712466       7.32775296       0.00450468       0.00318447      -0.00000084
Cl       5.26700360       1.52596014       5.53278838       0.00225027      -0.00318241      -0.00389852
Cl       3.19435718       4.45712446       9.12271687      -0.00225268       0.00318556       0.00390168
Cl       3.19435700       4.45712484       5.53278883      -0.00225185       0.00318451      -0.00390100
Cl       5.26700300       1.52596051       9.12271688       0.00225311      -0.00318559       0.00390083
