9
Lattice="5.354329431474621 2.0501859279951135e-07 3.0913238684030477 1.784776536146128 5.048110896261771 3.091324101026905 -1.4725419860645514e-07 1.8078045263424343e-07 6.182647991857857" Properties=species:S:1:pos:R:3:forces:R:3 energy=-38.23533248901367 free_energy=-38.23533248901367 stress="-6.228351412573829e-05 -2.0556077728883793e-08 -5.456789509139526e-08 -2.0556077728883793e-08 -6.22742300038226e-05 8.15417493527093e-08 -5.456789509139526e-08 8.15417493527093e-08 -6.22760271653533e-05" pbc="T T T"
In       1.78477602       1.26202805       3.09132397      -0.00000167      -0.00000008      -0.00000019
In       5.35432972       3.78608317       9.27397195       0.00000097      -0.00000054      -0.00000071
Bi       0.00000003      -0.00000003       0.00000000       0.00000091      -0.00000193      -0.00000307
F        1.78593652       1.26284883       6.18264805       0.00090003       0.00063747       0.00000022
F        5.35316936       3.78526272       6.18264804      -0.00090021      -0.00063688       0.00000080
F        4.46136115       1.26284840       4.63799080      -0.00044852       0.00063467       0.00077772
F        2.67774467       3.78526262       7.72730507       0.00044817      -0.00063300      -0.00077510
F        2.67774457       3.78526290       4.63799088       0.00045115      -0.00063819       0.00078183
F        4.46136121       1.26284849       7.72730509      -0.00045061       0.00063854      -0.00078136
