9
Lattice="4.917765985046254 4.414833842240982e-08 2.8392735859662994 1.6392553728788581 4.636514251818373 2.839273580931798 2.2223706388349396e-08 9.548628377738234e-09 5.678547133439988" Properties=species:S:1:pos:R:3:forces:R:3 energy=-39.597312927246094 free_energy=-39.597312927246094 stress="0.00014804024249315262 2.575990754039026e-09 1.9924250693748036e-08 2.575990754039026e-09 0.00014801106590311974 2.452292058308103e-08 1.9924250693748036e-08 2.452292058308103e-08 0.0001479985221521929" pbc="T T T"
In       1.63925521       1.15912854       2.83927364      -0.00000144      -0.00000080      -0.00000180
In       4.91776616       3.47738587       8.51782051       0.00000022       0.00000043      -0.00000105
Ga      -0.00000000      -0.00000009      -0.00000026      -0.00000137       0.00000171       0.00000760
F        1.55567874       1.10003101       5.67854729       0.00130981       0.00092661      -0.00000157
F        5.00134257       3.53648323       5.67854736      -0.00130960      -0.00092733       0.00000038
F        4.13992670       1.10003086       4.18653110      -0.00065438       0.00092512       0.00113341
F        2.41709482       3.53648334       7.17056335       0.00065660      -0.00092697      -0.00113651
F        2.41709470       3.53648341       4.18653098       0.00065441      -0.00092617       0.00113425
F        4.13992665       1.10003103       7.17056328      -0.00065401       0.00092760      -0.00113508
