9
Lattice="6.445110331613274 -1.4929231133078013e-08 3.7210862185893205 2.1483700786236626 6.076508392432795 3.7210862494867745 -4.060169932295181e-08 9.13178492922672e-09 7.442172507502814" Properties=species:S:1:pos:R:3:forces:R:3 energy=-24.101078033447266 free_energy=-24.101078033447266 stress="0.00018121871107723564 -7.188412087799634e-10 -9.596151429036581e-09 -7.188412087799634e-10 0.00018122326582670212 3.321536379274903e-09 -9.596151429036581e-09 3.321536379274903e-09 0.00018121897301170975" pbc="T T T"
In       2.14836997       1.51912725       3.72108662      -0.00000001       0.00000044       0.00000015
In       6.44511012       4.55738152      11.16325898      -0.00000015      -0.00000027      -0.00000007
Ga       0.00000020       0.00000003      -0.00000063      -0.00000134      -0.00000146       0.00000334
Br       2.08515747       1.47442898       7.44217260       0.00318158       0.00224820       0.00000082
Br       6.50832264       4.60207890       7.44217248      -0.00317791      -0.00224692       0.00000017
Br       5.40253150       1.47442916       5.52688545      -0.00158994       0.00224692       0.00275400
Br       3.19094892       4.60207917       9.35745942       0.00159001      -0.00224918      -0.00275370
Br       3.19094876       4.60207934       5.52688528       0.00158896      -0.00224712       0.00275204
Br       5.40253187       1.47442920       9.35745967      -0.00159132       0.00224936      -0.00275663
