9
Lattice="6.442617630972485 -4.146027094432036e-08 3.719646925821334 2.1475392184757607 6.074157815714419 3.7196468439980714 5.290612546315499e-08 -6.280237176139547e-08 7.439293760006562" Properties=species:S:1:pos:R:3:forces:R:3 energy=-24.10114097595215 free_energy=-24.10114097595215 stress="0.00011756922322092578 6.8615069181987565e-09 1.5990885282590739e-09 6.8615069181987565e-09 0.00011757926404243335 7.79100872705385e-09 1.5990885282590739e-09 7.79100872705385e-09 0.00011756548337871209" pbc="T T T"
In       2.14753928       1.51853952       3.71964689       0.00000003       0.00000037       0.00000009
In       6.44261779       4.55561816      11.15894072       0.00000014      -0.00000008      -0.00000033
Ga       0.00000004      -0.00000002      -0.00000009       0.00000140      -0.00000029      -0.00000181
Br       2.08554675       1.47470454       7.43929391      -0.00091714      -0.00064909      -0.00000071
Br       6.50461017       4.59945349       7.43929381       0.00091618       0.00064731      -0.00000018
Br       5.39984423       1.47470422       5.52578305       0.00045772      -0.00064734      -0.00079316
Br       3.19031272       4.59945319       9.35280429      -0.00045913       0.00065064       0.00079530
Br       3.19031260       4.59945341       5.52578330      -0.00045817       0.00064808      -0.00079387
Br       5.39984413       1.47470437       9.35280433       0.00045919      -0.00064951       0.00079444
