9
Lattice="4.919128393491037 -1.2899782342904778e-07 2.8400599843706895 1.6397093449905213 4.637798779945949 2.8400599807094236 -1.0453929224845972e-07 -7.840455733133993e-08 5.680120149808722" Properties=species:S:1:pos:R:3:forces:R:3 energy=-39.59727096557617 free_energy=-39.59727096557617 stress="0.0003041603195015341 2.0720399618312513e-08 3.9262378237481244e-08 2.0720399618312513e-08 0.00030417044763453305 1.4625299193937735e-08 3.9262378237481244e-08 1.4625299193937735e-08 0.0003041909367311746" pbc="T T T"
In       1.63970930       1.15944977       2.84005990      -0.00000058       0.00000098      -0.00000207
In       4.91912818       3.47834894       8.52018006      -0.00000045       0.00000046      -0.00000019
Ga      -0.00000005       0.00000007       0.00000014      -0.00000016      -0.00000346      -0.00000010
F        1.55558048       1.09996153       5.68012024       0.00477698       0.00337714      -0.00000087
F        5.00325727       3.53783682       5.68012009      -0.00477505      -0.00337625       0.00000024
F        4.14133817       1.09996153       4.18723249      -0.00238955       0.00337800       0.00413746
F        2.41749969       3.53783691       7.17300762       0.00238833      -0.00337645      -0.00413433
F        2.41749970       3.53783708       4.18723246       0.00238800      -0.00337771       0.00413543
F        4.14133773       1.09996163       7.17300762      -0.00238757       0.00337708      -0.00413549
