9
Lattice="6.178204907155706 -7.361348946659874e-08 3.5669882356662383 2.0594015629124383 5.8248672995165345 3.5669882415598724 -5.087162506268655e-08 -2.8753483617235173e-08 7.133976559444716" Properties=species:S:1:pos:R:3:forces:R:3 energy=-27.316213607788086 free_energy=-27.316213607788086 stress="0.000294580589979887 7.127996415334792e-09 -5.246193257590903e-09 7.127996415334792e-09 0.0002945732558146119 4.582360269012042e-09 -5.246193257590903e-09 4.582360269012042e-09 0.0002945670858025551" pbc="T T T"
In       2.05940099       1.45621671       3.56698760      -0.00000057      -0.00000004      -0.00000055
In       6.17820440       4.36864978      10.70096525      -0.00000037      -0.00000015       0.00000014
Ga      -0.00000005       0.00000031      -0.00000005       0.00000165      -0.00000117       0.00000192
Cl       1.94085770       1.37239350       7.13397663      -0.00311628      -0.00220329       0.00000092
Cl       6.29674892       4.45247392       7.13397654       0.00311449       0.00220188       0.00000069
Cl       5.20777616       1.37239350       5.24782017       0.00155948      -0.00220373      -0.00269881
Cl       3.02983037       4.45247398       9.02013290      -0.00155681       0.00220227       0.00269762
Cl       3.02983049       4.45247376       5.24782008      -0.00155875       0.00220451      -0.00269878
Cl       5.20777663       1.37239318       9.02013308       0.00155699      -0.00220028       0.00269699
