9
Lattice="6.842608544720797 9.014651263265479e-10 3.9505819617511433 2.280869487278333 6.451273217318102 3.950582011077379 -2.5204708072992852e-08 4.2589598410626e-08 7.9011639671581495" Properties=species:S:1:pos:R:3:forces:R:3 energy=-20.91835594177246 free_energy=-20.91835594177246 stress="-2.2972659280640073e-05 -2.2620549877672147e-09 -1.7961702958313452e-10 -2.2620549877672147e-09 -2.2969104975345545e-05 3.4309892704698086e-09 -1.7961702958313452e-10 3.4309892704698086e-09 -2.2966356482356787e-05" pbc="T T T"
In       2.28086953       1.61281831       3.95058187      -0.00000000      -0.00000016       0.00000011
In       6.84260849       4.83845488      11.85174591       0.00000021      -0.00000012      -0.00000013
Ga       0.00000014      -0.00000009       0.00000023      -0.00000072       0.00000024      -0.00000033
I        2.27580599       1.60923780       7.90116405      -0.00099066      -0.00069989      -0.00000026
I        6.84767202       4.84203539       7.90116404       0.00099093       0.00070035       0.00000010
I        5.70470525       1.60923781       5.92148797       0.00049522      -0.00070029      -0.00085789
I        3.41877269       4.84203544       9.88083986      -0.00049587       0.00070097       0.00085729
I        3.41877256       4.84203556       5.92148794      -0.00049537       0.00069983      -0.00085697
I        5.70470538       1.60923798       9.88083986       0.00049632      -0.00070091       0.00085804
