9
Lattice="6.845150910576179 -4.249068338572415e-08 3.9520497762126143 2.281716947266457 6.453670110565678 3.9520497465338007 2.5835060470514433e-08 -1.80807720776667e-08 7.90409950767755" Properties=species:S:1:pos:R:3:forces:R:3 energy=-20.918338775634766 free_energy=-20.918338775634766 stress="0.00011073550558649004 -5.6416471494458165e-09 -4.044600210306726e-09 -5.6416471494458165e-09 0.00011073672794736922 2.4270154774796993e-09 -4.044600210306726e-09 2.4270154774796993e-09 0.00011075012298533693" pbc="T T T"
In       2.28171698       1.61341754       3.95204976      -0.00000030      -0.00000017       0.00000029
In       6.84515092       4.84025254      11.85614928      -0.00000011      -0.00000016      -0.00000014
Ga      -0.00000009       0.00000003       0.00000014      -0.00000169      -0.00000001       0.00000055
I        2.27588223       1.60929174       7.90409956      -0.00014758      -0.00010426       0.00000014
I        6.85098550       4.84437815       7.90409944       0.00014919       0.00010590       0.00000019
I        5.70720981       1.60929190       5.92302175       0.00007481      -0.00010584      -0.00013016
I        3.41965815       4.84437824       9.88517728      -0.00007401       0.00010483       0.00012834
I        3.41965817       4.84437812       5.92302185      -0.00007447       0.00010505      -0.00012837
I        5.70720983       1.60929194       9.88517705       0.00007425      -0.00010529       0.00012909
