9
Lattice="5.245291963286433 1.5513900405951617e-07 3.0283703808186977 1.748430822176221 4.945308568072308 3.0283703436125506 8.155816580458586e-08 1.2102323812956787e-08 6.056740620374476" Properties=species:S:1:pos:R:3:forces:R:3 energy=-40.05155944824219 free_energy=-40.05155944824219 stress="-0.00011677737347781658 -2.726090464477693e-08 -1.265870630540178e-09 -2.726090464477693e-08 -0.00011674402048811316 3.552091731862106e-09 -1.265870630540178e-09 3.552091731862106e-09 -0.0001167383452411741" pbc="T T T"
In       1.74843091       1.23632731       3.02837030       0.00000030       0.00000007      -0.00000073
In       5.24529172       3.70898185       9.08511111       0.00000005      -0.00000022      -0.00000062
Ir       0.00000012      -0.00000007      -0.00000008       0.00000208      -0.00000249      -0.00001661
F        1.63100302       1.15329277       6.05674067       0.00516580       0.00365224       0.00000023
F        5.36271985       3.79201601       6.05674100      -0.00516615      -0.00365320       0.00000032
F        4.42979090       1.15329286       4.44086001      -0.00258419       0.00365451       0.00447715
F        2.56393232       3.79201527       7.67262099       0.00257850      -0.00364647      -0.00446514
F        2.56393226       3.79201543       4.44085983       0.00258330      -0.00365303       0.00447403
F        4.42979040       1.15329363       7.67262162      -0.00257967       0.00364858      -0.00446851
