9
Lattice="6.742029527118898 1.8048334019536965e-08 3.892512527595595 2.24734316095231 6.356446389249669 3.892512582623106 -2.1224376734446254e-08 5.2386765440168975e-08 7.7850250919528206" Properties=species:S:1:pos:R:3:forces:R:3 energy=-25.89574432373047 free_energy=-25.89574432373047 stress="0.00011679889576043934 -2.5785707791214918e-08 -1.0846802567243685e-08 -2.5785707791214918e-08 0.00011681681644404307 2.4487187388899656e-08 -1.0846802567243685e-08 2.4487187388899656e-08 0.00011683951015584171" pbc="T T T"
In       2.24734321       1.58911171       3.89251267      -0.00000003       0.00000020       0.00000019
In       6.74202942       4.76733475      11.67753757       0.00000006      -0.00000014      -0.00000023
Ir       0.00000024      -0.00000003      -0.00000039       0.00000183       0.00000110       0.00000285
I        2.19691083       1.55345043       7.78502496      -0.00092063      -0.00065051      -0.00000024
I        6.79246176       4.80299593       7.78502510       0.00091868       0.00064895      -0.00000007
I        5.64357395       1.55345083       5.79509332       0.00046211      -0.00065352      -0.00080063
I        3.34579861       4.80299584       9.77495715      -0.00046143       0.00065216       0.00079961
I        3.34579855       4.80299576       5.79509328      -0.00046085       0.00065196      -0.00079836
I        5.64357410       1.55345058       9.77495719       0.00046025      -0.00065025       0.00079691
