9
Lattice="6.445231863003232 -3.613180013440701e-08 3.721156312263339 2.148410593327677 6.076622920970018 3.7211563011921314 1.0107465055221011e-08 -6.412352772005144e-09 7.442312607020026" Properties=species:S:1:pos:R:3:forces:R:3 energy=-28.46809959411621 free_energy=-28.46809959411621 stress="9.841268183663487e-05 -1.3281467481363052e-08 1.877160649144116e-09 -1.3281467481363052e-08 9.844183659879491e-05 1.4413688020908921e-09 1.877160649144116e-09 1.4413688020908921e-09 9.843252337304875e-05" pbc="T T T"
In       2.14841059       1.51915571       3.72115629       0.00000016       0.00000023      -0.00000021
In       6.44523204       4.55746730      11.16346894       0.00000002      -0.00000005       0.00000012
Ir       0.00000014      -0.00000019      -0.00000036      -0.00000144       0.00000154       0.00000287
Br       2.04399552       1.44532321       7.44231282      -0.00064435      -0.00045615      -0.00000019
Br       6.54964686       4.63129963       7.44231257       0.00064419       0.00045601      -0.00000025
Br       5.42323402       1.44532340       5.49130841       0.00032379      -0.00045815      -0.00055975
Br       3.17040824       4.63129970       9.39331696      -0.00032213       0.00045620       0.00055774
Br       3.17040843       4.63129957       5.49130834      -0.00032311       0.00045749      -0.00055901
Br       5.42323407       1.44532319       9.39331692       0.00032275      -0.00045709       0.00055868
