9
Lattice="6.874176943334878 -1.0005900864722132e-08 3.968807968240453 2.2913923127698506 6.481036190803389 3.9688079548022057 5.5408494725765776e-08 2.2721303871963012e-08 7.937615840510517" Properties=species:S:1:pos:R:3:forces:R:3 energy=-28.102115631103516 free_energy=-28.102115631103516 stress="0.00019410141976550221 -6.010114184107351e-09 8.587675459637012e-09 -6.010114184107351e-09 0.0001941009541042149 -8.35496827278348e-09 8.587675459637012e-09 -8.35496827278348e-09 0.00019409385276958346" pbc="T T T"
In       2.29139236       1.62025906       3.96880793       0.00000017       0.00000002      -0.00000005
In       6.87417699       4.86077715      11.90642386       0.00000002       0.00000010      -0.00000013
Mo      -0.00000045       0.00000015       0.00000039       0.00000592      -0.00000024      -0.00000246
I        2.27088433       1.60575780       7.93761600      -0.00158346      -0.00111984       0.00000001
I        6.89468543       4.87527873       7.93761600       0.00157920       0.00111631      -0.00000024
I        5.73873487       1.60575743       5.93545119       0.00079019      -0.00111651      -0.00136749
I        3.42683453       4.87527832       9.93978009      -0.00079152       0.00111921       0.00137092
I        3.42683445       4.87527843       5.93545142      -0.00079131       0.00111917      -0.00137027
I        5.73873471       1.60575775       9.93978027       0.00079075      -0.00111838       0.00136976
