9
Lattice="5.293267439898245 2.2826571450475618e-07 3.0560694627323017 1.764422557679412 4.99054112254743 3.0560697008852173 -4.864521613378253e-08 2.572792248136486e-07 6.112139009720535" Properties=species:S:1:pos:R:3:forces:R:3 energy=-43.17725372314453 free_energy=-43.17725372314453 stress="-0.0002737899194471538 -3.486329447355274e-08 -1.0946044071147298e-08 -3.486329447355274e-08 -0.00027375214267522097 1.309064145971206e-08 -1.0946044071147298e-08 1.309064145971206e-08 -0.00027371448231860995" pbc="T T T"
In       1.76442313       1.24763628       3.05606915      -0.00000012      -0.00000002      -0.00000008
In       5.29326729       3.74290564       9.16820887       0.00000017       0.00000005       0.00000005
Mo      -0.00000015       0.00000003       0.00000008       0.00000215       0.00000294      -0.00000770
F        1.65561691       1.17069834       6.11213923       0.00355461       0.00251350       0.00000020
F        5.40207296       3.81984324       6.11213896      -0.00355691      -0.00251493       0.00000030
F        4.46545901       1.17069852       4.48987579      -0.00177698       0.00251301       0.00307703
F        2.59223077       3.81984260       7.73440254       0.00177535      -0.00251068      -0.00307488
F        2.59223088       3.81984286       4.48987581       0.00177750      -0.00251442       0.00307937
F        4.46545883       1.17069882       7.73440239      -0.00177579       0.00251050      -0.00307420
