9
Lattice="6.207900726042325 -1.5506509889792868e-08 3.584133178163678 2.0693001960469966 5.852864896485565 3.584133232458941 -5.0327439934960515e-08 3.091097083929581e-08 7.168266443497064" Properties=species:S:1:pos:R:3:forces:R:3 energy=-34.92656326293945 free_energy=-34.92656326293945 stress="-2.7545880584511906e-05 4.203269732272474e-09 -1.6522818668818218e-08 4.203269732272474e-09 -2.7545484044821933e-05 1.0522687610148296e-08 -1.6522818668818218e-08 1.0522687610148296e-08 -2.7566984499571845e-05" pbc="T T T"
In       2.06929994       1.46321645       3.58413315      -0.00000004       0.00000032      -0.00000012
In       6.20790070       4.38964869      10.75239942      -0.00000008       0.00000011      -0.00000023
Mo      -0.00000078      -0.00000012      -0.00000091       0.00001963       0.00000435       0.00001620
Cl       1.95661607       1.38353608       7.16826658       0.00122252       0.00086424      -0.00000011
Cl       6.32058616       4.46932914       7.16826654      -0.00123975      -0.00087628      -0.00000013
Cl       5.22959265       1.38353598       5.27861162      -0.00061367       0.00086895       0.00106432
Cl       3.04760746       4.46932900       9.05792166       0.00061751      -0.00087191      -0.00106905
Cl       3.04760789       4.46932860       5.27861171       0.00061318      -0.00086622       0.00106236
Cl       5.22959338       1.38353573       9.05792174      -0.00061935       0.00087643      -0.00107323
