9
Lattice="6.2618820503294 -1.7203834393146712e-07 3.615299559653699 2.0872937608057116 5.903759084281889 3.615299722070752 -1.7386739287912517e-07 7.597649482651483e-08 7.230599420454477" Properties=species:S:1:pos:R:3:forces:R:3 energy=-23.667512893676758 free_energy=-23.667512893676758 stress="-5.8399138652021065e-05 -3.28259730508762e-08 -4.3205908184518194e-08 -3.28259730508762e-08 -5.8275189076084644e-05 -1.0307878284265826e-07 -4.3205908184518194e-08 -1.0307878284265826e-07 -5.829122892464511e-05" pbc="T T T"
In       2.08729517       1.47593974       3.61530128       0.00000083      -0.00000052       0.00000063
In       6.26188315       4.42781856      10.84590056       0.00000048      -0.00000061       0.00000057
N       -0.00000397      -0.00000408      -0.00000397       0.00002014       0.00002699       0.00002142
Cl       1.78044121       1.25896313       7.23059889       0.00290408       0.00205013       0.00000042
Cl       6.56873707       4.64479824       7.23059968      -0.00293002      -0.00206849       0.00000080
Cl       5.37166122       1.25896305       5.15720626      -0.00145274       0.00205201       0.00251873
Cl       2.97751307       4.64479897       9.30399295       0.00146348      -0.00206852      -0.00253269
Cl       2.97751376       4.64479586       5.15720757       0.00145315      -0.00205123       0.00251613
Cl       5.37166191       1.25896239       9.30399221      -0.00145940       0.00206039      -0.00252593
