9
Lattice="4.758492173868531 -4.2433715607035135e-08 2.7473165811667037 1.5861640398847683 4.486349292140559 2.7473165431733224 6.714861150837428e-08 9.490602795869114e-10 5.494633046028572" Properties=species:S:1:pos:R:3:forces:R:3 energy=-33.98438262939453 free_energy=-33.98438262939453 stress="0.0003123203932773322 -5.135776248721413e-08 -6.341295488709875e-08 -5.135776248721413e-08 0.000312517600832507 2.6021442778301207e-08 -6.341295488709875e-08 2.6021442778301207e-08 0.000312498101266101" pbc="T T T"
In       1.58616382       1.12158743       2.74731697       0.00000030       0.00000028      -0.00000050
In       4.75849236       3.36476175       8.24194900       0.00000015      -0.00000012       0.00000112
N       -0.00000010       0.00000011       0.00000013       0.00000539       0.00000139      -0.00000577
F        1.41176509       0.99826874       5.49463302      -0.00133157      -0.00094205      -0.00000038
F        4.93289125       3.48808052       5.49463343       0.00132853       0.00094151      -0.00000088
F        4.05260965       0.99826895       3.96994100       0.00066862      -0.00094718      -0.00115705
F        2.29204666       3.48808037       7.01932491      -0.00066891       0.00094610       0.00116187
F        2.29204653       3.48808022       3.96994094      -0.00066808       0.00094491      -0.00115550
F        4.05260977       0.99826897       7.01932502       0.00066537      -0.00094497       0.00115728
