9
Lattice="6.259677521411184 -1.71842760591466e-07 3.614026597479702 2.086558978619812 5.9016813369479095 3.6140266549299063 7.450079157360177e-08 1.2304189007956402e-07 7.228053065920187" Properties=species:S:1:pos:R:3:forces:R:3 energy=-23.667505264282227 free_energy=-23.667505264282227 stress="-9.852538642007858e-05 -4.579532486559401e-08 -3.3101910101862586e-09 -4.579532486559401e-08 -9.846383181866258e-05 -1.629963719551597e-08 -3.3101910101862586e-09 -1.629963719551597e-08 -9.850065544014797e-05" pbc="T T T"
In       2.08655976       1.47542226       3.61402650       0.00000060       0.00000107      -0.00000024
In       6.25967833       4.42626053      10.84207954       0.00000042      -0.00000003      -0.00000044
N        0.00000075       0.00000040       0.00000055      -0.00000857      -0.00000309      -0.00000256
Cl       1.78051066       1.25901095       7.22805314       0.00113502       0.00080423      -0.00000035
Cl       6.56572575       4.64267019       7.22805343      -0.00113690      -0.00080401      -0.00000064
Cl       5.36942095       1.25901083       5.15599441      -0.00056241       0.00080388       0.00098273
Cl       2.97681449       4.64266959       9.30011244       0.00056668      -0.00080174      -0.00098484
Cl       2.97681474       4.64266932       5.15599405       0.00056733      -0.00080065       0.00098535
Cl       5.36942097       1.25901118       9.30011190      -0.00056224       0.00080032      -0.00097921
