9
Lattice="6.482785541966843 -4.4877793302172363e-08 3.742837951715449 2.1609284699977054 6.112028755264036 3.742837954625371 4.157444517061289e-08 3.29614855988353e-08 7.485675831421894" Properties=species:S:1:pos:R:3:forces:R:3 energy=-24.1138916015625 free_energy=-24.1138916015625 stress="-0.00015857575635891408 -1.2121598169656522e-09 1.9455921318467517e-09 -1.2121598169656522e-09 -0.00015857226389925927 -5.726418006446465e-09 1.9455921318467517e-09 -5.726418006446465e-09 -0.0001585630525369197" pbc="T T T"
In       2.16092864       1.52800734       3.74283798      -0.00000002       0.00000016       0.00000009
In       6.48278547       4.58402129      11.22851399      -0.00000005      -0.00000001       0.00000000
P       -0.00000013       0.00000013       0.00000030      -0.00000058      -0.00000066      -0.00000069
Br       2.08217452       1.47231961       7.48567578       0.00155051       0.00109738       0.00000028
Br       6.56153955       4.63970913       7.48567578      -0.00154978      -0.00109656       0.00000011
Br       5.44169842       1.47231956       5.54605365      -0.00077489       0.00109613       0.00134237
Br       3.20201586       4.63970890       9.42529794       0.00077456      -0.00109671      -0.00134288
Br       3.20201571       4.63970914       5.54605379       0.00077465      -0.00109585       0.00134255
Br       5.44169819       1.47231986       9.42529781      -0.00077452       0.00109608      -0.00134213
