9
Lattice="6.415911527659075 -2.1808554473012038e-07 3.7042283991915927 2.138637094653446 6.048979376917344 3.7042281837587128 -1.1953124134009597e-07 -3.483716238723983e-07 7.4084570054173255" Properties=species:S:1:pos:R:3:forces:R:3 energy=-27.217988967895508 free_energy=-27.217988967895508 stress="0.0001743189204717055 3.2710417485759535e-08 6.241196448542041e-10 3.2710417485759535e-08 0.0001743751927278936 8.229310566321146e-09 6.241196448542041e-10 8.229310566321146e-09 0.00017436518101021647" pbc="T T T"
In       2.13863695       1.51224442       3.70422780      -0.00000008      -0.00000001      -0.00000035
In       6.41591137       4.53673440      11.11268510      -0.00000023      -0.00000023      -0.00000062
P       -0.00000050      -0.00000033      -0.00000130       0.00001007       0.00000838       0.00002833
Cl       1.83500850       1.29754738       7.40845614      -0.00480648      -0.00340176       0.00000154
Cl       6.71954114       4.75143241       7.40845566       0.00479650       0.00339437       0.00000205
Cl       5.49840685       1.29754767       5.29339291       0.00240456      -0.00340405      -0.00416734
Cl       3.05613968       4.75143328       9.52352278      -0.00239332       0.00338715       0.00415106
Cl       3.05614129       4.75143117       5.29339275      -0.00240414       0.00340301      -0.00416580
Cl       5.49840861       1.29754477       9.52352261       0.00239321      -0.00338687       0.00415110
