9
Lattice="5.422078162414326 6.684714353742917e-07 3.130438247464436 1.8073597305637845 5.111985693067302 3.1304387448203634 3.359571478124634e-08 6.328898587154732e-07 6.260876436739409" Properties=species:S:1:pos:R:3:forces:R:3 energy=-41.55744934082031 free_energy=-41.55744934082031 stress="6.709372974000871e-05 -2.9308512949910437e-08 5.2189733423801954e-08 -2.9308512949910437e-08 6.708990258630365e-05 -1.56923132266229e-08 5.2189733423801954e-08 -1.56923132266229e-08 6.703363760607317e-05" pbc="T T T"
In       1.80735918       1.27799702       3.13043816       0.00000022      -0.00000065       0.00000039
In       5.42207825       3.83399016       9.39131503       0.00000049      -0.00000014      -0.00000019
P       -0.00000004       0.00000008       0.00000001      -0.00000068       0.00000413      -0.00000292
F        1.34064350       0.94797839       6.26087668      -0.00321060      -0.00226769       0.00000041
F        5.88879455       4.16400815       6.26087683       0.00321256       0.00227340       0.00000397
F        4.75175658       0.94797890       4.29146973       0.00160377      -0.00227477      -0.00278188
F        2.47768170       4.16400821       8.23028423      -0.00160626       0.00226932       0.00277430
F        2.47768157       4.16400765       4.29147005      -0.00160943       0.00227169      -0.00277906
F        4.75175632       0.94797951       8.23028332       0.00160983      -0.00227533       0.00278544
