9
Lattice="6.82192567976402 5.1912423478634206e-08 3.938640671098525 2.2739752780590257 6.431773243788956 3.9386406667206715 1.7511516652609494e-08 7.02081046185616e-09 7.877281311866231" Properties=species:S:1:pos:R:3:forces:R:3 energy=-21.6059627532959 free_energy=-21.6059627532959 stress="0.00016150105511769652 8.210092161675675e-09 -8.499325132582669e-10 8.210092161675675e-09 0.00016149537987075746 -2.7201918495478594e-09 -8.499325132582669e-10 -2.7201918495478594e-09 0.000161488787853159" pbc="T T T"
In       2.27397519       1.60794327       3.93864072       0.00000005       0.00000012       0.00000001
In       6.82192576       4.82383007      11.81592192       0.00000004      -0.00000014       0.00000000
P       -0.00000019       0.00000014       0.00000014      -0.00000002       0.00000006       0.00000013
I        2.27725344       1.61026143       7.87728136      -0.00321704      -0.00227476      -0.00000003
I        6.81864745       4.82151179       7.87728148       0.00321728       0.00227495      -0.00000027
I        5.68329915       1.61026144       5.91079996       0.00160794      -0.00227421      -0.00278546
I        3.41260205       4.82151177       9.84376251      -0.00160817       0.00227438       0.00278550
I        3.41260195       4.82151176       5.91080002      -0.00160801       0.00227419      -0.00278546
I        5.68329909       1.61026153       9.84376251       0.00160789      -0.00227454       0.00278556
