9
Lattice="6.416540032446102 2.430202692166234e-08 3.7045910240090043 2.138846677517312 6.0495719263047745 3.7045910636329764 -1.3161457721502313e-08 3.922267471623067e-08 7.4091820708143175" Properties=species:S:1:pos:R:3:forces:R:3 energy=-27.495594024658203 free_energy=-27.495594024658203 stress="7.075229950714856e-05 -2.5025290284474977e-08 -9.227618669171989e-09 -2.5025290284474977e-08 7.078308408381417e-05 1.3318297575892757e-08 -9.227618669171989e-09 1.3318297575892757e-08 7.079185161273926e-05" pbc="T T T"
In       2.13884678       1.51239302       3.70459107      -0.00000000      -0.00000006       0.00000028
In       6.41654014       4.53717905      11.11377305       0.00000015       0.00000003      -0.00000019
Rh      -0.00000016      -0.00000047       0.00000022       0.00000194       0.00000768      -0.00000216
Br       2.04338812       1.44489370       7.40918201       0.00365247       0.00258264       0.00000000
Br       6.51199897       4.60467857       7.40918210      -0.00365775      -0.00258610       0.00000004
Br       5.39484591       1.44489366       5.47421723      -0.00182553       0.00258183       0.00316134
Br       3.16054053       4.60467841       9.34414703       0.00182666      -0.00258314      -0.00316325
Br       3.16054051       4.60467848       5.47421692       0.00182794      -0.00258484       0.00316545
Br       5.39484600       1.44489355       9.34414696      -0.00182592       0.00258204      -0.00316150
