9
Lattice="5.063810628319478 -1.7027600256230157e-07 2.9235927499253993 1.6879367845075928 4.774206213445004 2.9235926305197593 -8.87524671689252e-08 -2.0899888534694145e-07 5.847185653574532" Properties=species:S:1:pos:R:3:forces:R:3 energy=-39.71263885498047 free_energy=-39.71263885498047 stress="-4.698794327850919e-06 -1.745572575373444e-08 -2.454066727608506e-09 -1.745572575373444e-08 -4.72751708002761e-06 -2.438586832465006e-10 -2.454066727608506e-09 -2.438586832465006e-10 -4.720212928077672e-06" pbc="T T T"
In       1.68793682       1.19355126       2.92359298      -0.00000007      -0.00000018       0.00000074
In       5.06381075       3.58065472       8.77077840       0.00000075       0.00000073       0.00000087
Rh       0.00000015      -0.00000020      -0.00000020      -0.00000553       0.00000302      -0.00000037
F        1.62225980       1.14711071       5.84718564       0.00008257       0.00005779       0.00000006
F        5.12948738       3.62709507       5.84718534      -0.00008129      -0.00005808      -0.00000010
F        4.25268052       1.14711075       4.32851125      -0.00003939       0.00005582       0.00006885
F        2.49906648       3.62709527       7.36585984       0.00004172      -0.00005811      -0.00007086
F        2.49906665       3.62709533       4.32851114       0.00004138      -0.00005810       0.00007120
F        4.25268066       1.14711026       7.36585999      -0.00004017       0.00005699      -0.00007033
