9
Lattice="6.180161273460214 3.242745614307463e-08 3.568117762410529 2.060053788523893 5.826712315028732 3.5681177621837854 1.5499546422033771e-09 8.183257653901763e-10 7.13623552213647" Properties=species:S:1:pos:R:3:forces:R:3 energy=-31.87407684326172 free_energy=-31.87407684326172 stress="0.0003026368503924459 -2.9384841226942626e-08 -3.327265130081969e-10 -2.9384841226942626e-08 0.00030264980159699917 -1.3731560777330287e-08 -3.327265130081969e-10 -1.3731560777330287e-08 0.0003026676131412387" pbc="T T T"
In       2.06005413       1.45667833       3.56811791       0.00000007       0.00000007       0.00000007
In       6.18016170       4.37003486      10.70435323      -0.00000012       0.00000021      -0.00000009
Ru      -0.00000013      -0.00000047      -0.00000026      -0.00000455       0.00000707       0.00000176
Cl       1.92500597       1.36118460       7.13623543      -0.00207615      -0.00146748       0.00000041
Cl       6.31520889       4.46552703       7.13623554       0.00207663       0.00146981      -0.00000015
Cl       5.21765800       1.36118540       5.23522227       0.00104068      -0.00147262      -0.00180361
Cl       3.02255679       4.46552714       9.03724918      -0.00103812       0.00146727       0.00179642
Cl       3.02255679       4.46552714       5.23522196      -0.00103906       0.00146900      -0.00179821
Cl       5.21765827       1.36118541       9.03724903       0.00104047      -0.00147314       0.00180364
