9
Lattice="5.228170894793247 -9.899684658122573e-08 3.018485858436423 1.7427236007856834 4.929166437519384 3.018485750143309 5.8026111036850134e-08 -9.160076371914997e-08 6.0369716163686675" Properties=species:S:1:pos:R:3:forces:R:3 energy=-41.692413330078125 free_energy=-41.692413330078125 stress="-1.6416332073276863e-05 8.817421459639263e-09 4.481330861949573e-09 8.817421459639263e-09 -1.643716859689448e-05 -1.175861769064923e-10 4.481330861949573e-09 -1.175861769064923e-10 -1.644621261220891e-05" pbc="T T T"
In       1.74272356       1.23229158       3.01848588      -0.00000014       0.00000007      -0.00000009
In       5.22817078       3.69687483       9.05545740       0.00000005       0.00000007       0.00000024
Ru       0.00000008      -0.00000013       0.00000005       0.00000023       0.00000513       0.00000207
F        1.61539863       1.14225933       6.03697164       0.00075826       0.00053611      -0.00000012
F        5.35549594       3.78690684       6.03697164      -0.00075937      -0.00053746      -0.00000017
F        4.42047157       1.14225922       4.41746190      -0.00037977       0.00053668       0.00065757
F        2.55042302       3.78690710       7.65648140       0.00038062      -0.00053900      -0.00065986
F        2.55042292       3.78690712       4.41746200       0.00038031      -0.00053879       0.00065900
F        4.42047178       1.14225909       7.65648123      -0.00038018       0.00053719      -0.00065863
