9
Lattice="6.751047707578329 -5.209808721454294e-08 3.8977192402537026 2.25034915560894 6.364948794036242 3.8977192941759062 -5.087560328382551e-08 3.0066491275215034e-08 7.795438568626485" Properties=species:S:1:pos:R:3:forces:R:3 energy=-24.96514320373535 free_energy=-24.96514320373535 stress="0.0001634113141335547 -7.325258177814931e-09 -1.0009074680183971e-09 -7.325258177814931e-09 0.00016341623268090189 1.2926081316422255e-09 -1.0009074680183971e-09 1.2926081316422255e-09 0.00016342576418537647" pbc="T T T"
In       2.25034921       1.59123727       3.89771929      -0.00000009      -0.00000017      -0.00000006
In       6.75104766       4.77371151      11.69315787       0.00000005       0.00000012      -0.00000006
Rh       0.00000002       0.00000000      -0.00000051       0.00000037       0.00000052       0.00000602
I        2.20057711       1.55604300       7.79543844      -0.00108731      -0.00076913       0.00000033
I        6.80081960       4.80890577       7.79543853       0.00108707       0.00076919       0.00000004
I        5.65075882       1.55604335       5.80347540       0.00054504      -0.00077074      -0.00094420
I        3.35063766       4.80890580       9.78740189      -0.00054324       0.00076795       0.00094089
I        3.35063791       4.80890538       5.80347535      -0.00054473       0.00077086      -0.00094389
I        5.65075924       1.55604301       9.78740215       0.00054279      -0.00076866       0.00094089
