9
Lattice="6.742539828205374 6.88704337585539e-08 3.8928071270133775 2.2475133183741423 6.356927616458482 3.8928071662026533 -4.865277961645433e-08 1.3594249070946379e-08 7.785614338295714" Properties=species:S:1:pos:R:3:forces:R:3 energy=-25.80402183532715 free_energy=-25.80402183532715 stress="0.00021833805658388883 -5.820344650686593e-09 2.3668261794895784e-10 -5.820344650686593e-09 0.00021833642676938325 -4.073773318680196e-09 2.3668261794895784e-10 -4.073773318680196e-09 0.0002183327596867457" pbc="T T T"
In       2.24751328       1.58923192       3.89280712      -0.00000016      -0.00000017       0.00000009
In       6.74253980       4.76769580      11.67842149       0.00000002       0.00000015      -0.00000006
Ru      -0.00000018       0.00000005      -0.00000005       0.00000088       0.00000008      -0.00000279
I        2.21218991       1.56425455       7.78561430      -0.00190052      -0.00134397      -0.00000002
I        6.77786344       4.79267321       7.78561435       0.00189891       0.00134281       0.00000012
I        5.63644482       1.56425452       5.80861964       0.00094984      -0.00134277      -0.00164466
I        3.35360819       4.79267313       9.76260899      -0.00095045       0.00134472       0.00164623
I        3.35360816       4.79267310       5.80861967      -0.00094959       0.00134328      -0.00164531
I        5.63644497       1.56425452       9.76260898       0.00095104      -0.00134414       0.00164647
